<event>
 8    1  0.1063984E+005  0.1043930E+01  0.7957747E-01            NaN
         13   -1    0    0    0    0  0.00000000000E+00  0.00000000000E+00  0.74505805969E-08  0.10566000000E+00  0.10566000000E+00 0.  1.
     999900   -1    0    0    0    0 -0.00000000000E+00 -0.00000000000E+00 -0.74505805969E-08  0.93827000000E+00  0.93827000000E+00 0. -1.
     999902    2    1    2    0    0 -0.23681750808E-01 -0.55531297400E-02 -0.29465538291E-02  0.10194280664E+01  0.10191335721E+01 0.  0.
     999903    2    3    3    0    0 -0.18258332415E-01  0.12532947008E+00  0.17953670144E-01  0.12948622123E+00  0.20087420057E-01 0.  0.
         14    1    1    2    0    0  0.23681750808E-01  0.55531297400E-02  0.29465538291E-02  0.24501933612E-01  0.00000000000E+00 0. -1.
     999901    1    3    3    0    0 -0.54234183935E-02 -0.13088259982E+00 -0.20900223973E-01  0.88994184516E+00  0.88000000000E+00 0.  1.
        -11    1    4    4    0    0 -0.64013696042E-02  0.31222244613E-01 -0.40010101877E-02  0.32125928703E-01  0.51100000000E-03 0.  1.
         11    1    4    4    0    0 -0.11856962811E-01  0.94107225463E-01  0.21954680332E-01  0.97360292527E-01  0.51100000000E-03 0. -1.
</event>
<event>
 8    1  0.1063984E+005  0.1043930E+01  0.7957747E-01            NaN
         13   -1    0    0    0    0  0.00000000000E+00  0.00000000000E+00  0.74505805969E-08  0.10566000000E+00  0.10566000000E+00 0.  1.
     999900   -1    0    0    0    0 -0.00000000000E+00 -0.00000000000E+00 -0.74505805969E-08  0.93827000000E+00  0.93827000000E+00 0. -1.
     999902    2    1    2    0    0  0.18056061863E-01 -0.22243947199E-02 -0.13001785408E-01  0.10215689686E+01  0.10213242100E+01 0.  0.
     999903    2    3    3    0    0 -0.12252737166E+00 -0.38486021844E-01 -0.57950184495E-03  0.12958639000E+00  0.17267482969E-01 0.  0.
         14    1    1    2    0    0 -0.18056061863E-01  0.22243947199E-02  0.13001785408E-01  0.22361031409E-01  0.00000000000E+00 0. -1.
     999901    1    3    3    0    0  0.14058343352E+00  0.36261627124E-01 -0.12422283563E-01  0.89198257859E+00  0.88000000000E+00 0.  1.
        -11    1    4    4    0    0 -0.40607796782E-01 -0.20973790679E-01 -0.27066921641E-02  0.45787338407E-01  0.51100000000E-03 0. -1.
         11    1    4    4    0    0 -0.81919574876E-01 -0.17512231165E-01  0.21271903192E-02  0.83799051593E-01  0.51100000000E-03 0.  1.
</event>
<event>
 8    1  0.1063984E+005  0.1043930E+01  0.7957747E-01            NaN
         13   -1    0    0    0    0  0.00000000000E+00  0.00000000000E+00  0.74505805969E-08  0.10566000000E+00  0.10566000000E+00 0. -1.
     999900   -1    0    0    0    0 -0.00000000000E+00 -0.00000000000E+00 -0.74505805969E-08  0.93827000000E+00  0.93827000000E+00 0.  1.
     999902    2    1    2    0    0 -0.13363642097E-01  0.18313702201E-01  0.13412129798E-01  0.10175887046E+01  0.10172477121E+01 0.  0.
     999903    2    3    3    0    0 -0.22958698208E-01 -0.11298903607E+00  0.49435082196E-01  0.12706631448E+00  0.20208830472E-01 0.  0.
         14    1    1    2    0    0  0.13363642097E-01 -0.18313702201E-01 -0.13412129798E-01  0.26341295414E-01  0.00000000000E+00 0.  1.
     999901    1    3    3    0    0  0.95950561112E-02  0.13130273827E+00 -0.36022952398E-01  0.89052239010E+00  0.88000000000E+00 0.  1.
        -11    1    4    4    0    0 -0.25814369990E-02 -0.48089942953E-01  0.12939919182E-01  0.49869921392E-01  0.51100000000E-03 0.  1.
         11    1    4    4    0    0 -0.20377261209E-01 -0.64899093115E-01  0.36495163014E-01  0.77196393089E-01  0.51100000000E-03 0. -1.
</event>
<event>
 8    1  0.1063984E+005  0.1043930E+01  0.7957747E-01            NaN
         13   -1    0    0    0    0  0.00000000000E+00  0.00000000000E+00  0.74505805969E-08  0.10566000000E+00  0.10566000000E+00 0. -1.
     999900   -1    0    0    0    0 -0.00000000000E+00 -0.00000000000E+00 -0.74505805969E-08  0.93827000000E+00  0.93827000000E+00 0.  1.
     999902    2    1    2    0    0  0.41211677934E-02  0.20152945695E-01 -0.11215571689E-01  0.10205010800E+01  0.10202321010E+01 0.  0.
     999903    2    3    3    0    0 -0.32472307320E-01  0.11639189773E+00 -0.52799092647E-01  0.13352294750E+00  0.20954921245E-01 0.  0.
         14    1    1    2    0    0 -0.41211677934E-02 -0.20152945695E-01  0.11215571689E-01  0.23428920002E-01  0.00000000000E+00 0. -1.
     999901    1    3    3    0    0  0.36593475113E-01 -0.96238952039E-01  0.41583520958E-01  0.88697813250E+00  0.88000000000E+00 0. -1.
        -11    1    4    4    0    0 -0.19031989363E-01  0.97124696168E-01 -0.45391225161E-01  0.10888547960E+00  0.51100000000E-03 0.  1.
         11    1    4    4    0    0 -0.13440317957E-01  0.19267201566E-01 -0.74078674862E-02  0.24637467903E-01  0.51100000000E-03 0. -1.
</event>
<event>
 8    1  0.1063984E+005  0.1043930E+01  0.7957747E-01            NaN
         13   -1    0    0    0    0  0.00000000000E+00  0.00000000000E+00  0.74505805969E-08  0.10566000000E+00  0.10566000000E+00 0.  1.
     999900   -1    0    0    0    0 -0.00000000000E+00 -0.00000000000E+00 -0.74505805969E-08  0.93827000000E+00  0.93827000000E+00 0.  1.
     999902    2    1    2    0    0  0.26829480484E-02 -0.16121814377E-01  0.16819769964E-01  0.10204775850E+01  0.10202080600E+01 0.  0.
     999903    2    3    3    0    0 -0.12325260500E+00  0.14753874079E-01 -0.31490720819E-01  0.12966504848E+00  0.20309550941E-01 0.  0.
         14    1    1    2    0    0 -0.26829480484E-02  0.16121814377E-01 -0.16819769964E-01  0.23452415028E-01  0.00000000000E+00 0. -1.
     999901    1    3    3    0    0  0.12593555305E+00 -0.30875688455E-01  0.48310490783E-01  0.89081253650E+00  0.88000000000E+00 0. -1.
        -11    1    4    4    0    0 -0.39494978846E-01 -0.41924114330E-02 -0.66840651460E-02  0.40278623556E-01  0.51100000000E-03 0.  1.
         11    1    4    4    0    0 -0.83757626152E-01  0.18946285512E-01 -0.24806655673E-01  0.89386424920E-01  0.51100000000E-03 0. -1.
</event>
<event>
 8    1  0.1063984E+005  0.1043930E+01  0.7957747E-01            NaN
         13   -1    0    0    0    0  0.00000000000E+00  0.00000000000E+00  0.74505805969E-08  0.10566000000E+00  0.10566000000E+00 0. -1.
     999900   -1    0    0    0    0 -0.00000000000E+00 -0.00000000000E+00 -0.74505805969E-08  0.93827000000E+00  0.93827000000E+00 0.  1.
     999902    2    1    2    0    0  0.81451780766E-02  0.11481446906E-01 -0.18593201408E-01  0.10206088789E+01  0.10203423980E+01 0.  0.
     999903    2    3    3    0    0  0.10148214532E+00  0.82673140955E-01  0.46018970894E-02  0.13251087796E+00  0.20111719586E-01 0.  0.
         14    1    1    2    0    0 -0.81451780766E-02 -0.11481446906E-01  0.18593201408E-01  0.23321121061E-01  0.00000000000E+00 0. -1.
     999901    1    3    3    0    0 -0.93336967247E-01 -0.71191694049E-01 -0.23195098498E-01  0.88809800098E+00  0.88000000000E+00 0.  1.
        -11    1    4    4    0    0  0.63206904134E-01  0.45841985567E-01  0.11571225898E-01  0.78935130080E-01  0.51100000000E-03 0. -1.
         11    1    4    4    0    0  0.38275241190E-01  0.36831155388E-01 -0.69693288088E-02  0.53575747876E-01  0.51100000000E-03 0.  1.
</event>
<event>
 8    1  0.1063984E+005  0.1043930E+01  0.7957747E-01            NaN
         13   -1    0    0    0    0  0.00000000000E+00  0.00000000000E+00  0.74505805969E-08  0.10566000000E+00  0.10566000000E+00 0. -1.
     999900   -1    0    0    0    0 -0.00000000000E+00 -0.00000000000E+00 -0.74505805969E-08  0.93827000000E+00  0.93827000000E+00 0.  1.
     999902    2    1    2    0    0  0.22817212055E-01  0.31526198038E-02 -0.23581663579E-02  0.10207756240E+01  0.10205129835E+01 0.  0.
     999903    2    3    3    0    0 -0.10134329101E-01  0.64546767914E-01  0.11112427559E+00  0.13075691069E+00  0.21903771190E-01 0.  0.
         14    1    1    2    0    0 -0.22817212055E-01 -0.31526198038E-02  0.23581663579E-02  0.23154375961E-01  0.00000000000E+00 0.  1.
     999901    1    3    3    0    0  0.32951541155E-01 -0.61394148110E-01 -0.11348244195E+00  0.89001871335E+00  0.88000000000E+00 0.  1.
        -11    1    4    4    0    0  0.83778222336E-03  0.12907849433E-01  0.40907816159E-01  0.42907167233E-01  0.51100000000E-03 0.  1.
         11    1    4    4    0    0 -0.10972111324E-01  0.51638918482E-01  0.70216459431E-01  0.87849743454E-01  0.51100000000E-03 0. -1.
</event>
<event>
 8    1  0.1063984E+005  0.1043930E+01  0.7957747E-01            NaN
         13   -1    0    0    0    0  0.00000000000E+00  0.00000000000E+00  0.74505805969E-08  0.10566000000E+00  0.10566000000E+00 0.  1.
     999900   -1    0    0    0    0 -0.00000000000E+00 -0.00000000000E+00 -0.74505805969E-08  0.93827000000E+00  0.93827000000E+00 0.  1.
     999902    2    1    2    0    0 -0.19823926927E-01 -0.13022099608E-01 -0.41368931876E-02  0.10198535168E+01  0.10195692810E+01 0.  0.
     999903    2    3    3    0    0 -0.81275735197E-01  0.73278070673E-01 -0.69258829165E-01  0.13111007202E+00  0.20436359622E-01 0.  0.
         14    1    1    2    0    0  0.19823926927E-01  0.13022099608E-01  0.41368931876E-02  0.24076483179E-01  0.00000000000E+00 0.  1.
     999901    1    3    3    0    0  0.61451808270E-01 -0.86300170281E-01  0.65121935978E-01  0.88874344480E+00  0.88000000000E+00 0.  1.
        -11    1    4    4    0    0 -0.14068221509E-01  0.68827214163E-02 -0.36528844271E-02  0.16090102428E-01  0.51100000000E-03 0.  1.
         11    1    4    4    0    0 -0.67207513688E-01  0.66395349257E-01 -0.65605944738E-01  0.11501996959E+00  0.51100000000E-03 0. -1.
</event>
<event>
 8    1  0.1063984E+005  0.1043930E+01  0.7957747E-01            NaN
         13   -1    0    0    0    0  0.00000000000E+00  0.00000000000E+00  0.74505805969E-08  0.10566000000E+00  0.10566000000E+00 0.  1.
     999900   -1    0    0    0    0 -0.00000000000E+00 -0.00000000000E+00 -0.74505805969E-08  0.93827000000E+00  0.93827000000E+00 0.  1.
     999902    2    1    2    0    0  0.93028205752E-02 -0.20700175782E-01 -0.39414208193E-02  0.10208957962E+01  0.10206359057E+01 0.  0.
     999903    2    3    3    0    0 -0.12387413973E+00  0.19186455113E-01 -0.25878233720E-01  0.12971216198E+00  0.21038997923E-01 0.  0.
         14    1    1    2    0    0 -0.93028205752E-02  0.20700175782E-01  0.39414208193E-02  0.23034203831E-01  0.00000000000E+00 0.  1.
     999901    1    3    3    0    0  0.13317696030E+00 -0.39886630894E-01  0.21936812900E-01  0.89118363419E+00  0.88000000000E+00 0.  1.
        -11    1    4    4    0    0 -0.52508491548E-01  0.16007534927E-01 -0.41996731523E-02  0.55057072522E-01  0.51100000000E-03 0. -1.
         11    1    4    4    0    0 -0.71365648177E-01  0.31789201853E-02 -0.21678560567E-01  0.74655089462E-01  0.51100000000E-03 0.  1.
</event>
<event>
 8    1  0.1063984E+005  0.1043930E+01  0.7957747E-01            NaN
         13   -1    0    0    0    0  0.00000000000E+00  0.00000000000E+00  0.74505805969E-08  0.10566000000E+00  0.10566000000E+00 0.  1.
     999900   -1    0    0    0    0 -0.00000000000E+00 -0.00000000000E+00 -0.74505805969E-08  0.93827000000E+00  0.93827000000E+00 0.  1.
     999902    2    1    2    0    0 -0.20285948406E-01  0.10412634848E-01 -0.60765129479E-02  0.10203319773E+01  0.10200590557E+01 0.  0.
     999903    2    3    3    0    0  0.88691848275E-01 -0.89916372109E-01  0.11323281197E-02  0.12792285742E+00  0.20292298020E-01 0.  0.
         14    1    1    2    0    0  0.20285948406E-01 -0.10412634848E-01  0.60765129479E-02  0.23598022731E-01  0.00000000000E+00 0.  1.
     999901    1    3    3    0    0 -0.10897779668E+00  0.10032900696E+00 -0.72088410676E-02  0.89240911985E+00  0.88000000000E+00 0.  1.
        -11    1    4    4    0    0  0.69082431394E-01 -0.77528258502E-01 -0.48765948268E-02  0.10395698866E+00  0.51100000000E-03 0. -1.
         11    1    4    4    0    0  0.19609416881E-01 -0.12388113607E-01  0.60089229466E-02  0.23965868754E-01  0.51100000000E-03 0.  1.
</event>
<event>
 8    1  0.1063984E+005  0.1043930E+01  0.7957747E-01            NaN
         13   -1    0    0    0    0  0.00000000000E+00  0.00000000000E+00  0.74505805969E-08  0.10566000000E+00  0.10566000000E+00 0.  1.
     999900   -1    0    0    0    0 -0.00000000000E+00 -0.00000000000E+00 -0.74505805969E-08  0.93827000000E+00  0.93827000000E+00 0.  1.
     999902    2    1    2    0    0 -0.17274083605E-01 -0.11753458493E-01  0.11242586807E-01  0.10202037801E+01  0.10199278501E+01 0.  0.
     999903    2    3    3    0    0  0.12265630007E+00  0.31434775908E-01  0.18307190340E-01  0.12807394402E+00  0.59218945639E-02 0.  0.
         14    1    1    2    0    0  0.17274083605E-01  0.11753458493E-01 -0.11242586807E-01  0.23726219864E-01  0.00000000000E+00 0.  1.
     999901    1    3    3    0    0 -0.13993038367E+00 -0.43188234401E-01 -0.70646035329E-02  0.89212983612E+00  0.88000000000E+00 0.  1.
        -11    1    4    4    0    0  0.49228640546E-01  0.97886565801E-02  0.80474860803E-02  0.50836010867E-01  0.51100000000E-03 0.  1.
         11    1    4    4    0    0  0.73427659525E-01  0.21646119328E-01  0.10259704260E-01  0.77237933153E-01  0.51100000000E-03 0. -1.
</event>
<event>
 8    1  0.1078938E+005  0.1043930E+01  0.7957747E-01            NaN
         13   -1    0    0    0    0  0.00000000000E+00  0.00000000000E+00  0.74505805969E-08  0.10566000000E+00  0.10566000000E+00 0.  1.
     999900   -1    0    0    0    0 -0.00000000000E+00 -0.00000000000E+00 -0.74505805969E-08  0.93827000000E+00  0.93827000000E+00 0. -1.
     999902    2    1    2    0    0 -0.17339238446E-01 -0.12417264903E-01 -0.12708721890E-01  0.10191036175E+01  0.10188011748E+01 0.  0.
     999903    2    3    3    0    0  0.69074098412E-02 -0.12845824685E+00 -0.15215730299E-01  0.13115108803E+00  0.20490386753E-01 0.  0.
         14    1    1    2    0    0  0.17339238446E-01  0.12417264903E-01  0.12708721890E-01  0.24826382532E-01  0.00000000000E+00 0. -1.
     999901    1    3    3    0    0 -0.24246648287E-01  0.11604098194E+00  0.25070084097E-02  0.88795252944E+00  0.88000000000E+00 0. -1.
        -11    1    4    4    0    0  0.13829239844E-01 -0.66988876598E-01 -0.83647021218E-02  0.68912893025E-01  0.51100000000E-03 0. -1.
         11    1    4    4    0    0 -0.69218300028E-02 -0.61469370249E-01 -0.68510281775E-02  0.62238195005E-01  0.51100000000E-03 0.  1.
</event>
<event>
 8    1  0.1063984E+005  0.1043930E+01  0.7957747E-01            NaN
         13   -1    0    0    0    0  0.00000000000E+00  0.00000000000E+00  0.74505805969E-08  0.10566000000E+00  0.10566000000E+00 0.  1.
     999900   -1    0    0    0    0 -0.00000000000E+00 -0.00000000000E+00 -0.74505805969E-08  0.93827000000E+00  0.93827000000E+00 0.  1.
     999902    2    1    2    0    0  0.56446149490E-02  0.63755616232E-02 -0.23911560344E-01  0.10185474827E+01  0.10182311636E+01 0.  0.
     999903    2    3    3    0    0 -0.40005954542E-01  0.33693624096E-01 -0.11951029304E+00  0.13177278266E+00  0.18590841930E-01 0.  0.
         14    1    1    2    0    0 -0.56446149490E-02 -0.63755616232E-02  0.23911560344E-01  0.25382517252E-01  0.00000000000E+00 0.  1.
     999901    1    3    3    0    0  0.45650569491E-01 -0.27318062473E-01  0.95598732692E-01  0.88677470009E+00  0.88000000000E+00 0. -1.
        -11    1    4    4    0    0 -0.26409981245E-01  0.25042354044E-01 -0.60554520974E-01  0.70652089401E-01  0.51100000000E-03 0. -1.
         11    1    4    4    0    0 -0.13595973297E-01  0.86512700522E-02 -0.58955772062E-01  0.61120693254E-01  0.51100000000E-03 0.  1.
</event>
<event>
 8    1  0.1063984E+005  0.1043930E+01  0.7957747E-01            NaN
         13   -1    0    0    0    0  0.00000000000E+00  0.00000000000E+00  0.74505805969E-08  0.10566000000E+00  0.10566000000E+00 0. -1.
     999900   -1    0    0    0    0 -0.00000000000E+00 -0.00000000000E+00 -0.74505805969E-08  0.93827000000E+00  0.93827000000E+00 0. -1.
     999902    2    1    2    0    0 -0.19273976276E-01 -0.94778856094E-02 -0.81839383726E-02  0.10209453676E+01  0.10206866073E+01 0.  0.
     999903    2    3    3    0    0  0.61788458586E-01  0.89915097872E-01 -0.67184724719E-01  0.12969277926E+00  0.20097047489E-01 0.  0.
         14    1    1    2    0    0  0.19273976276E-01  0.94778856094E-02  0.81839383726E-02  0.22984632353E-01  0.00000000000E+00 0. -1.
     999901    1    3    3    0    0 -0.81062434862E-01 -0.99392983481E-01  0.59000786347E-01  0.89125258838E+00  0.88000000000E+00 0. -1.
        -11    1    4    4    0    0  0.62059973512E-01  0.82944844134E-01 -0.60232706215E-01  0.11983124592E+00  0.51100000000E-03 0.  1.
         11    1    4    4    0    0 -0.27151492590E-03  0.69702537374E-02 -0.69520185043E-02  0.98615333394E-02  0.51100000000E-03 0. -1.
</event>
<event>
 8    1  0.1063984E+005  0.1043930E+01  0.7957747E-01            NaN
         13   -1    0    0    0    0  0.00000000000E+00  0.00000000000E+00  0.74505805969E-08  0.10566000000E+00  0.10566000000E+00 0. -1.
     999900   -1    0    0    0    0 -0.00000000000E+00 -0.00000000000E+00 -0.74505805969E-08  0.93827000000E+00  0.93827000000E+00 0. -1.
     999902    2    1    2    0    0 -0.53052103262E-02  0.76411919571E-02 -0.21162151436E-01  0.10208135616E+01  0.10205517909E+01 0.  0.
     999903    2    3    3    0    0 -0.29327040436E-01  0.54075302803E-01 -0.11745081742E+00  0.13401895056E+00  0.19549192334E-01 0.  0.
         14    1    1    2    0    0  0.53052103262E-02 -0.76411919571E-02  0.21162151436E-01  0.23116438405E-01  0.00000000000E+00 0. -1.
     999901    1    3    3    0    0  0.24021830110E-01 -0.46434110846E-01  0.96288665986E-01  0.88679461104E+00  0.88000000000E+00 0.  1.
        -11    1    4    4    0    0 -0.26234615670E-01  0.28513170392E-01 -0.72978959336E-01  0.82628358158E-01  0.51100000000E-03 0.  1.
         11    1    4    4    0    0 -0.30924247663E-02  0.25562132411E-01 -0.44471858086E-01  0.51390592397E-01  0.51100000000E-03 0. -1.
</event>
<event>
 8    1  0.1063984E+005  0.1043930E+01  0.7957747E-01            NaN
         13   -1    0    0    0    0  0.00000000000E+00  0.00000000000E+00  0.74505805969E-08  0.10566000000E+00  0.10566000000E+00 0.  1.
     999900   -1    0    0    0    0 -0.00000000000E+00 -0.00000000000E+00 -0.74505805969E-08  0.93827000000E+00  0.93827000000E+00 0. -1.
     999902    2    1    2    0    0  0.14331491614E-01  0.11390924129E-01 -0.16698545655E-01  0.10191512544E+01  0.10188499856E+01 0.  0.
     999903    2    3    3    0    0  0.12507349539E+00  0.22245881036E-01  0.24967844160E-01  0.13116605776E+00  0.21044785429E-01 0.  0.
         14    1    1    2    0    0 -0.14331491614E-01 -0.11390924129E-01  0.16698545655E-01  0.24778745557E-01  0.00000000000E+00 0. -1.
     999901    1    3    3    0    0 -0.11074200378E+00 -0.10854956907E-01 -0.41666389815E-01  0.88798519668E+00  0.88000000000E+00 0. -1.
        -11    1    4    4    0    0  0.85996704571E-01  0.24941584880E-01  0.19092557800E-01  0.91554916513E-01  0.51100000000E-03 0. -1.
         11    1    4    4    0    0  0.39076790819E-01 -0.26957038446E-02  0.58752863603E-02  0.39611141245E-01  0.51100000000E-03 0.  1.
</event>
<event>
 8    1  0.1063984E+005  0.1043930E+01  0.7957747E-01            NaN
         13   -1    0    0    0    0  0.00000000000E+00  0.00000000000E+00  0.74505805969E-08  0.10566000000E+00  0.10566000000E+00 0.  1.
     999900   -1    0    0    0    0 -0.00000000000E+00 -0.00000000000E+00 -0.74505805969E-08  0.93827000000E+00  0.93827000000E+00 0.  1.
     999902    2    1    2    0    0 -0.18879832984E-01 -0.13740282180E-01  0.14188361062E-02  0.10205364850E+01  0.10202683278E+01 0.  0.
     999903    2    3    3    0    0  0.32053630183E-01 -0.40905831601E-01  0.11848590845E+00  0.13090909999E+00  0.19938898928E-01 0.  0.
         14    1    1    2    0    0  0.18879832984E-01  0.13740282180E-01 -0.14188361062E-02  0.23393514994E-01  0.00000000000E+00 0.  1.
     999901    1    3    3    0    0 -0.50933463166E-01  0.27165549421E-01 -0.11706707235E+00  0.88962738502E+00  0.88000000000E+00 0.  1.
        -11    1    4    4    0    0  0.79885540058E-02 -0.22076487621E-01  0.67473603415E-01  0.71443240265E-01  0.51100000000E-03 0.  1.
         11    1    4    4    0    0  0.24065076177E-01 -0.18829343979E-01  0.51012305040E-01  0.59465859723E-01  0.51100000000E-03 0. -1.
</event>
<event>
 8    1  0.1514921E+005  0.1043930E+01  0.7957747E-01            NaN
         13   -1    0    0    0    0  0.00000000000E+00  0.00000000000E+00  0.74505805969E-08  0.10566000000E+00  0.10566000000E+00 0. -1.
     999900   -1    0    0    0    0 -0.00000000000E+00 -0.00000000000E+00 -0.74505805969E-08  0.93827000000E+00  0.93827000000E+00 0. -1.
     999902    2    1    2    0    0 -0.38910412632E-02 -0.64423559309E-02 -0.27258603729E-01  0.10156514635E+01  0.10152577109E+01 0.  0.
     999903    2    3    3    0    0  0.10328245716E-01 -0.27970036142E-01 -0.12478123399E+00  0.12988835034E+00  0.20288706644E-01 0.  0.
         14    1    1    2    0    0  0.38910412632E-02  0.64423559309E-02  0.27258603729E-01  0.28278536548E-01  0.00000000000E+00 0. -1.
     999901    1    3    3    0    0 -0.14219286979E-01  0.21527680212E-01  0.97522630258E-01  0.88576311311E+00  0.88000000000E+00 0.  1.
        -11    1    4    4    0    0 -0.28488499771E-02 -0.20094931843E-01 -0.80429566370E-01  0.82952386943E-01  0.51100000000E-03 0. -1.
         11    1    4    4    0    0  0.13177095693E-01 -0.78751042997E-02 -0.44351667616E-01  0.46935963397E-01  0.51100000000E-03 0.  1.
</event>
<event>
 8    1  0.1063984E+005  0.1043930E+01  0.7957747E-01            NaN
         13   -1    0    0    0    0  0.00000000000E+00  0.00000000000E+00  0.74505805969E-08  0.10566000000E+00  0.10566000000E+00 0.  1.
     999900   -1    0    0    0    0 -0.00000000000E+00 -0.00000000000E+00 -0.74505805969E-08  0.93827000000E+00  0.93827000000E+00 0.  1.
     999902    2    1    2    0    0 -0.36164165536E-03  0.22684282847E-01  0.54936965015E-02  0.10205871601E+01  0.10203201768E+01 0.  0.
     999903    2    3    3    0    0 -0.28312883300E-02 -0.10422746778E+00  0.73564893401E-01  0.12887735336E+00  0.18060936723E-01 0.  0.
         14    1    1    2    0    0  0.36164165536E-03 -0.22684282847E-01 -0.54936965015E-02  0.23342839892E-01  0.00000000000E+00 0. -1.
     999901    1    3    3    0    0  0.24696466746E-02  0.12691175062E+00 -0.68071196899E-01  0.89170980675E+00  0.88000000000E+00 0.  1.
        -11    1    4    4    0    0  0.46656183938E-02 -0.49197813755E-01  0.26501439278E-01  0.56078340543E-01  0.51100000000E-03 0.  1.
         11    1    4    4    0    0 -0.74969067238E-02 -0.55029654022E-01  0.47063454123E-01  0.72799012817E-01  0.51100000000E-03 0. -1.
</event>
<event>
 8    1  0.1063984E+005  0.1043930E+01  0.7957747E-01            NaN
         13   -1    0    0    0    0  0.00000000000E+00  0.00000000000E+00  0.74505805969E-08  0.10566000000E+00  0.10566000000E+00 0. -1.
     999900   -1    0    0    0    0 -0.00000000000E+00 -0.00000000000E+00 -0.74505805969E-08  0.93827000000E+00  0.93827000000E+00 0. -1.
     999902    2    1    2    0    0 -0.23215763516E-02 -0.20417840520E-01  0.12284710509E-01  0.10199885706E+01  0.10197075523E+01 0.  0.
     999903    2    3    3    0    0 -0.10982296429E+00  0.46058327515E-02  0.69044718504E-01  0.13127915178E+00  0.19614926921E-01 0.  0.
         14    1    1    2    0    0  0.23215763516E-02  0.20417840520E-01 -0.12284710509E-01  0.23941429375E-01  0.00000000000E+00 0. -1.
     999901    1    3    3    0    0  0.10750138794E+00 -0.25023673271E-01 -0.56760007995E-01  0.88870941884E+00  0.88000000000E+00 0. -1.
        -11    1    4    4    0    0 -0.67934982718E-01  0.11738969837E-01  0.38699347413E-01  0.79062417753E-01  0.51100000000E-03 0.  1.
         11    1    4    4    0    0 -0.41887981573E-01 -0.71331370859E-02  0.30345371091E-01  0.52216734028E-01  0.51100000000E-03 0. -1.
</event>
<event>
 8    1  0.1063984E+005  0.1043930E+01  0.7957747E-01            NaN
         13   -1    0    0    0    0  0.00000000000E+00  0.00000000000E+00  0.74505805969E-08  0.10566000000E+00  0.10566000000E+00 0. -1.
     999900   -1    0    0    0    0 -0.00000000000E+00 -0.00000000000E+00 -0.74505805969E-08  0.93827000000E+00  0.93827000000E+00 0.  1.
     999902    2    1    2    0    0 -0.20375117414E-01 -0.53929292885E-03 -0.11164493590E-01  0.10206903321E+01  0.10204257307E+01 0.  0.
     999903    2    3    3    0    0  0.44934097660E-01  0.76269774987E-01 -0.94468478631E-01  0.13102495658E+00  0.20176572650E-01 0.  0.
         14    1    1    2    0    0  0.20375117414E-01  0.53929292885E-03  0.11164493590E-01  0.23239667890E-01  0.00000000000E+00 0. -1.
     999901    1    3    3    0    0 -0.65309215074E-01 -0.76809067915E-01  0.83303985041E-01  0.88966537553E+00  0.88000000000E+00 0. -1.
        -11    1    4    4    0    0  0.87851174050E-02  0.24289165820E-01 -0.16791473572E-01  0.30811630430E-01  0.51100000000E-03 0.  1.
         11    1    4    4    0    0  0.36148980255E-01  0.51980609167E-01 -0.77677005059E-01  0.10021332615E+00  0.51100000000E-03 0. -1.
</event>
<event>
 8    1  0.1063984E+005  0.1043930E+01  0.7957747E-01            NaN
         13   -1    0    0    0    0  0.00000000000E+00  0.00000000000E+00  0.74505805969E-08  0.10566000000E+00  0.10566000000E+00 0. -1.
     999900   -1    0    0    0    0 -0.00000000000E+00 -0.00000000000E+00 -0.74505805969E-08  0.93827000000E+00  0.93827000000E+00 0. -1.
     999902    2    1    2    0    0 -0.21694193121E-01  0.89735841533E-02 -0.23080089205E-03  0.10204519997E+01  0.10201818795E+01 0.  0.
     999903    2    3    3    0    0  0.37882138866E-01 -0.20553316757E-01 -0.12026692372E+00  0.12981747985E+00  0.23042349234E-01 0.  0.
         14    1    1    2    0    0  0.21694193121E-01 -0.89735841533E-02  0.23080089205E-03  0.23478000272E-01  0.00000000000E+00 0. -1.
     999901    1    3    3    0    0 -0.59576331987E-01  0.29526900911E-01  0.12003612283E+00  0.89063451988E+00  0.88000000000E+00 0.  1.
        -11    1    4    4    0    0  0.24603581058E-01 -0.24023304740E-01 -0.95408138072E-01  0.10141710557E+00  0.51100000000E-03 0. -1.
         11    1    4    4    0    0  0.13278557808E-01  0.34699879827E-02 -0.24858785652E-01  0.28400374278E-01  0.51100000000E-03 0.  1.
</event>
<event>
 8    1  0.1063984E+005  0.1043930E+01  0.7957747E-01            NaN
         13   -1    0    0    0    0  0.00000000000E+00  0.00000000000E+00  0.74505805969E-08  0.10566000000E+00  0.10566000000E+00 0. -1.
     999900   -1    0    0    0    0 -0.00000000000E+00 -0.00000000000E+00 -0.74505805969E-08  0.93827000000E+00  0.93827000000E+00 0. -1.
     999902    2    1    2    0    0  0.12948591571E-01 -0.10831117757E-01  0.16237810901E-01  0.10205068141E+01  0.10202379683E+01 0.  0.
     999903    2    3    3    0    0 -0.10447146978E+00 -0.42797833835E-01 -0.59100878666E-01  0.12894343446E+00  0.19686362066E-01 0.  0.
         14    1    1    2    0    0 -0.12948591571E-01  0.10831117757E-01 -0.16237810901E-01  0.23423185915E-01  0.00000000000E+00 0.  1.
     999901    1    3    3    0    0  0.11742006135E+00  0.31966716077E-01  0.75338689567E-01  0.89156337963E+00  0.88000000000E+00 0.  1.
        -11    1    4    4    0    0 -0.29219487306E-01 -0.27784973129E-02 -0.14306146981E-01  0.32656170140E-01  0.51100000000E-03 0.  1.
         11    1    4    4    0    0 -0.75251982476E-01 -0.40019336522E-01 -0.44794731685E-01  0.96287264319E-01  0.51100000000E-03 0. -1.
</event>
<event>
 8    1  0.1063984E+005  0.1043930E+01  0.7957747E-01            NaN
         13   -1    0    0    0    0  0.00000000000E+00  0.00000000000E+00  0.74505805969E-08  0.10566000000E+00  0.10566000000E+00 0.  1.
     999900   -1    0    0    0    0 -0.00000000000E+00 -0.00000000000E+00 -0.74505805969E-08  0.93827000000E+00  0.93827000000E+00 0.  1.
     999902    2    1    2    0    0 -0.57627601271E-02  0.18905545636E-01  0.12466087070E-01  0.10205626641E+01  0.10202951137E+01 0.  0.
     999903    2    3    3    0    0 -0.50917774789E-01  0.10295772573E+00  0.65833789096E-01  0.13379783849E+00  0.19361320245E-01 0.  0.
         14    1    1    2    0    0  0.57627601271E-02 -0.18905545636E-01 -0.12466087070E-01  0.23367335896E-01  0.00000000000E+00 0. -1.
     999901    1    3    3    0    0  0.45155014662E-01 -0.84052180090E-01 -0.53367702026E-01  0.88676482561E+00  0.88000000000E+00 0.  1.
        -11    1    4    4    0    0 -0.45159714601E-01  0.72067764287E-01  0.47516902410E-01  0.97423198509E-01  0.51100000000E-03 0.  1.
         11    1    4    4    0    0 -0.57580601886E-02  0.30889961438E-01  0.18316886686E-01  0.36374639980E-01  0.51100000000E-03 0. -1.
</event>
<event>
 8    1  0.1063984E+005  0.1043930E+01  0.7957747E-01            NaN
         13   -1    0    0    0    0  0.00000000000E+00  0.00000000000E+00  0.74505805969E-08  0.10566000000E+00  0.10566000000E+00 0.  1.
     999900   -1    0    0    0    0 -0.00000000000E+00 -0.00000000000E+00 -0.74505805969E-08  0.93827000000E+00  0.93827000000E+00 0.  1.
     999902    2    1    2    0    0  0.46100124536E-03  0.59331654605E-02  0.23050626246E-01  0.10201235651E+01  0.10198457440E+01 0.  0.
     999903    2    3    3    0    0  0.11561519095E+00 -0.47705273891E-01  0.34149033124E-01  0.13093250335E+00  0.18289298327E-01 0.  0.
         14    1    1    2    0    0 -0.46100124536E-03 -0.59331654605E-02 -0.23050626246E-01  0.23806434946E-01  0.00000000000E+00 0. -1.
     999901    1    3    3    0    0 -0.11515418971E+00  0.53638439352E-01 -0.11098406879E-01  0.88919106171E+00  0.88000000000E+00 0.  1.
        -11    1    4    4    0    0  0.28894224900E-01 -0.20605847733E-01  0.79422826304E-02  0.36370567328E-01  0.51100000000E-03 0.  1.
         11    1    4    4    0    0  0.86720966053E-01 -0.27099426158E-01  0.26206750494E-01  0.94561936019E-01  0.51100000000E-03 0. -1.
</event>
<event>
 8    1  0.1063984E+005  0.1043930E+01  0.7957747E-01            NaN
         13   -1    0    0    0    0  0.00000000000E+00  0.00000000000E+00  0.74505805969E-08  0.10566000000E+00  0.10566000000E+00 0. -1.
     999900   -1    0    0    0    0 -0.00000000000E+00 -0.00000000000E+00 -0.74505805969E-08  0.93827000000E+00  0.93827000000E+00 0. -1.
     999902    2    1    2    0    0 -0.19779258417E-01  0.17279000136E-01 -0.30345217884E-02  0.10174915577E+01  0.10171480122E+01 0.  0.
     999903    2    3    3    0    0 -0.44869741244E-01 -0.28677622858E-01 -0.11549548628E+00  0.12879081388E+00  0.20301887990E-01 0.  0.
         14    1    1    2    0    0  0.19779258417E-01 -0.17279000136E-01  0.30345217884E-02  0.26438442308E-01  0.00000000000E+00 0. -1.
     999901    1    3    3    0    0  0.25090482827E-01  0.45956622994E-01  0.11246096449E+00  0.88870074382E+00  0.88000000000E+00 0.  1.
        -11    1    4    4    0    0 -0.61835670102E-02 -0.91020062335E-02 -0.10602303125E-01  0.15288982013E-01  0.51100000000E-03 0. -1.
         11    1    4    4    0    0 -0.38686174233E-01 -0.19575616625E-01 -0.10489318315E+00  0.11350183186E+00  0.51100000000E-03 0.  1.
</event>
<event>
 8    1  0.1088341E+005  0.1043930E+01  0.7957747E-01            NaN
         13   -1    0    0    0    0  0.00000000000E+00  0.00000000000E+00  0.74505805969E-08  0.10566000000E+00  0.10566000000E+00 0. -1.
     999900   -1    0    0    0    0 -0.00000000000E+00 -0.00000000000E+00 -0.74505805969E-08  0.93827000000E+00  0.93827000000E+00 0.  1.
     999902    2    1    2    0    0 -0.20226289415E-01 -0.12201122778E-01  0.36232228978E-02  0.10200323448E+01  0.10197523653E+01 0.  0.
     999903    2    3    3    0    0  0.77754644062E-01 -0.52268434599E-01  0.87404300360E-01  0.12973749377E+00  0.20360050109E-01 0.  0.
         14    1    1    2    0    0  0.20226289415E-01  0.12201122778E-01 -0.36232228978E-02  0.23897655213E-01  0.00000000000E+00 0.  1.
     999901    1    3    3    0    0 -0.97980933476E-01  0.40067311822E-01 -0.83781077462E-01  0.89029485101E+00  0.88000000000E+00 0.  1.
        -11    1    4    4    0    0  0.54364528522E-01 -0.24814343649E-01  0.56395898706E-01  0.82170628110E-01  0.51100000000E-03 0.  1.
         11    1    4    4    0    0  0.23390115540E-01 -0.27454090950E-01  0.31008401654E-01  0.47566865663E-01  0.51100000000E-03 0. -1.
</event>
<event>
 8    1  0.1063984E+005  0.1043930E+01  0.7957747E-01            NaN
         13   -1    0    0    0    0  0.00000000000E+00  0.00000000000E+00  0.74505805969E-08  0.10566000000E+00  0.10566000000E+00 0. -1.
     999900   -1    0    0    0    0 -0.00000000000E+00 -0.00000000000E+00 -0.74505805969E-08  0.93827000000E+00  0.93827000000E+00 0. -1.
     999902    2    1    2    0    0  0.10993615832E-01  0.11492668847E-01  0.17219554703E-01  0.10204895629E+01  0.10202203164E+01 0.  0.
     999903    2    3    3    0    0  0.11977706841E+00  0.52501513424E-01  0.10373231468E-01  0.13281707995E+00  0.20732046819E-01 0.  0.
         14    1    1    2    0    0 -0.10993615832E-01 -0.11492668847E-01 -0.17219554703E-01  0.23440437079E-01  0.00000000000E+00 0.  1.
     999901    1    3    3    0    0 -0.10878345258E+00 -0.41008844577E-01  0.68463232355E-02  0.88767248297E+00  0.88000000000E+00 0.  1.
        -11    1    4    4    0    0  0.12374010134E-01  0.61987516465E-02 -0.52651039457E-02  0.14816311596E-01  0.51100000000E-03 0.  1.
         11    1    4    4    0    0  0.10740305828E+00  0.46302761778E-01  0.15638335414E-01  0.11800076835E+00  0.51100000000E-03 0. -1.
</event>
<event>
 8    1  0.1063984E+005  0.1043930E+01  0.7957747E-01            NaN
         13   -1    0    0    0    0  0.00000000000E+00  0.00000000000E+00  0.74505805969E-08  0.10566000000E+00  0.10566000000E+00 0.  1.
     999900   -1    0    0    0    0 -0.00000000000E+00 -0.00000000000E+00 -0.74505805969E-08  0.93827000000E+00  0.93827000000E+00 0.  1.
     999902    2    1    2    0    0  0.23832357558E-01  0.63446178244E-02  0.12024210093E-01  0.10164924879E+01  0.10161221191E+01 0.  0.
     999903    2    3    3    0    0  0.47517034475E-01 -0.73859184564E-01  0.92267883592E-01  0.12889310700E+00  0.19672899600E-01 0.  0.
         14    1    1    2    0    0 -0.23832357558E-01 -0.63446178244E-02 -0.12024210093E-01  0.27437512104E-01  0.00000000000E+00 0.  1.
     999901    1    3    3    0    0 -0.23684676917E-01  0.80203802389E-01 -0.80243673499E-01  0.88759938090E+00  0.88000000000E+00 0.  1.
        -11    1    4    4    0    0  0.11206155703E-01 -0.33297944768E-01  0.30200103139E-01  0.46331829253E-01  0.51100000000E-03 0. -1.
         11    1    4    4    0    0  0.36310878772E-01 -0.40561239797E-01  0.62067780453E-01  0.82561277742E-01  0.51100000000E-03 0.  1.
</event>
<event>
 8    1  0.1315471E+005  0.1043930E+01  0.7957747E-01            NaN
         13   -1    0    0    0    0  0.00000000000E+00  0.00000000000E+00  0.74505805969E-08  0.10566000000E+00  0.10566000000E+00 0. -1.
     999900   -1    0    0    0    0 -0.00000000000E+00 -0.00000000000E+00 -0.74505805969E-08  0.93827000000E+00  0.93827000000E+00 0. -1.
     999902    2    1    2    0    0  0.22988891503E-01 -0.12720177604E-02  0.24406295502E-02  0.10207769476E+01  0.10205143375E+01 0.  0.
     999903    2    3    3    0    0 -0.67802006937E-01 -0.26145708655E-01  0.10556710525E+00  0.12976810495E+00  0.20362640435E-01 0.  0.
         14    1    1    2    0    0 -0.22988891503E-01  0.12720177604E-02 -0.24406295502E-02  0.23153052376E-01  0.00000000000E+00 0.  1.
     999901    1    3    3    0    0  0.90790898440E-01  0.24873690895E-01 -0.10312647570E+00  0.89100884268E+00  0.88000000000E+00 0. -1.
        -11    1    4    4    0    0 -0.29827848525E-01 -0.22069210186E-01  0.47754101233E-01  0.60476986461E-01  0.51100000000E-03 0. -1.
         11    1    4    4    0    0 -0.37974158412E-01 -0.40764984696E-02  0.57813004015E-01  0.69291118486E-01  0.51100000000E-03 0.  1.
</event>
<event>
 8    1  0.1063984E+005  0.1043930E+01  0.7957747E-01            NaN
         13   -1    0    0    0    0  0.00000000000E+00  0.00000000000E+00  0.74505805969E-08  0.10566000000E+00  0.10566000000E+00 0. -1.
     999900   -1    0    0    0    0 -0.00000000000E+00 -0.00000000000E+00 -0.74505805969E-08  0.93827000000E+00  0.93827000000E+00 0. -1.
     999902    2    1    2    0    0  0.19905440025E-01  0.78714642153E-02 -0.14852135820E-01  0.10178767386E+01  0.10175432583E+01 0.  0.
     999903    2    3    3    0    0 -0.10041045843E+00 -0.39219771210E-01  0.60431695657E-01  0.12526195317E+00  0.20447896113E-01 0.  0.
         14    1    1    2    0    0 -0.19905440025E-01 -0.78714642153E-02  0.14852135820E-01  0.26053261406E-01  0.00000000000E+00 0. -1.
     999901    1    3    3    0    0  0.12031589846E+00  0.47091235425E-01 -0.75283831478E-01  0.89261478542E+00  0.88000000000E+00 0. -1.
        -11    1    4    4    0    0 -0.52673244489E-01 -0.12686838305E-01  0.22000407768E-01  0.58478249068E-01  0.51100000000E-03 0. -1.
         11    1    4    4    0    0 -0.47737213944E-01 -0.26532932905E-01  0.38431287889E-01  0.66783704102E-01  0.51100000000E-03 0.  1.
</event>
<event>
 8    1  0.1063984E+005  0.1043930E+01  0.7957747E-01            NaN
         13   -1    0    0    0    0  0.00000000000E+00  0.00000000000E+00  0.74505805969E-08  0.10566000000E+00  0.10566000000E+00 0. -1.
     999900   -1    0    0    0    0 -0.00000000000E+00 -0.00000000000E+00 -0.74505805969E-08  0.93827000000E+00  0.93827000000E+00 0.  1.
     999902    2    1    2    0    0 -0.10999205688E-01  0.19944267860E-01 -0.75759420326E-02  0.10199268493E+01  0.10196443628E+01 0.  0.
     999903    2    3    3    0    0 -0.95968685687E-01 -0.13540517750E-01  0.84809874460E-01  0.13038978852E+00  0.20382538868E-01 0.  0.
         14    1    1    2    0    0  0.10999205688E-01 -0.19944267860E-01  0.75759420326E-02  0.24003150708E-01  0.00000000000E+00 0.  1.
     999901    1    3    3    0    0  0.84969479999E-01  0.33484785610E-01 -0.92385816493E-01  0.88953706077E+00  0.88000000000E+00 0.  1.
        -11    1    4    4    0    0 -0.67744926526E-01 -0.64459162698E-02  0.47139244102E-01  0.82784626363E-01  0.51100000000E-03 0. -1.
         11    1    4    4    0    0 -0.28223759162E-01 -0.70946014801E-02  0.37670630358E-01  0.47605162157E-01  0.51100000000E-03 0.  1.
</event>
<event>
 8    1  0.1063984E+005  0.1043930E+01  0.7957747E-01            NaN
         13   -1    0    0    0    0  0.00000000000E+00  0.00000000000E+00  0.74505805969E-08  0.10566000000E+00  0.10566000000E+00 0.  1.
     999900   -1    0    0    0    0 -0.00000000000E+00 -0.00000000000E+00 -0.74505805969E-08  0.93827000000E+00  0.93827000000E+00 0.  1.
     999902    2    1    2    0    0  0.68300058384E-02 -0.20591319563E-01 -0.68152398167E-02  0.10211901910E+01  0.10209369751E+01 0.  0.
     999903    2    3    3    0    0 -0.77032501036E-01 -0.98918517911E-01 -0.39784127909E-01  0.13312768323E+00  0.20526173729E-01 0.  0.
         14    1    1    2    0    0 -0.68300058384E-02  0.20591319563E-01  0.68152398167E-02  0.22739809033E-01  0.00000000000E+00 0.  1.
     999901    1    3    3    0    0  0.83862506874E-01  0.78327198348E-01  0.32968888092E-01  0.88806250773E+00  0.88000000000E+00 0.  1.
        -11    1    4    4    0    0 -0.25101298842E-01 -0.19037846143E-01 -0.13587697412E-01  0.34313283598E-01  0.51100000000E-03 0. -1.
         11    1    4    4    0    0 -0.51931202194E-01 -0.79880671769E-01 -0.26196430497E-01  0.98814399636E-01  0.51100000000E-03 0.  1.
</event>
<event>
 8    1  0.1063984E+005  0.1043930E+01  0.7957747E-01            NaN
         13   -1    0    0    0    0  0.00000000000E+00  0.00000000000E+00  0.74505805969E-08  0.10566000000E+00  0.10566000000E+00 0. -1.
     999900   -1    0    0    0    0 -0.00000000000E+00 -0.00000000000E+00 -0.74505805969E-08  0.93827000000E+00  0.93827000000E+00 0. -1.
     999902    2    1    2    0    0 -0.19249034514E-01  0.12463769184E-01  0.52711378267E-02  0.10204001091E+01  0.10201287796E+01 0.  0.
     999903    2    3    3    0    0 -0.11047983946E+00 -0.53291567986E-01  0.45608939600E-01  0.13232693509E+00  0.19607555509E-01 0.  0.
         14    1    1    2    0    0  0.19249034514E-01 -0.12463769184E-01 -0.52711378267E-02  0.23529890905E-01  0.00000000000E+00 0.  1.
     999901    1    3    3    0    0  0.91230804947E-01  0.65755337171E-01 -0.40337801773E-01  0.88807317401E+00  0.88000000000E+00 0. -1.
        -11    1    4    4    0    0 -0.50758359087E-01 -0.13794104431E-01  0.20294389248E-01  0.56380951483E-01  0.51100000000E-03 0. -1.
         11    1    4    4    0    0 -0.59721480373E-01 -0.39497463556E-01  0.25314550352E-01  0.75945983606E-01  0.51100000000E-03 0.  1.
</event>
<event>
 8    1  0.1063984E+005  0.1043930E+01  0.7957747E-01            NaN
         13   -1    0    0    0    0  0.00000000000E+00  0.00000000000E+00  0.74505805969E-08  0.10566000000E+00  0.10566000000E+00 0. -1.
     999900   -1    0    0    0    0 -0.00000000000E+00 -0.00000000000E+00 -0.74505805969E-08  0.93827000000E+00  0.93827000000E+00 0. -1.
     999902    2    1    2    0    0  0.17637680455E-01 -0.19021454331E-02  0.16162649711E-01  0.10199313089E+01  0.10196489286E+01 0.  0.
     999903    2    3    3    0    0  0.59298219263E-02 -0.11380902893E+00 -0.58400482340E-01  0.12963928647E+00  0.20200752618E-01 0.  0.
         14    1    1    2    0    0 -0.17637680455E-01  0.19021454331E-02 -0.16162649711E-01  0.23998691105E-01  0.00000000000E+00 0.  1.
     999901    1    3    3    0    0  0.11707858529E-01  0.11190688350E+00  0.74563132050E-01  0.89029202242E+00  0.88000000000E+00 0.  1.
        -11    1    4    4    0    0  0.11050614549E-02 -0.93174204512E-01 -0.39389073947E-01  0.10116527969E+00  0.51100000000E-03 0.  1.
         11    1    4    4    0    0  0.48247604715E-02 -0.20634824416E-01 -0.19011408392E-01  0.28474006784E-01  0.51100000000E-03 0. -1.
</event>
<event>
 8    1  0.1063984E+005  0.1043930E+01  0.7957747E-01            NaN
         13   -1    0    0    0    0  0.00000000000E+00  0.00000000000E+00  0.74505805969E-08  0.10566000000E+00  0.10566000000E+00 0.  1.
     999900   -1    0    0    0    0 -0.00000000000E+00 -0.00000000000E+00 -0.74505805969E-08  0.93827000000E+00  0.93827000000E+00 0.  1.
     999902    2    1    2    0    0  0.84333550106E-02  0.16989327438E-01 -0.14316224824E-01  0.10201663089E+01  0.10198894963E+01 0.  0.
     999903    2    3    3    0    0 -0.57169605296E-01 -0.90203248595E-01  0.66172625394E-01  0.12760121220E+00  0.22321809448E-01 0.  0.
         14    1    1    2    0    0 -0.84333550106E-02 -0.16989327438E-01  0.14316224824E-01  0.23763691143E-01  0.00000000000E+00 0.  1.
     999901    1    3    3    0    0  0.65602960306E-01  0.10719257603E+00 -0.80488850218E-01  0.89256509666E+00  0.88000000000E+00 0. -1.
        -11    1    4    4    0    0 -0.13741873956E-01 -0.15258584229E-01  0.38684408464E-02  0.20901900585E-01  0.51100000000E-03 0. -1.
         11    1    4    4    0    0 -0.43427731340E-01 -0.74944664366E-01  0.62304184548E-01  0.10669931162E+00  0.51100000000E-03 0.  1.
</event>
<event>
 8    1  0.1063984E+005  0.1043930E+01  0.7957747E-01            NaN
         13   -1    0    0    0    0  0.00000000000E+00  0.00000000000E+00  0.74505805969E-08  0.10566000000E+00  0.10566000000E+00 0.  1.
     999900   -1    0    0    0    0 -0.00000000000E+00 -0.00000000000E+00 -0.74505805969E-08  0.93827000000E+00  0.93827000000E+00 0.  1.
     999902    2    1    2    0    0  0.29410763237E-02 -0.20250223913E-01  0.11124761833E-01  0.10206387608E+01  0.10203729701E+01 0.  0.
     999903    2    3    3    0    0 -0.11668191053E+00 -0.56058428766E-01  0.14499001170E-01  0.13181747840E+00  0.20209178554E-01 0.  0.
         14    1    1    2    0    0 -0.29410763237E-02  0.20250223913E-01 -0.11124761833E-01  0.23291239218E-01  0.00000000000E+00 0. -1.
     999901    1    3    3    0    0  0.11962298685E+00  0.35808204852E-01 -0.33742393373E-02  0.88882128238E+00  0.88000000000E+00 0.  1.
        -11    1    4    4    0    0 -0.40668243052E-01 -0.93477307060E-02  0.65682467649E-02  0.42245580229E-01  0.51100000000E-03 0.  1.
         11    1    4    4    0    0 -0.76013667475E-01 -0.46710698059E-01  0.79307544049E-02  0.89571898175E-01  0.51100000000E-03 0. -1.
</event>
<event>
 8    1  0.1063984E+005  0.1043930E+01  0.7957747E-01            NaN
         13   -1    0    0    0    0  0.00000000000E+00  0.00000000000E+00  0.74505805969E-08  0.10566000000E+00  0.10566000000E+00 0. -1.
     999900   -1    0    0    0    0 -0.00000000000E+00 -0.00000000000E+00 -0.74505805969E-08  0.93827000000E+00  0.93827000000E+00 0. -1.
     999902    2    1    2    0    0 -0.11435582475E-02 -0.22437256900E-01  0.84373401023E-02  0.10199315223E+01  0.10196491472E+01 0.  0.
     999903    2    3    3    0    0 -0.18307786239E-01 -0.75855987777E-02  0.12828648797E+00  0.13151776696E+00  0.21137258227E-01 0.  0.
         14    1    1    2    0    0  0.11435582475E-02  0.22437256900E-01 -0.84373401023E-02  0.23998477673E-01  0.00000000000E+00 0.  1.
     999901    1    3    3    0    0  0.17164227991E-01 -0.14851658122E-01 -0.11984914787E+00  0.88841375536E+00  0.88000000000E+00 0. -1.
        -11    1    4    4    0    0 -0.16191085324E-01 -0.39825778453E-02  0.42923942945E-01  0.46051473041E-01  0.51100000000E-03 0. -1.
         11    1    4    4    0    0 -0.21167009146E-02 -0.36030209325E-02  0.85362545027E-01  0.85466293924E-01  0.51100000000E-03 0.  1.
</event>
<event>
 8    1  0.1063984E+005  0.1043930E+01  0.7957747E-01            NaN
         13   -1    0    0    0    0  0.00000000000E+00  0.00000000000E+00  0.74505805969E-08  0.10566000000E+00  0.10566000000E+00 0.  1.
     999900   -1    0    0    0    0 -0.00000000000E+00 -0.00000000000E+00 -0.74505805969E-08  0.93827000000E+00  0.93827000000E+00 0.  1.
     999902    2    1    2    0    0 -0.78746972301E-02  0.22419607225E-01  0.10726448267E-02  0.10201434447E+01  0.10198660930E+01 0.  0.
     999903    2    3    3    0    0  0.10733037189E+00  0.72152813608E-01 -0.99547486346E-02  0.13117370218E+00  0.19534735228E-01 0.  0.
         14    1    1    2    0    0  0.78746972301E-02 -0.22419607225E-01 -0.10726448267E-02  0.23786555268E-01  0.00000000000E+00 0.  1.
     999901    1    3    3    0    0 -0.11520506912E+00 -0.49733206383E-01  0.11027393461E-01  0.88896974255E+00  0.88000000000E+00 0.  1.
        -11    1    4    4    0    0  0.52444584948E-01  0.30137683818E-01  0.41302777711E-02  0.60630312482E-01  0.51100000000E-03 0. -1.
         11    1    4    4    0    0  0.54885786946E-01  0.42015129790E-01 -0.14085026406E-01  0.70543389696E-01  0.51100000000E-03 0.  1.
</event>
<event>
 8    1  0.1063984E+005  0.1043930E+01  0.7957747E-01            NaN
         13   -1    0    0    0    0  0.00000000000E+00  0.00000000000E+00  0.74505805969E-08  0.10566000000E+00  0.10566000000E+00 0.  1.
     999900   -1    0    0    0    0 -0.00000000000E+00 -0.00000000000E+00 -0.74505805969E-08  0.93827000000E+00  0.93827000000E+00 0.  1.
     999902    2    1    2    0    0 -0.23052538706E-01 -0.36705846453E-02 -0.28203599717E-02  0.10204172978E+01  0.10201463692E+01 0.  0.
     999903    2    3    3    0    0 -0.91418307605E-01 -0.92038897764E-01  0.21382426858E-01  0.13302301568E+00  0.20234842609E-01 0.  0.
         14    1    1    2    0    0  0.23052538706E-01  0.36705846453E-02  0.28203599717E-02  0.23512702159E-01  0.00000000000E+00 0.  1.
     999901    1    3    3    0    0  0.68365768899E-01  0.88368313119E-01 -0.24202786830E-01  0.88739428216E+00  0.88000000000E+00 0.  1.
        -11    1    4    4    0    0 -0.37760039132E-01 -0.52352778021E-01  0.10482454448E-01  0.65397070990E-01  0.51100000000E-03 0. -1.
         11    1    4    4    0    0 -0.53658268474E-01 -0.39686119743E-01  0.10899972410E-01  0.67625944691E-01  0.51100000000E-03 0.  1.
</event>
<event>
 8    1  0.1063984E+005  0.1043930E+01  0.7957747E-01            NaN
         13   -1    0    0    0    0  0.00000000000E+00  0.00000000000E+00  0.74505805969E-08  0.10566000000E+00  0.10566000000E+00 0. -1.
     999900   -1    0    0    0    0 -0.00000000000E+00 -0.00000000000E+00 -0.74505805969E-08  0.93827000000E+00  0.93827000000E+00 0.  1.
     999902    2    1    2    0    0 -0.23273503416E-02  0.33015604957E-02 -0.23068103246E-01  0.10205108999E+01  0.10202421490E+01 0.  0.
     999903    2    3    3    0    0  0.99926222944E-01  0.81994590828E-01 -0.15958648479E-03  0.13080691183E+00  0.20051427849E-01 0.  0.
         14    1    1    2    0    0  0.23273503416E-02 -0.33015604957E-02  0.23068103246E-01  0.23419100082E-01  0.00000000000E+00 0. -1.
     999901    1    3    3    0    0 -0.10225357329E+00 -0.78693030332E-01 -0.22908516761E-01  0.88970398808E+00  0.88000000000E+00 0.  1.
        -11    1    4    4    0    0  0.86010552158E-01  0.60559974645E-01  0.13487551021E-02  0.10520173893E+00  0.51100000000E-03 0.  1.
         11    1    4    4    0    0  0.13915670785E-01  0.21434616183E-01 -0.15083415869E-02  0.25605172908E-01  0.51100000000E-03 0. -1.
</event>
<event>
 8    1  0.1063984E+005  0.1043930E+01  0.7957747E-01            NaN
         13   -1    0    0    0    0  0.00000000000E+00  0.00000000000E+00  0.74505805969E-08  0.10566000000E+00  0.10566000000E+00 0. -1.
     999900   -1    0    0    0    0 -0.00000000000E+00 -0.00000000000E+00 -0.74505805969E-08  0.93827000000E+00  0.93827000000E+00 0.  1.
     999902    2    1    2    0    0 -0.64218581957E-02  0.22714215412E-01 -0.16216619863E-02  0.10202697880E+01  0.10199954091E+01 0.  0.
     999903    2    3    3    0    0 -0.13614681715E-01 -0.97420784708E-02 -0.12801555784E+00  0.13061785346E+00  0.19818499998E-01 0.  0.
         14    1    1    2    0    0  0.64218581957E-02 -0.22714215412E-01  0.16216619863E-02  0.23660212003E-01  0.00000000000E+00 0.  1.
     999901    1    3    3    0    0  0.71928235195E-02  0.32456293882E-01  0.12639389585E+00  0.88965193454E+00  0.88000000000E+00 0. -1.
        -11    1    4    4    0    0  0.13544286491E-02  0.21779793560E-02 -0.57229330545E-01  0.57289051892E-01  0.51100000000E-03 0. -1.
         11    1    4    4    0    0 -0.14969110364E-01 -0.11920057827E-01 -0.70786227292E-01  0.73328801564E-01  0.51100000000E-03 0.  1.
</event>
<event>
 8    1  0.1063984E+005  0.1043930E+01  0.7957747E-01            NaN
         13   -1    0    0    0    0  0.00000000000E+00  0.00000000000E+00  0.74505805969E-08  0.10566000000E+00  0.10566000000E+00 0. -1.
     999900   -1    0    0    0    0 -0.00000000000E+00 -0.00000000000E+00 -0.74505805969E-08  0.93827000000E+00  0.93827000000E+00 0. -1.
     999902    2    1    2    0    0  0.11101490954E-01 -0.16141585151E-03 -0.19623554979E-01  0.10213833136E+01  0.10211344281E+01 0.  0.
     999903    2    3    3    0    0 -0.24328227441E-01 -0.94728509305E-01 -0.87768066507E-01  0.13299045314E+00  0.20441966694E-01 0.  0.
         14    1    1    2    0    0 -0.11101490954E-01  0.16141585151E-03  0.19623554979E-01  0.22546686375E-01  0.00000000000E+00 0. -1.
     999901    1    3    3    0    0  0.35429718396E-01  0.94567093454E-01  0.68144511528E-01  0.88839286049E+00  0.88000000000E+00 0.  1.
        -11    1    4    4    0    0 -0.13614807583E-01 -0.79680581179E-01 -0.65422557931E-01  0.10399389506E+00  0.51100000000E-03 0.  1.
         11    1    4    4    0    0 -0.10713419858E-01 -0.15047928127E-01 -0.22345508576E-01  0.28996558080E-01  0.51100000000E-03 0. -1.
</event>
<event>
 8    1  0.1063984E+005  0.1043930E+01  0.7957747E-01            NaN
         13   -1    0    0    0    0  0.00000000000E+00  0.00000000000E+00  0.74505805969E-08  0.10566000000E+00  0.10566000000E+00 0.  1.
     999900   -1    0    0    0    0 -0.00000000000E+00 -0.00000000000E+00 -0.74505805969E-08  0.93827000000E+00  0.93827000000E+00 0. -1.
     999902    2    1    2    0    0 -0.17724404131E-01 -0.12191390484E-01 -0.91885904467E-02  0.10205373794E+01  0.10202692429E+01 0.  0.
     999903    2    3    3    0    0 -0.85245962868E-01  0.11057574157E-01  0.97241493383E-01  0.13125281416E+00  0.19551190682E-01 0.  0.
         14    1    1    2    0    0  0.17724404131E-01  0.12191390484E-01  0.91885904467E-02  0.23392620591E-01  0.00000000000E+00 0. -1.
     999901    1    3    3    0    0  0.67521558738E-01 -0.23248964641E-01 -0.10643008383E+00  0.88928456525E+00  0.88000000000E+00 0. -1.
        -11    1    4    4    0    0 -0.12981374851E-01  0.88565783579E-02  0.20221849523E-01  0.25615217984E-01  0.51100000000E-03 0.  1.
         11    1    4    4    0    0 -0.72264588017E-01  0.22009957994E-02  0.77019643860E-01  0.10563759617E+00  0.51100000000E-03 0. -1.
</event>
<event>
 8    1  0.1063984E+005  0.1043930E+01  0.7957747E-01            NaN
         13   -1    0    0    0    0  0.00000000000E+00  0.00000000000E+00  0.74505805969E-08  0.10566000000E+00  0.10566000000E+00 0.  1.
     999900   -1    0    0    0    0 -0.00000000000E+00 -0.00000000000E+00 -0.74505805969E-08  0.93827000000E+00  0.93827000000E+00 0.  1.
     999902    2    1    2    0    0 -0.15669889222E-01  0.61313870337E-02  0.17505017257E-01  0.10196490411E+01  0.10193598982E+01 0.  0.
     999903    2    3    3    0    0  0.35208848925E-01 -0.18300664698E-01 -0.11931616852E+00  0.12728946783E+00  0.19790987353E-01 0.  0.
         14    1    1    2    0    0  0.15669889222E-01 -0.61313870337E-02 -0.17505017257E-01  0.24280958885E-01  0.00000000000E+00 0. -1.
     999901    1    3    3    0    0 -0.50878738147E-01  0.24432051732E-01  0.13682118578E+00  0.89235957328E+00  0.88000000000E+00 0. -1.
        -11    1    4    4    0    0  0.28033845491E-02  0.15536377339E-02 -0.16575987791E-02  0.36443805854E-02  0.51100000000E-03 0. -1.
         11    1    4    4    0    0  0.32405464376E-01 -0.19854302432E-01 -0.11765856974E+00  0.12364508725E+00  0.51100000000E-03 0.  1.
</event>
<event>
 8    1  0.1063984E+005  0.1043930E+01  0.7957747E-01            NaN
         13   -1    0    0    0    0  0.00000000000E+00  0.00000000000E+00  0.74505805969E-08  0.10566000000E+00  0.10566000000E+00 0. -1.
     999900   -1    0    0    0    0 -0.00000000000E+00 -0.00000000000E+00 -0.74505805969E-08  0.93827000000E+00  0.93827000000E+00 0.  1.
     999902    2    1    2    0    0 -0.16610941291E-01  0.17385213685E-01  0.65868125012E-02  0.10189989927E+01  0.10186939639E+01 0.  0.
     999903    2    3    3    0    0  0.95120094808E-01  0.81542128612E-01  0.24848253597E-01  0.12942976303E+00  0.20920723626E-01 0.  0.
         14    1    1    2    0    0  0.16610941291E-01 -0.17385213685E-01 -0.65868125012E-02  0.24931007288E-01  0.00000000000E+00 0. -1.
     999901    1    3    3    0    0 -0.11173103610E+00 -0.64156914927E-01 -0.18261441096E-01  0.88956922968E+00  0.88000000000E+00 0.  1.
        -11    1    4    4    0    0  0.44527802078E-01  0.41630910669E-01  0.22387827493E-01  0.64941002624E-01  0.51100000000E-03 0. -1.
         11    1    4    4    0    0  0.50592292730E-01  0.39911217943E-01  0.24604261039E-02  0.64488760409E-01  0.51100000000E-03 0.  1.
</event>
<event>
 8    1  0.1063984E+005  0.1043930E+01  0.7957747E-01            NaN
         13   -1    0    0    0    0  0.00000000000E+00  0.00000000000E+00  0.74505805969E-08  0.10566000000E+00  0.10566000000E+00 0.  1.
     999900   -1    0    0    0    0 -0.00000000000E+00 -0.00000000000E+00 -0.74505805969E-08  0.93827000000E+00  0.93827000000E+00 0. -1.
     999902    2    1    2    0    0  0.22673339675E-01  0.81250882486E-02 -0.56199402466E-04  0.10198447234E+01  0.10195602774E+01 0.  0.
     999903    2    3    3    0    0  0.76022256191E-02 -0.79323944509E-01  0.10006078706E+00  0.12973356023E+00  0.21646097445E-01 0.  0.
         14    1    1    2    0    0 -0.22673339675E-01 -0.81250882486E-02  0.56199402466E-04  0.24085276611E-01  0.00000000000E+00 0. -1.
     999901    1    3    3    0    0  0.15071114056E-01  0.87449032757E-01 -0.10011698646E+00  0.89011116316E+00  0.88000000000E+00 0. -1.
        -11    1    4    4    0    0  0.68532205467E-02 -0.47779455025E-01  0.43573258311E-01  0.65028708392E-01  0.51100000000E-03 0.  1.
         11    1    4    4    0    0  0.74900507239E-03 -0.31544489484E-01  0.56487528751E-01  0.64704851833E-01  0.51100000000E-03 0. -1.
</event>
<event>
 8    1  0.1063984E+005  0.1043930E+01  0.7957747E-01            NaN
         13   -1    0    0    0    0  0.00000000000E+00  0.00000000000E+00  0.74505805969E-08  0.10566000000E+00  0.10566000000E+00 0.  1.
     999900   -1    0    0    0    0 -0.00000000000E+00 -0.00000000000E+00 -0.74505805969E-08  0.93827000000E+00  0.93827000000E+00 0.  1.
     999902    2    1    2    0    0 -0.14380204134E-01  0.17626480187E-01 -0.65798394811E-02  0.10202492618E+01  0.10199744011E+01 0.  0.
     999903    2    3    3    0    0 -0.54134470360E-01 -0.35951005687E-01  0.11114899383E+00  0.12990605444E+00  0.17276239725E-01 0.  0.
         14    1    1    2    0    0  0.14380204134E-01 -0.17626480187E-01  0.65798394811E-02  0.23680738213E-01  0.00000000000E+00 0. -1.
     999901    1    3    3    0    0  0.39754266226E-01  0.53577485874E-01 -0.11772883331E+00  0.89034320735E+00  0.88000000000E+00 0.  1.
        -11    1    4    4    0    0 -0.47001977477E-01 -0.22995946093E-01  0.89704675537E-01  0.10385176627E+00  0.51100000000E-03 0.  1.
         11    1    4    4    0    0 -0.71324928831E-02 -0.12955059594E-01  0.21444318296E-01  0.26054288168E-01  0.51100000000E-03 0. -1.
</event>
<event>
 8    1  0.1063984E+005  0.1043930E+01  0.7957747E-01            NaN
         13   -1    0    0    0    0  0.00000000000E+00  0.00000000000E+00  0.74505805969E-08  0.10566000000E+00  0.10566000000E+00 0. -1.
     999900   -1    0    0    0    0 -0.00000000000E+00 -0.00000000000E+00 -0.74505805969E-08  0.93827000000E+00  0.93827000000E+00 0.  1.
     999902    2    1    2    0    0 -0.16853164878E-01 -0.15684584779E-03 -0.17136843362E-01  0.10198940859E+01  0.10196108185E+01 0.  0.
     999903    2    3    3    0    0  0.53037819193E-01 -0.97780738108E-01 -0.65406794411E-01  0.13043067339E+00  0.18974424768E-01 0.  0.
         14    1    1    2    0    0  0.16853164878E-01  0.15684584779E-03  0.17136843362E-01  0.24035914117E-01  0.00000000000E+00 0. -1.
     999901    1    3    3    0    0 -0.69890984071E-01  0.97623892261E-01  0.48269951050E-01  0.88946341250E+00  0.88000000000E+00 0. -1.
        -11    1    4    4    0    0  0.25882851158E-01 -0.54921312153E-01 -0.45717485182E-01  0.76004092555E-01  0.51100000000E-03 0.  1.
         11    1    4    4    0    0  0.27154968035E-01 -0.42859425955E-01 -0.19689309229E-01  0.54426580833E-01  0.51100000000E-03 0. -1.
</event>
<event>
 8    1  0.1063984E+005  0.1043930E+01  0.7957747E-01            NaN
         13   -1    0    0    0    0  0.00000000000E+00  0.00000000000E+00  0.74505805969E-08  0.10566000000E+00  0.10566000000E+00 0. -1.
     999900   -1    0    0    0    0 -0.00000000000E+00 -0.00000000000E+00 -0.74505805969E-08  0.93827000000E+00  0.93827000000E+00 0. -1.
     999902    2    1    2    0    0 -0.21588071294E-01 -0.61186232701E-02  0.64006032831E-02  0.10205965456E+01  0.10203297794E+01 0.  0.
     999903    2    3    3    0    0  0.28778335696E-01 -0.12258355939E+00  0.31015994122E-01  0.13115471287E+00  0.19612373137E-01 0.  0.
         14    1    1    2    0    0  0.21588071294E-01  0.61186232701E-02 -0.64006032831E-02  0.23333454423E-01  0.00000000000E+00 0. -1.
     999901    1    3    3    0    0 -0.50366406989E-01  0.11646493612E+00 -0.24615390838E-01  0.88944183270E+00  0.88000000000E+00 0. -1.
        -11    1    4    4    0    0  0.92473563785E-02 -0.62021830874E-01  0.23954063248E-01  0.67128826684E-01  0.51100000000E-03 0.  1.
         11    1    4    4    0    0  0.19530979317E-01 -0.60561728514E-01  0.70619308738E-02  0.64025886189E-01  0.51100000000E-03 0. -1.
</event>
<event>
 8    1  0.1063984E+005  0.1043930E+01  0.7957747E-01            NaN
         13   -1    0    0    0    0  0.00000000000E+00  0.00000000000E+00  0.74505805969E-08  0.10566000000E+00  0.10566000000E+00 0. -1.
     999900   -1    0    0    0    0 -0.00000000000E+00 -0.00000000000E+00 -0.74505805969E-08  0.93827000000E+00  0.93827000000E+00 0. -1.
     999902    2    1    2    0    0  0.17844008052E-01  0.14527961621E-01 -0.85385801873E-02  0.10193866171E+01  0.10190911134E+01 0.  0.
     999903    2    3    3    0    0  0.42212355344E-01  0.11965508988E+00 -0.32810734103E-01  0.13246234362E+00  0.19248499374E-01 0.  0.
         14    1    1    2    0    0 -0.17844008052E-01 -0.14527961621E-01  0.85385801873E-02  0.24543382893E-01  0.00000000000E+00 0.  1.
     999901    1    3    3    0    0 -0.24368347292E-01 -0.10512712825E+00  0.24272153916E-01  0.88692427349E+00  0.88000000000E+00 0.  1.
        -11    1    4    4    0    0  0.37914553685E-01  0.81342538366E-01 -0.21591681669E-01  0.92307008223E-01  0.51100000000E-03 0. -1.
         11    1    4    4    0    0  0.42978016595E-02  0.38312551510E-01 -0.11219052434E-01  0.40155335397E-01  0.51100000000E-03 0.  1.
</event>
<event>
 8    1  0.1063984E+005  0.1043930E+01  0.7957747E-01            NaN
         13   -1    0    0    0    0  0.00000000000E+00  0.00000000000E+00  0.74505805969E-08  0.10566000000E+00  0.10566000000E+00 0.  1.
     999900   -1    0    0    0    0 -0.00000000000E+00 -0.00000000000E+00 -0.74505805969E-08  0.93827000000E+00  0.93827000000E+00 0. -1.
     999902    2    1    2    0    0  0.18383679844E-01 -0.34127415759E-02 -0.12893559232E-01  0.10212176606E+01  0.10209650631E+01 0.  0.
     999903    2    3    3    0    0  0.15738187071E-01  0.10175961895E+00 -0.80935270764E-01  0.13234314837E+00  0.19012634871E-01 0.  0.
         14    1    1    2    0    0 -0.18383679844E-01  0.34127415759E-02  0.12893559232E-01  0.22712339363E-01  0.00000000000E+00 0.  1.
     999901    1    3    3    0    0  0.26454927724E-02 -0.10517236053E+00  0.68041711532E-01  0.88887451227E+00  0.88000000000E+00 0.  1.
        -11    1    4    4    0    0 -0.13956321413E-02  0.11994379053E-01 -0.16803426250E-01  0.20698530689E-01  0.51100000000E-03 0. -1.
         11    1    4    4    0    0  0.17133819212E-01  0.89765239901E-01 -0.64131844514E-01  0.11164461768E+00  0.51100000000E-03 0.  1.
</event>
<event>
 8    1  0.1063984E+005  0.1043930E+01  0.7957747E-01            NaN
         13   -1    0    0    0    0  0.00000000000E+00  0.00000000000E+00  0.74505805969E-08  0.10566000000E+00  0.10566000000E+00 0.  1.
     999900   -1    0    0    0    0 -0.00000000000E+00 -0.00000000000E+00 -0.74505805969E-08  0.93827000000E+00  0.93827000000E+00 0. -1.
     999902    2    1    2    0    0 -0.22469238017E-01  0.88401535182E-03  0.77048717655E-02  0.10201599939E+01  0.10198830325E+01 0.  0.
     999903    2    3    3    0    0 -0.24793238000E-01  0.29454758534E-02 -0.12611259235E+00  0.13003822455E+00  0.19549256173E-01 0.  0.
         14    1    1    2    0    0  0.22469238017E-01 -0.88401535182E-03 -0.77048717655E-02  0.23770006082E-01  0.00000000000E+00 0. -1.
     999901    1    3    3    0    0  0.23239999827E-02 -0.20614605016E-02  0.13381746412E+00  0.89012176937E+00  0.88000000000E+00 0.  1.
        -11    1    4    4    0    0 -0.24679008024E-01  0.95351214663E-03 -0.76639426229E-01  0.80522204367E-01  0.51100000000E-03 0.  1.
         11    1    4    4    0    0 -0.11422997557E-03  0.19919637068E-02 -0.49473166122E-01  0.49516020186E-01  0.51100000000E-03 0. -1.
</event>
<event>
 8    1  0.1063984E+005  0.1043930E+01  0.7957747E-01            NaN
         13   -1    0    0    0    0  0.00000000000E+00  0.00000000000E+00  0.74505805969E-08  0.10566000000E+00  0.10566000000E+00 0.  1.
     999900   -1    0    0    0    0 -0.00000000000E+00 -0.00000000000E+00 -0.74505805969E-08  0.93827000000E+00  0.93827000000E+00 0. -1.
     999902    2    1    2    0    0 -0.18516566898E-01 -0.70124329636E-02  0.12749480300E-01  0.10203803352E+01  0.10201085441E+01 0.  0.
     999903    2    3    3    0    0 -0.97999214737E-02  0.11299962298E+00 -0.58849535467E-01  0.12931058900E+00  0.19824412924E-01 0.  0.
         14    1    1    2    0    0  0.18516566898E-01  0.70124329636E-02 -0.12749480300E-01  0.23549664831E-01  0.00000000000E+00 0. -1.
     999901    1    3    3    0    0 -0.87166454243E-02 -0.12001205595E+00  0.71599015767E-01  0.89106974617E+00  0.88000000000E+00 0.  1.
        -11    1    4    4    0    0  0.26733970660E-02  0.71415670852E-01 -0.40774852554E-01  0.82281193579E-01  0.51100000000E-03 0.  1.
         11    1    4    4    0    0 -0.12473318540E-01  0.41583952130E-01 -0.18074682913E-01  0.47029395420E-01  0.51100000000E-03 0. -1.
</event>
<event>
 8    1  0.1063984E+005  0.1043930E+01  0.7957747E-01            NaN
         13   -1    0    0    0    0  0.00000000000E+00  0.00000000000E+00  0.74505805969E-08  0.10566000000E+00  0.10566000000E+00 0.  1.
     999900   -1    0    0    0    0 -0.00000000000E+00 -0.00000000000E+00 -0.74505805969E-08  0.93827000000E+00  0.93827000000E+00 0. -1.
     999902    2    1    2    0    0 -0.39849099240E-02 -0.96010871944E-02 -0.21113529953E-01  0.10203961620E+01  0.10201247404E+01 0.  0.
     999903    2    3    3    0    0  0.10612070642E+00  0.40623415143E-01  0.57126314725E-01  0.12867466926E+00  0.19541967268E-01 0.  0.
         14    1    1    2    0    0  0.39849099240E-02  0.96010871944E-02  0.21113529953E-01  0.23533837968E-01  0.00000000000E+00 0.  1.
     999901    1    3    3    0    0 -0.11010561635E+00 -0.50224502337E-01 -0.78239844677E-01  0.89172149278E+00  0.88000000000E+00 0.  1.
        -11    1    4    4    0    0  0.57916981404E-01  0.17940982398E-01  0.20431203201E-01  0.63983988385E-01  0.51100000000E-03 0.  1.
         11    1    4    4    0    0  0.48203725017E-01  0.22682432745E-01  0.36695111524E-01  0.64690680870E-01  0.51100000000E-03 0. -1.
</event>
<event>
 8    1  0.1063984E+005  0.1043930E+01  0.7957747E-01            NaN
         13   -1    0    0    0    0  0.00000000000E+00  0.00000000000E+00  0.74505805969E-08  0.10566000000E+00  0.10566000000E+00 0.  1.
     999900   -1    0    0    0    0 -0.00000000000E+00 -0.00000000000E+00 -0.74505805969E-08  0.93827000000E+00  0.93827000000E+00 0.  1.
     999902    2    1    2    0    0 -0.16367999523E-01 -0.10300337901E-01 -0.13891062574E-01  0.10201188684E+01  0.10198409364E+01 0.  0.
     999903    2    3    3    0    0  0.65425944369E-01  0.35398402559E-02  0.10789404988E+00  0.12786699061E+00  0.20390110898E-01 0.  0.
         14    1    1    2    0    0  0.16367999523E-01  0.10300337901E-01  0.13891062574E-01  0.23811131613E-01  0.00000000000E+00 0.  1.
     999901    1    3    3    0    0 -0.81793943892E-01 -0.13840178157E-01 -0.12178511245E+00  0.89225187778E+00  0.88000000000E+00 0.  1.
        -11    1    4    4    0    0  0.52286763143E-01  0.39447402373E-02  0.98866453495E-01  0.11191203386E+00  0.51100000000E-03 0.  1.
         11    1    4    4    0    0  0.13139181226E-01 -0.40489998136E-03  0.90275963806E-02  0.15954956744E-01  0.51100000000E-03 0. -1.
</event>
<event>
 8    1  0.1063984E+005  0.1043930E+01  0.7957747E-01            NaN
         13   -1    0    0    0    0  0.00000000000E+00  0.00000000000E+00  0.74505805969E-08  0.10566000000E+00  0.10566000000E+00 0. -1.
     999900   -1    0    0    0    0 -0.00000000000E+00 -0.00000000000E+00 -0.74505805969E-08  0.93827000000E+00  0.93827000000E+00 0. -1.
     999902    2    1    2    0    0 -0.19359892272E-01  0.11609448197E-01  0.71210580457E-02  0.10202594659E+01  0.10199848448E+01 0.  0.
     999903    2    3    3    0    0 -0.73344062812E-01  0.68911213472E-01 -0.83290840168E-01  0.13213104372E+00  0.19827802862E-01 0.  0.
         14    1    1    2    0    0  0.19359892272E-01 -0.11609448197E-01 -0.71210580457E-02  0.23670534086E-01  0.00000000000E+00 0.  1.
     999901    1    3    3    0    0  0.53984170540E-01 -0.57301765275E-01  0.90411898214E-01  0.88812842220E+00  0.88000000000E+00 0. -1.
        -11    1    4    4    0    0 -0.36761445717E-01  0.34625249860E-01 -0.54543305707E-01  0.74334010638E-01  0.51100000000E-03 0. -1.
         11    1    4    4    0    0 -0.36582617095E-01  0.34285963613E-01 -0.28747534461E-01  0.57797033081E-01  0.51100000000E-03 0.  1.
</event>
<event>
 8    1  0.1063984E+005  0.1043930E+01  0.7957747E-01            NaN
         13   -1    0    0    0    0  0.00000000000E+00  0.00000000000E+00  0.74505805969E-08  0.10566000000E+00  0.10566000000E+00 0. -1.
     999900   -1    0    0    0    0 -0.00000000000E+00 -0.00000000000E+00 -0.74505805969E-08  0.93827000000E+00  0.93827000000E+00 0.  1.
     999902    2    1    2    0    0 -0.28234059494E-02 -0.45699224407E-02  0.24331035325E-01  0.10190130361E+01  0.10187083550E+01 0.  0.
     999903    2    3    3    0    0  0.52637372818E-01  0.49042294771E-01 -0.10235759616E+00  0.12660047610E+00  0.19358805857E-01 0.  0.
         14    1    1    2    0    0  0.28234059494E-02  0.45699224407E-02 -0.24331035325E-01  0.24916963946E-01  0.00000000000E+00 0.  1.
     999901    1    3    3    0    0 -0.55460778768E-01 -0.53612217212E-01  0.12668863148E+00  0.89241255995E+00  0.88000000000E+00 0. -1.
        -11    1    4    4    0    0  0.28759089360E-01  0.21616302699E-01 -0.66030917587E-01  0.75197692528E-01  0.51100000000E-03 0. -1.
         11    1    4    4    0    0  0.23878283459E-01  0.27425992072E-01 -0.36326678570E-01  0.51402783573E-01  0.51100000000E-03 0.  1.
</event>
<event>
 8    1  0.1063984E+005  0.1043930E+01  0.7957747E-01            NaN
         13   -1    0    0    0    0  0.00000000000E+00  0.00000000000E+00  0.74505805969E-08  0.10566000000E+00  0.10566000000E+00 0. -1.
     999900   -1    0    0    0    0 -0.00000000000E+00 -0.00000000000E+00 -0.74505805969E-08  0.93827000000E+00  0.93827000000E+00 0. -1.
     999902    2    1    2    0    0  0.69976982347E-02  0.18244731857E-01  0.12140429635E-01  0.10209250429E+01  0.10206658195E+01 0.  0.
     999903    2    3    3    0    0  0.97681439129E-01  0.81081432672E-01  0.36984245975E-01  0.13368820467E+00  0.19719009711E-01 0.  0.
         14    1    1    2    0    0 -0.69976982347E-02 -0.18244731857E-01 -0.12140429635E-01  0.23004957137E-01  0.00000000000E+00 0.  1.
     999901    1    3    3    0    0 -0.90683740894E-01 -0.62836700815E-01 -0.24843816339E-01  0.88723683819E+00  0.88000000000E+00 0. -1.
        -11    1    4    4    0    0  0.50726880121E-01  0.50103753046E-01  0.12735555241E-01  0.72429675716E-01  0.51100000000E-03 0.  1.
         11    1    4    4    0    0  0.46954559008E-01  0.30977679626E-01  0.24248690734E-01  0.61258528957E-01  0.51100000000E-03 0. -1.
</event>
<event>
 8    1  0.1063984E+005  0.1043930E+01  0.7957747E-01            NaN
         13   -1    0    0    0    0  0.00000000000E+00  0.00000000000E+00  0.74505805969E-08  0.10566000000E+00  0.10566000000E+00 0. -1.
     999900   -1    0    0    0    0 -0.00000000000E+00 -0.00000000000E+00 -0.74505805969E-08  0.93827000000E+00  0.93827000000E+00 0. -1.
     999902    2    1    2    0    0 -0.85936391554E-02  0.25339897399E-02  0.21602845807E-01  0.10205429377E+01  0.10202749301E+01 0.  0.
     999903    2    3    3    0    0 -0.53483806333E-01 -0.11790803849E+00  0.19220598281E-02  0.13098757535E+00  0.19779471733E-01 0.  0.
         14    1    1    2    0    0  0.85936391554E-02 -0.25339897399E-02 -0.21602845807E-01  0.23387062340E-01  0.00000000000E+00 0.  1.
     999901    1    3    3    0    0  0.44890167178E-01  0.12044202823E+00  0.19680785979E-01  0.88955536231E+00  0.88000000000E+00 0. -1.
        -11    1    4    4    0    0 -0.45740673971E-01 -0.10707559051E+00  0.71895530108E-02  0.11665908508E+00  0.51100000000E-03 0. -1.
         11    1    4    4    0    0 -0.77431323619E-02 -0.10832447982E-01 -0.52674931828E-02  0.14328490272E-01  0.51100000000E-03 0.  1.
</event>
<event>
 8    1  0.1063984E+005  0.1043930E+01  0.7957747E-01            NaN
         13   -1    0    0    0    0  0.00000000000E+00  0.00000000000E+00  0.74505805969E-08  0.10566000000E+00  0.10566000000E+00 0.  1.
     999900   -1    0    0    0    0 -0.00000000000E+00 -0.00000000000E+00 -0.74505805969E-08  0.93827000000E+00  0.93827000000E+00 0.  1.
     999902    2    1    2    0    0 -0.36308490703E-03 -0.18733614076E-01 -0.39989560790E-02  0.10247708827E+01  0.10245917676E+01 0.  0.
     999903    2    3    3    0    0  0.76543940537E-01 -0.11142454795E+00 -0.85793745930E-03  0.13656135459E+00  0.19335531821E-01 0.  0.
         14    1    1    2    0    0  0.36308490703E-03  0.18733614076E-01  0.39989560790E-02  0.19159117326E-01  0.00000000000E+00 0. -1.
     999901    1    3    3    0    0 -0.76907025444E-01  0.92690933876E-01 -0.31410186198E-02  0.88820952809E+00  0.88000000000E+00 0.  1.
        -11    1    4    4    0    0  0.61499160917E-01 -0.10094665777E+00 -0.13534286275E-02  0.11821365149E+00  0.51100000000E-03 0. -1.
         11    1    4    4    0    0  0.15044779620E-01 -0.10477890183E-01  0.49549116817E-03  0.18347703099E-01  0.51100000000E-03 0.  1.
</event>
<event>
 8    1  0.1063984E+005  0.1043930E+01  0.7957747E-01            NaN
         13   -1    0    0    0    0  0.00000000000E+00  0.00000000000E+00  0.74505805969E-08  0.10566000000E+00  0.10566000000E+00 0.  1.
     999900   -1    0    0    0    0 -0.00000000000E+00 -0.00000000000E+00 -0.74505805969E-08  0.93827000000E+00  0.93827000000E+00 0.  1.
     999902    2    1    2    0    0  0.17223601812E-01 -0.86148766928E-02 -0.14219118833E-01  0.10199914975E+01  0.10197105487E+01 0.  0.
     999903    2    3    3    0    0 -0.10507188348E+00  0.50754019161E-01 -0.50882214690E-01  0.12879845778E+00  0.19595198245E-01 0.  0.
         14    1    1    2    0    0 -0.17223601812E-01  0.86148766928E-02  0.14219118833E-01  0.23938502463E-01  0.00000000000E+00 0.  1.
     999901    1    3    3    0    0  0.12229548530E+00 -0.59368895853E-01  0.36663095857E-01  0.89119303976E+00  0.88000000000E+00 0.  1.
        -11    1    4    4    0    0 -0.24708455120E-01  0.56448576061E-02 -0.17390968220E-01  0.30742138319E-01  0.51100000000E-03 0. -1.
         11    1    4    4    0    0 -0.80363428364E-01  0.45109161555E-01 -0.33491246470E-01  0.98056319458E-01  0.51100000000E-03 0.  1.
</event>
<event>
 8    1  0.1261808E+005  0.1043930E+01  0.7957747E-01            NaN
         13   -1    0    0    0    0  0.00000000000E+00  0.00000000000E+00  0.74505805969E-08  0.10566000000E+00  0.10566000000E+00 0. -1.
     999900   -1    0    0    0    0 -0.00000000000E+00 -0.00000000000E+00 -0.74505805969E-08  0.93827000000E+00  0.93827000000E+00 0.  1.
     999902    2    1    2    0    0 -0.48640704783E-02 -0.54874774833E-03 -0.24087406853E-01  0.10193502629E+01  0.10190538725E+01 0.  0.
     999903    2    3    3    0    0 -0.14241411395E-01  0.54997861121E-01 -0.11808714362E+00  0.13255304214E+00  0.19953770704E-01 0.  0.
         14    1    1    2    0    0  0.48640704783E-02  0.54874774833E-03  0.24087406853E-01  0.24579737073E-01  0.00000000000E+00 0. -1.
     999901    1    3    3    0    0  0.93773409170E-02 -0.55546608869E-01  0.93999736771E-01  0.88679722079E+00  0.88000000000E+00 0. -1.
        -11    1    4    4    0    0 -0.53090168318E-02  0.34096034922E-01 -0.49868311976E-01  0.60645155763E-01  0.51100000000E-03 0.  1.
         11    1    4    4    0    0 -0.89323945635E-02  0.20901826199E-01 -0.68218831647E-01  0.71907886379E-01  0.51100000000E-03 0. -1.
</event>
<event>
 8    1  0.1063984E+005  0.1043930E+01  0.7957747E-01            NaN
         13   -1    0    0    0    0  0.00000000000E+00  0.00000000000E+00  0.74505805969E-08  0.10566000000E+00  0.10566000000E+00 0.  1.
     999900   -1    0    0    0    0 -0.00000000000E+00 -0.00000000000E+00 -0.74505805969E-08  0.93827000000E+00  0.93827000000E+00 0. -1.
     999902    2    1    2    0    0  0.16265314820E-01  0.17850312180E-01 -0.46642102637E-03  0.10197760840E+01  0.10194899949E+01 0.  0.
     999903    2    3    3    0    0  0.56321800341E-02  0.51393410954E-01 -0.11885360311E+00  0.13115145685E+00  0.20038001964E-01 0.  0.
         14    1    1    2    0    0 -0.16265314820E-01 -0.17850312180E-01  0.46642102637E-03  0.24153916032E-01  0.00000000000E+00 0.  1.
     999901    1    3    3    0    0  0.10633134786E-01 -0.33543098774E-01  0.11838718208E+00  0.88862462711E+00  0.88000000000E+00 0. -1.
        -11    1    4    4    0    0  0.24435415978E-02  0.35880447126E-01 -0.57815770807E-01  0.68090394745E-01  0.51100000000E-03 0. -1.
         11    1    4    4    0    0  0.31886384363E-02  0.15512963827E-01 -0.61037832298E-01  0.63061062110E-01  0.51100000000E-03 0.  1.
</event>
<event>
 8    1  0.1063984E+005  0.1043930E+01  0.7957747E-01            NaN
         13   -1    0    0    0    0  0.00000000000E+00  0.00000000000E+00  0.74505805969E-08  0.10566000000E+00  0.10566000000E+00 0. -1.
     999900   -1    0    0    0    0 -0.00000000000E+00 -0.00000000000E+00 -0.74505805969E-08  0.93827000000E+00  0.93827000000E+00 0.  1.
     999902    2    1    2    0    0 -0.13140757421E-01  0.80822491113E-03  0.19118795609E-01  0.10207166185E+01  0.10204526223E+01 0.  0.
     999903    2    3    3    0    0  0.76234833629E-01  0.37141619439E-01 -0.94143525823E-01  0.12822770248E+00  0.19700012102E-01 0.  0.
         14    1    1    2    0    0  0.13140757421E-01 -0.80822491113E-03 -0.19118795609E-01  0.23213381457E-01  0.00000000000E+00 0.  1.
     999901    1    3    3    0    0 -0.89375591050E-01 -0.36333394528E-01  0.11326232143E+00  0.89248891606E+00  0.88000000000E+00 0. -1.
        -11    1    4    4    0    0  0.30641229927E-01  0.24520702474E-01 -0.35902641414E-01  0.53192204342E-01  0.51100000000E-03 0. -1.
         11    1    4    4    0    0  0.45593603702E-01  0.12620916964E-01 -0.58240884409E-01  0.75035498141E-01  0.51100000000E-03 0.  1.
</event>
<event>
 8    1  0.1063984E+005  0.1043930E+01  0.7957747E-01            NaN
         13   -1    0    0    0    0  0.00000000000E+00  0.00000000000E+00  0.74505805969E-08  0.10566000000E+00  0.10566000000E+00 0.  1.
     999900   -1    0    0    0    0 -0.00000000000E+00 -0.00000000000E+00 -0.74505805969E-08  0.93827000000E+00  0.93827000000E+00 0. -1.
     999902    2    1    2    0    0 -0.44199441014E-02 -0.41419744755E-02 -0.22189707080E-01  0.10209283705E+01  0.10206692230E+01 0.  0.
     999903    2    3    3    0    0  0.50373615451E-01 -0.98352016246E-01 -0.71244893680E-01  0.13284938897E+00  0.19039565144E-01 0.  0.
         14    1    1    2    0    0  0.44199441014E-02  0.41419744755E-02  0.22189707080E-01  0.23001629480E-01  0.00000000000E+00 0.  1.
     999901    1    3    3    0    0 -0.54793559553E-01  0.94210041771E-01  0.49055186600E-01  0.88807898155E+00  0.88000000000E+00 0.  1.
        -11    1    4    4    0    0  0.26868529017E-01 -0.36984160905E-01 -0.22036657753E-01  0.50750580443E-01  0.51100000000E-03 0. -1.
         11    1    4    4    0    0  0.23505086434E-01 -0.61367855341E-01 -0.49208235928E-01  0.82098808527E-01  0.51100000000E-03 0.  1.
</event>
<event>
 8    1  0.1063984E+005  0.1043930E+01  0.7957747E-01            NaN
         13   -1    0    0    0    0  0.00000000000E+00  0.00000000000E+00  0.74505805969E-08  0.10566000000E+00  0.10566000000E+00 0. -1.
     999900   -1    0    0    0    0 -0.00000000000E+00 -0.00000000000E+00 -0.74505805969E-08  0.93827000000E+00  0.93827000000E+00 0. -1.
     999902    2    1    2    0    0 -0.39808350645E-02 -0.30512594234E-01 -0.98707867347E-02  0.10116144018E+01  0.10110981160E+01 0.  0.
     999903    2    3    3    0    0  0.20762062064E-01  0.87425930952E-01 -0.78420570210E-01  0.12076044101E+00  0.18945755648E-01 0.  0.
         14    1    1    2    0    0  0.39808350645E-02  0.30512594234E-01  0.98707867347E-02  0.32315598176E-01  0.00000000000E+00 0. -1.
     999901    1    3    3    0    0 -0.24742897129E-01 -0.11793852519E+00  0.68549783476E-01  0.89085396081E+00  0.88000000000E+00 0.  1.
        -11    1    4    4    0    0  0.16336457002E-01  0.41429415110E-01 -0.47753354556E-01  0.65298700264E-01  0.51100000000E-03 0.  1.
         11    1    4    4    0    0  0.44256050625E-02  0.45996515842E-01 -0.30667215654E-01  0.55461740747E-01  0.51100000000E-03 0. -1.
</event>
<event>
 8    1  0.1063984E+005  0.1043930E+01  0.7957747E-01            NaN
         13   -1    0    0    0    0  0.00000000000E+00  0.00000000000E+00  0.74505805969E-08  0.10566000000E+00  0.10566000000E+00 0. -1.
     999900   -1    0    0    0    0 -0.00000000000E+00 -0.00000000000E+00 -0.74505805969E-08  0.93827000000E+00  0.93827000000E+00 0. -1.
     999902    2    1    2    0    0  0.19519715343E-01 -0.52634722569E-02 -0.13399370577E-01  0.10196757930E+01  0.10193872945E+01 0.  0.
     999903    2    3    3    0    0 -0.86154964489E-01  0.40003037430E-01  0.82045899505E-01  0.12708070310E+00  0.19875979618E-01 0.  0.
         14    1    1    2    0    0 -0.19519715343E-01  0.52634722569E-02  0.13399370577E-01  0.24254207039E-01  0.00000000000E+00 0. -1.
     999901    1    3    3    0    0  0.10567467983E+00 -0.45266509687E-01 -0.95445270082E-01  0.89259508986E+00  0.88000000000E+00 0. -1.
        -11    1    4    4    0    0 -0.71408343147E-01  0.36508730932E-01  0.76779062200E-01  0.11102848472E+00  0.51100000000E-03 0. -1.
         11    1    4    4    0    0 -0.14746621342E-01  0.34943064976E-02  0.52668373055E-02  0.16052218386E-01  0.51100000000E-03 0.  1.
</event>
<event>
 8    1  0.1063984E+005  0.1043930E+01  0.7957747E-01            NaN
         13   -1    0    0    0    0  0.00000000000E+00  0.00000000000E+00  0.74505805969E-08  0.10566000000E+00  0.10566000000E+00 0.  1.
     999900   -1    0    0    0    0 -0.00000000000E+00 -0.00000000000E+00 -0.74505805969E-08  0.93827000000E+00  0.93827000000E+00 0.  1.
     999902    2    1    2    0    0  0.65930597259E-03 -0.10422678218E-01  0.19505481779E-01  0.10218046588E+01  0.10215650884E+01 0.  0.
     999903    2    3    3    0    0  0.10935545644E+00 -0.11637503101E-01 -0.68083636202E-01  0.13080062818E+00  0.19477563538E-01 0.  0.
         14    1    1    2    0    0 -0.65930597259E-03  0.10422678218E-01 -0.19505481779E-01  0.22125341241E-01  0.00000000000E+00 0. -1.
     999901    1    3    3    0    0 -0.10869615047E+00  0.12148248826E-02  0.87589117981E-01  0.89100403058E+00  0.88000000000E+00 0. -1.
        -11    1    4    4    0    0  0.87173001482E-01 -0.73856171671E-02 -0.62530617492E-01  0.10753612776E+00  0.51100000000E-03 0.  1.
         11    1    4    4    0    0  0.22182454957E-01 -0.42518859336E-02 -0.55530187109E-02  0.23264500418E-01  0.51100000000E-03 0. -1.
</event>
<event>
 8    1  0.1063984E+005  0.1043930E+01  0.7957747E-01            NaN
         13   -1    0    0    0    0  0.00000000000E+00  0.00000000000E+00  0.74505805969E-08  0.10566000000E+00  0.10566000000E+00 0. -1.
     999900   -1    0    0    0    0 -0.00000000000E+00 -0.00000000000E+00 -0.74505805969E-08  0.93827000000E+00  0.93827000000E+00 0.  1.
     999902    2    1    2    0    0 -0.97655872279E-02 -0.17092910957E-01 -0.13546232528E-01  0.10200336673E+01  0.10197537192E+01 0.  0.
     999903    2    3    3    0    0  0.80347171764E-01 -0.77930185517E-01  0.63360789227E-01  0.13001334549E+00  0.18976263306E-01 0.  0.
         14    1    1    2    0    0  0.97655872279E-02  0.17092910957E-01  0.13546232528E-01  0.23896332660E-01  0.00000000000E+00 0. -1.
     999901    1    3    3    0    0 -0.90112758992E-01  0.60837274559E-01 -0.76907021755E-01  0.89002032185E+00  0.88000000000E+00 0.  1.
        -11    1    4    4    0    0  0.67857128112E-02 -0.15688045778E-01  0.79782651067E-02  0.18869936773E-01  0.51100000000E-03 0.  1.
         11    1    4    4    0    0  0.73561458953E-01 -0.62242139738E-01  0.55382524120E-01  0.11114340872E+00  0.51100000000E-03 0. -1.
</event>
<event>
 8    1  0.1063984E+005  0.1043930E+01  0.7957747E-01            NaN
         13   -1    0    0    0    0  0.00000000000E+00  0.00000000000E+00  0.74505805969E-08  0.10566000000E+00  0.10566000000E+00 0.  1.
     999900   -1    0    0    0    0 -0.00000000000E+00 -0.00000000000E+00 -0.74505805969E-08  0.93827000000E+00  0.93827000000E+00 0. -1.
     999902    2    1    2    0    0 -0.55022986678E-02  0.38083218781E-02  0.23102561600E-01  0.10198778284E+01  0.10195941731E+01 0.  0.
     999903    2    3    3    0    0  0.72773467755E-01  0.10008564850E+00 -0.32407149145E-01  0.12944099896E+00  0.19789751168E-01 0.  0.
         14    1    1    2    0    0  0.55022986678E-02 -0.38083218781E-02 -0.23102561600E-01  0.24052171600E-01  0.00000000000E+00 0. -1.
     999901    1    3    3    0    0 -0.78275766422E-01 -0.96277326626E-01  0.55509710746E-01  0.89043682944E+00  0.88000000000E+00 0. -1.
        -11    1    4    4    0    0  0.49766203505E-01  0.81642151737E-01 -0.27929091077E-01  0.99611300569E-01  0.51100000000E-03 0.  1.
         11    1    4    4    0    0  0.23007264249E-01  0.18443496767E-01 -0.44780580681E-02  0.29829698394E-01  0.51100000000E-03 0. -1.
</event>
<event>
 8    1  0.1063984E+005  0.1043930E+01  0.7957747E-01            NaN
         13   -1    0    0    0    0  0.00000000000E+00  0.00000000000E+00  0.74505805969E-08  0.10566000000E+00  0.10566000000E+00 0.  1.
     999900   -1    0    0    0    0 -0.00000000000E+00 -0.00000000000E+00 -0.74505805969E-08  0.93827000000E+00  0.93827000000E+00 0. -1.
     999902    2    1    2    0    0 -0.16673799754E-01 -0.15354745984E-01 -0.27750002368E-02  0.10210939660E+01  0.10208385783E+01 0.  0.
     999903    2    3    3    0    0 -0.98594655902E-01 -0.43592469273E-01  0.75934632831E-01  0.13334197247E+00  0.19819273655E-01 0.  0.
         14    1    1    2    0    0  0.16673799754E-01  0.15354745984E-01  0.27750002368E-02  0.22836033998E-01  0.00000000000E+00 0.  1.
     999901    1    3    3    0    0  0.81920856148E-01  0.28237723289E-01 -0.78709633068E-01  0.88775199354E+00  0.88000000000E+00 0. -1.
        -11    1    4    4    0    0 -0.53446123262E-01 -0.14979840536E-01  0.31446093262E-01  0.63796564302E-01  0.51100000000E-03 0.  1.
         11    1    4    4    0    0 -0.45148532639E-01 -0.28612628738E-01  0.44488539569E-01  0.69545408164E-01  0.51100000000E-03 0. -1.
</event>
<event>
 8    1  0.1063984E+005  0.1043930E+01  0.7957747E-01            NaN
         13   -1    0    0    0    0  0.00000000000E+00  0.00000000000E+00  0.74505805969E-08  0.10566000000E+00  0.10566000000E+00 0. -1.
     999900   -1    0    0    0    0 -0.00000000000E+00 -0.00000000000E+00 -0.74505805969E-08  0.93827000000E+00  0.93827000000E+00 0. -1.
     999902    2    1    2    0    0 -0.87822079535E-02 -0.14287249150E-01 -0.15651293091E-01  0.10209906094E+01  0.10207328783E+01 0.  0.
     999903    2    3    3    0    0 -0.33373325356E-01  0.11925454601E+00 -0.35558101538E-01  0.13035352557E+00  0.19804985577E-01 0.  0.
         14    1    1    2    0    0  0.87822079535E-02  0.14287249150E-01  0.15651293091E-01  0.22939390581E-01  0.00000000000E+00 0. -1.
     999901    1    3    3    0    0  0.24591117402E-01 -0.13354179516E+00  0.19906808447E-01  0.89063708385E+00  0.88000000000E+00 0.  1.
        -11    1    4    4    0    0 -0.60933399088E-02  0.58128343169E-01 -0.15368910406E-01  0.60435896609E-01  0.51100000000E-03 0. -1.
         11    1    4    4    0    0 -0.27279985447E-01  0.61126202840E-01 -0.20189191132E-01  0.69917628958E-01  0.51100000000E-03 0.  1.
</event>
<event>
 8    1  0.1063984E+005  0.1043930E+01  0.7957747E-01            NaN
         13   -1    0    0    0    0  0.00000000000E+00  0.00000000000E+00  0.74505805969E-08  0.10566000000E+00  0.10566000000E+00 0.  1.
     999900   -1    0    0    0    0 -0.00000000000E+00 -0.00000000000E+00 -0.74505805969E-08  0.93827000000E+00  0.93827000000E+00 0. -1.
     999902    2    1    2    0    0  0.20853940817E-01  0.10325343502E-01 -0.53863499579E-02  0.10200446000E+01  0.10197649110E+01 0.  0.
     999903    2    3    3    0    0  0.30139624166E-02  0.12196003988E-01  0.12763659801E+00  0.12986660160E+00  0.20406042623E-01 0.  0.
         14    1    1    2    0    0 -0.20853940817E-01 -0.10325343502E-01  0.53863499579E-02  0.23885399973E-01  0.00000000000E+00 0. -1.
     999901    1    3    3    0    0  0.17839978400E-01 -0.18706604856E-02 -0.13302294797E+00  0.89017799843E+00  0.88000000000E+00 0. -1.
        -11    1    4    4    0    0 -0.51059268144E-02  0.10888503770E-01  0.38209922988E-01  0.40061070115E-01  0.51100000000E-03 0. -1.
         11    1    4    4    0    0  0.81198892310E-02  0.13075002176E-02  0.89426675025E-01  0.89805531483E-01  0.51100000000E-03 0.  1.
</event>
<event>
 8    1  0.1063984E+005  0.1043930E+01  0.7957747E-01            NaN
         13   -1    0    0    0    0  0.00000000000E+00  0.00000000000E+00  0.74505805969E-08  0.10566000000E+00  0.10566000000E+00 0.  1.
     999900   -1    0    0    0    0 -0.00000000000E+00 -0.00000000000E+00 -0.74505805969E-08  0.93827000000E+00  0.93827000000E+00 0.  1.
     999902    2    1    2    0    0 -0.94881119939E-02 -0.18805080036E-01  0.84804757125E-02  0.10212237504E+01  0.10209712898E+01 0.  0.
     999903    2    3    3    0    0 -0.31186282721E-01 -0.95491731679E-01  0.86393797359E-01  0.13419379661E+00  0.21279844420E-01 0.  0.
         14    1    1    2    0    0  0.94881119939E-02  0.18805080036E-01 -0.84804757125E-02  0.22706249639E-01  0.00000000000E+00 0. -1.
     999901    1    3    3    0    0  0.21698170727E-01  0.76686651643E-01 -0.77913321647E-01  0.88702995375E+00  0.88000000000E+00 0.  1.
        -11    1    4    4    0    0 -0.13404081876E-01 -0.57444801425E-01  0.62195634699E-01  0.85721250098E-01  0.51100000000E-03 0.  1.
         11    1    4    4    0    0 -0.17782200846E-01 -0.38046930254E-01  0.24198162661E-01  0.48472546517E-01  0.51100000000E-03 0. -1.
</event>
<event>
 8    1  0.1063984E+005  0.1043930E+01  0.7957747E-01            NaN
         13   -1    0    0    0    0  0.00000000000E+00  0.00000000000E+00  0.74505805969E-08  0.10566000000E+00  0.10566000000E+00 0. -1.
     999900   -1    0    0    0    0 -0.00000000000E+00 -0.00000000000E+00 -0.74505805969E-08  0.93827000000E+00  0.93827000000E+00 0.  1.
     999902    2    1    2    0    0 -0.45573356166E-02 -0.15182280019E-01 -0.19051537467E-01  0.10191462954E+01  0.10188449045E+01 0.  0.
     999903    2    3    3    0    0  0.10944209028E+00  0.73201901004E-02  0.62334500597E-01  0.12778446231E+00  0.20300801379E-01 0.  0.
         14    1    1    2    0    0  0.45573356166E-02  0.15182280019E-01  0.19051537467E-01  0.24783704613E-01  0.00000000000E+00 0. -1.
     999901    1    3    3    0    0 -0.11399942590E+00 -0.22502470119E-01 -0.81386038064E-01  0.89136183307E+00  0.88000000000E+00 0. -1.
        -11    1    4    4    0    0  0.64251872959E-01  0.90018022796E-03  0.25520887802E-01  0.69142536389E-01  0.51100000000E-03 0. -1.
         11    1    4    4    0    0  0.45190217320E-01  0.64200098724E-02  0.36813612795E-01  0.58641925926E-01  0.51100000000E-03 0.  1.
</event>
<event>
 8    1  0.1063984E+005  0.1043930E+01  0.7957747E-01            NaN
         13   -1    0    0    0    0  0.00000000000E+00  0.00000000000E+00  0.74505805969E-08  0.10566000000E+00  0.10566000000E+00 0.  1.
     999900   -1    0    0    0    0 -0.00000000000E+00 -0.00000000000E+00 -0.74505805969E-08  0.93827000000E+00  0.93827000000E+00 0. -1.
     999902    2    1    2    0    0  0.21001837265E-01 -0.63315538663E-02 -0.53271801269E-02  0.10213569056E+01  0.10211074302E+01 0.  0.
     999903    2    3    3    0    0  0.48970539464E-01 -0.32345199331E-01  0.11669771354E+00  0.13211619987E+00  0.19799198618E-01 0.  0.
         14    1    1    2    0    0 -0.21001837265E-01  0.63315538663E-02  0.53271801269E-02  0.22573094404E-01  0.00000000000E+00 0.  1.
     999901    1    3    3    0    0 -0.27968702199E-01  0.26013645465E-01 -0.12202489367E+00  0.88924070573E+00  0.88000000000E+00 0. -1.
        -11    1    4    4    0    0  0.20271440216E-01 -0.17453956299E-01  0.73047962807E-01  0.77793559310E-01  0.51100000000E-03 0.  1.
         11    1    4    4    0    0  0.28699099249E-01 -0.14891243032E-01  0.43649750735E-01  0.54322640556E-01  0.51100000000E-03 0. -1.
</event>
<event>
 8    1  0.1063984E+005  0.1043930E+01  0.7957747E-01            NaN
         13   -1    0    0    0    0  0.00000000000E+00  0.00000000000E+00  0.74505805969E-08  0.10566000000E+00  0.10566000000E+00 0.  1.
     999900   -1    0    0    0    0 -0.00000000000E+00 -0.00000000000E+00 -0.74505805969E-08  0.93827000000E+00  0.93827000000E+00 0. -1.
     999902    2    1    2    0    0 -0.78534551619E-02  0.21114553145E-01  0.10092955890E-01  0.10192446021E+01  0.10189456266E+01 0.  0.
     999903    2    3    3    0    0 -0.67887220173E-01  0.11093550367E+00  0.17170123036E-01  0.13260942208E+00  0.19367112918E-01 0.  0.
         14    1    1    2    0    0  0.78534551619E-02 -0.21114553145E-01 -0.10092955890E-01  0.24685397932E-01  0.00000000000E+00 0.  1.
     999901    1    3    3    0    0  0.60033765012E-01 -0.89820950523E-01 -0.70771671456E-02  0.88663517999E+00  0.88000000000E+00 0.  1.
        -11    1    4    4    0    0 -0.44104141113E-01  0.64530132954E-01  0.15736331209E-02  0.78179605810E-01  0.51100000000E-03 0.  1.
         11    1    4    4    0    0 -0.23783079060E-01  0.46405370714E-01  0.15596489915E-01  0.54429816272E-01  0.51100000000E-03 0. -1.
</event>
<event>
 8    1  0.1063984E+005  0.1043930E+01  0.7957747E-01            NaN
         13   -1    0    0    0    0  0.00000000000E+00  0.00000000000E+00  0.74505805969E-08  0.10566000000E+00  0.10566000000E+00 0.  1.
     999900   -1    0    0    0    0 -0.00000000000E+00 -0.00000000000E+00 -0.74505805969E-08  0.93827000000E+00  0.93827000000E+00 0.  1.
     999902    2    1    2    0    0  0.14135367709E-01 -0.19798491654E-01 -0.21532561112E-03  0.10196023356E+01  0.10193120658E+01 0.  0.
     999903    2    3    3    0    0 -0.43161159605E-01  0.13155827682E-01 -0.11949171482E+00  0.12909925515E+00  0.18771954324E-01 0.  0.
         14    1    1    2    0    0 -0.14135367709E-01  0.19798491654E-01  0.21532561112E-03  0.24327664441E-01  0.00000000000E+00 0.  1.
     999901    1    3    3    0    0  0.57296527314E-01 -0.32954319336E-01  0.11927638920E+00  0.89050308041E+00  0.88000000000E+00 0. -1.
        -11    1    4    4    0    0 -0.19357792607E-01 -0.31899529760E-02 -0.56252396972E-01  0.59577623490E-01  0.51100000000E-03 0. -1.
         11    1    4    4    0    0 -0.23803366999E-01  0.16345780658E-01 -0.63239317843E-01  0.69521631655E-01  0.51100000000E-03 0.  1.
</event>
<event>
 8    1  0.1063984E+005  0.1043930E+01  0.7957747E-01            NaN
         13   -1    0    0    0    0  0.00000000000E+00  0.00000000000E+00  0.74505805969E-08  0.10566000000E+00  0.10566000000E+00 0.  1.
     999900   -1    0    0    0    0 -0.00000000000E+00 -0.00000000000E+00 -0.74505805969E-08  0.93827000000E+00  0.93827000000E+00 0. -1.
     999902    2    1    2    0    0  0.14557063213E-01  0.15190407207E-01 -0.11680379713E-01  0.10198657562E+01  0.10195818127E+01 0.  0.
     999903    2    3    3    0    0  0.68396733131E-01 -0.41690432928E-01 -0.10273583278E+00  0.13170741694E+00  0.19390385196E-01 0.  0.
         14    1    1    2    0    0 -0.14557063213E-01 -0.15190407207E-01  0.11680379713E-01  0.24064243823E-01  0.00000000000E+00 0. -1.
     999901    1    3    3    0    0 -0.53839669918E-01  0.56880840135E-01  0.91055453067E-01  0.88815833924E+00  0.88000000000E+00 0.  1.
        -11    1    4    4    0    0  0.15720628630E-01 -0.19979815119E-01 -0.32631428294E-01  0.41369099703E-01  0.51100000000E-03 0. -1.
         11    1    4    4    0    0  0.52676104501E-01 -0.21710617809E-01 -0.70104404486E-01  0.90338317233E-01  0.51100000000E-03 0.  1.
</event>
<event>
 8    1  0.1063984E+005  0.1043930E+01  0.7957747E-01            NaN
         13   -1    0    0    0    0  0.00000000000E+00  0.00000000000E+00  0.74505805969E-08  0.10566000000E+00  0.10566000000E+00 0. -1.
     999900   -1    0    0    0    0 -0.00000000000E+00 -0.00000000000E+00 -0.74505805969E-08  0.93827000000E+00  0.93827000000E+00 0.  1.
     999902    2    1    2    0    0 -0.19031553659E-01  0.44277104488E-02  0.13262892698E-01  0.10203141372E+01  0.10200407980E+01 0.  0.
     999903    2    3    3    0    0 -0.27248265368E-01 -0.46095164011E-01 -0.11601530117E+00  0.12939723498E+00  0.20417203628E-01 0.  0.
         14    1    1    2    0    0  0.19031553659E-01 -0.44277104488E-02 -0.13262892698E-01  0.23615862830E-01  0.00000000000E+00 0.  1.
     999901    1    3    3    0    0  0.82167117096E-02  0.50522874460E-01  0.12927819387E+00  0.89091690219E+00  0.88000000000E+00 0. -1.
        -11    1    4    4    0    0 -0.12259810982E-01 -0.29939425621E-01 -0.47904344385E-01  0.57807953638E-01  0.51100000000E-03 0. -1.
         11    1    4    4    0    0 -0.14988454387E-01 -0.16155738390E-01 -0.68110956787E-01  0.71589281343E-01  0.51100000000E-03 0.  1.
</event>
<event>
 8    1  0.1063984E+005  0.1043930E+01  0.7957747E-01            NaN
         13   -1    0    0    0    0  0.00000000000E+00  0.00000000000E+00  0.74505805969E-08  0.10566000000E+00  0.10566000000E+00 0. -1.
     999900   -1    0    0    0    0 -0.00000000000E+00 -0.00000000000E+00 -0.74505805969E-08  0.93827000000E+00  0.93827000000E+00 0.  1.
     999902    2    1    2    0    0  0.40364012139E-02  0.10427843872E-01  0.20682083832E-01  0.10204187037E+01  0.10201478078E+01 0.  0.
     999903    2    3    3    0    0  0.10790882267E+00  0.63038735181E-01  0.39346212552E-01  0.13255287175E+00  0.20098338826E-01 0.  0.
         14    1    1    2    0    0 -0.40364012139E-02 -0.10427843872E-01 -0.20682083832E-01  0.23511296311E-01  0.00000000000E+00 0.  1.
     999901    1    3    3    0    0 -0.10387242146E+00 -0.52610891309E-01 -0.18664128719E-01  0.88786583194E+00  0.88000000000E+00 0. -1.
        -11    1    4    4    0    0  0.26622628326E-01  0.25786893223E-01  0.92153833986E-02  0.38195714593E-01  0.51100000000E-03 0. -1.
         11    1    4    4    0    0  0.81286194345E-01  0.37251841958E-01  0.30130829153E-01  0.94357157157E-01  0.51100000000E-03 0.  1.
</event>
<event>
 8    1  0.1063984E+005  0.1043930E+01  0.7957747E-01            NaN
         13   -1    0    0    0    0  0.00000000000E+00  0.00000000000E+00  0.74505805969E-08  0.10566000000E+00  0.10566000000E+00 0. -1.
     999900   -1    0    0    0    0 -0.00000000000E+00 -0.00000000000E+00 -0.74505805969E-08  0.93827000000E+00  0.93827000000E+00 0.  1.
     999902    2    1    2    0    0 -0.11531640963E-02 -0.36476106766E-02  0.23053561570E-01  0.10205611842E+01  0.10202935995E+01 0.  0.
     999903    2    3    3    0    0 -0.41764009181E-01 -0.10851125890E+00  0.60582195197E-01  0.13261184792E+00  0.19919188283E-01 0.  0.
         14    1    1    2    0    0  0.11531640963E-02  0.36476106766E-02 -0.23053561570E-01  0.23368815805E-01  0.00000000000E+00 0.  1.
     999901    1    3    3    0    0  0.40610845085E-01  0.10486364822E+00 -0.37528633627E-01  0.88794933628E+00  0.88000000000E+00 0.  1.
        -11    1    4    4    0    0 -0.17170351260E-01 -0.44078215907E-01  0.13819678521E-01  0.49284426702E-01  0.51100000000E-03 0.  1.
         11    1    4    4    0    0 -0.24593657921E-01 -0.64433042993E-01  0.46762516676E-01  0.83327421213E-01  0.51100000000E-03 0. -1.
</event>
<event>
 8    1  0.1063984E+005  0.1043930E+01  0.7957747E-01            NaN
         13   -1    0    0    0    0  0.00000000000E+00  0.00000000000E+00  0.74505805969E-08  0.10566000000E+00  0.10566000000E+00 0.  1.
     999900   -1    0    0    0    0 -0.00000000000E+00 -0.00000000000E+00 -0.74505805969E-08  0.93827000000E+00  0.93827000000E+00 0. -1.
     999902    2    1    2    0    0  0.64536726394E-02  0.10655114161E-01  0.19920342903E-01  0.10204352898E+01  0.10201647804E+01 0.  0.
     999903    2    3    3    0    0 -0.90513121393E-01 -0.49461024204E-01 -0.73307955297E-01  0.12818643163E+00  0.20461839702E-01 0.  0.
         14    1    1    2    0    0 -0.64536726394E-02 -0.10655114161E-01 -0.19920342903E-01  0.23494710250E-01  0.00000000000E+00 0. -1.
     999901    1    3    3    0    0  0.96966794032E-01  0.60116138365E-01  0.93228298201E-01  0.89224885812E+00  0.88000000000E+00 0.  1.
        -11    1    4    4    0    0 -0.68873361211E-01 -0.44615911039E-01 -0.50426324341E-01  0.96318195113E-01  0.51100000000E-03 0. -1.
         11    1    4    4    0    0 -0.21639760182E-01 -0.48451131643E-02 -0.22881630956E-01  0.31868236514E-01  0.51100000000E-03 0.  1.
</event>
<event>
 8    1  0.1063984E+005  0.1043930E+01  0.7957747E-01            NaN
         13   -1    0    0    0    0  0.00000000000E+00  0.00000000000E+00  0.74505805969E-08  0.10566000000E+00  0.10566000000E+00 0.  1.
     999900   -1    0    0    0    0 -0.00000000000E+00 -0.00000000000E+00 -0.74505805969E-08  0.93827000000E+00  0.93827000000E+00 0.  1.
     999902    2    1    2    0    0 -0.32283420199E-02  0.16664240819E-01  0.24199315827E-02  0.10267842955E+01  0.10266411322E+01 0.  0.
     999903    2    3    3    0    0 -0.13462435471E+00 -0.11974686689E-01  0.34454701377E-02  0.13656738257E+00  0.19278711476E-01 0.  0.
         14    1    1    2    0    0  0.32283420199E-02 -0.16664240819E-01 -0.24199315827E-02  0.17145704510E-01  0.00000000000E+00 0.  1.
     999901    1    3    3    0    0  0.13139601269E+00  0.28638927508E-01 -0.10255385550E-02  0.89021691292E+00  0.88000000000E+00 0.  1.
        -11    1    4    4    0    0 -0.86996630367E-01 -0.35364661978E-04  0.73516241665E-02  0.87308203765E-01  0.51100000000E-03 0. -1.
         11    1    4    4    0    0 -0.47627724341E-01 -0.11939322027E-01 -0.39061540288E-02  0.49259178806E-01  0.51100000000E-03 0.  1.
</event>
<event>
 8    1  0.1063984E+005  0.1043930E+01  0.7957747E-01            NaN
         13   -1    0    0    0    0  0.00000000000E+00  0.00000000000E+00  0.74505805969E-08  0.10566000000E+00  0.10566000000E+00 0.  1.
     999900   -1    0    0    0    0 -0.00000000000E+00 -0.00000000000E+00 -0.74505805969E-08  0.93827000000E+00  0.93827000000E+00 0.  1.
     999902    2    1    2    0    0  0.20969788623E-01  0.11727906220E-01  0.81086082449E-02  0.10185720555E+01  0.10182563562E+01 0.  0.
     999903    2    3    3    0    0  0.10906689187E+00 -0.66747849022E-01  0.17420564355E-01  0.13064961733E+00  0.20371160873E-01 0.  0.
         14    1    1    2    0    0 -0.20969788623E-01 -0.11727906220E-01 -0.81086082449E-02  0.25357944453E-01  0.00000000000E+00 0.  1.
     999901    1    3    3    0    0 -0.88097103245E-01  0.78475755242E-01 -0.93119561098E-02  0.88792243822E+00  0.88000000000E+00 0.  1.
        -11    1    4    4    0    0  0.80125337846E-01 -0.39503442615E-01  0.73167312750E-02  0.89634744497E-01  0.51100000000E-03 0.  1.
         11    1    4    4    0    0  0.28941554022E-01 -0.27244406407E-01  0.10103833080E-01  0.41014872834E-01  0.51100000000E-03 0. -1.
</event>
<event>
 8    1  0.1063984E+005  0.1043930E+01  0.7957747E-01            NaN
         13   -1    0    0    0    0  0.00000000000E+00  0.00000000000E+00  0.74505805969E-08  0.10566000000E+00  0.10566000000E+00 0.  1.
     999900   -1    0    0    0    0 -0.00000000000E+00 -0.00000000000E+00 -0.74505805969E-08  0.93827000000E+00  0.93827000000E+00 0. -1.
     999902    2    1    2    0    0  0.10554275439E-01 -0.19667449672E-01 -0.60607607149E-02  0.10208013570E+01  0.10205393066E+01 0.  0.
     999903    2    3    3    0    0  0.58839978525E-02  0.11455315582E+00 -0.56116050445E-01  0.12920586886E+00  0.19700215550E-01 0.  0.
         14    1    1    2    0    0 -0.10554275439E-01  0.19667449672E-01  0.60607607149E-02  0.23128643002E-01  0.00000000000E+00 0.  1.
     999901    1    3    3    0    0  0.46702775867E-02 -0.13422060549E+00  0.50055289730E-01  0.89159548813E+00  0.88000000000E+00 0.  1.
        -11    1    4    4    0    0  0.69752412393E-03  0.15234359614E-01 -0.52393334031E-03  0.15267870837E-01  0.51100000000E-03 0.  1.
         11    1    4    4    0    0  0.51864737286E-02  0.99318796204E-01 -0.55592117105E-01  0.11393799803E+00  0.51100000000E-03 0. -1.
</event>
<event>
 8    1  0.1063984E+005  0.1043930E+01  0.7957747E-01            NaN
         13   -1    0    0    0    0  0.00000000000E+00  0.00000000000E+00  0.74505805969E-08  0.10566000000E+00  0.10566000000E+00 0. -1.
     999900   -1    0    0    0    0 -0.00000000000E+00 -0.00000000000E+00 -0.74505805969E-08  0.93827000000E+00  0.93827000000E+00 0. -1.
     999902    2    1    2    0    0 -0.16887236549E-01  0.97677321212E-02 -0.14018395051E-02  0.10243710506E+01  0.10241843080E+01 0.  0.
     999903    2    3    3    0    0 -0.11544249305E+00 -0.42160166724E-01 -0.54108522776E-01  0.13578360989E+00  0.20124801085E-01 0.  0.
         14    1    1    2    0    0  0.16887236549E-01 -0.97677321212E-02  0.14018395051E-02  0.19558949436E-01  0.00000000000E+00 0. -1.
     999901    1    3    3    0    0  0.98555256498E-01  0.51927898845E-01  0.52706683271E-01  0.88858744067E+00  0.88000000000E+00 0.  1.
        -11    1    4    4    0    0 -0.85106333410E-01 -0.35270123439E-01 -0.48691302188E-01  0.10420256054E+00  0.51100000000E-03 0.  1.
         11    1    4    4    0    0 -0.30336159637E-01 -0.68900432849E-02 -0.54172205879E-02  0.31581049347E-01  0.51100000000E-03 0. -1.
</event>
<event>
 8    1  0.1063984E+005  0.1043930E+01  0.7957747E-01            NaN
         13   -1    0    0    0    0  0.00000000000E+00  0.00000000000E+00  0.74505805969E-08  0.10566000000E+00  0.10566000000E+00 0.  1.
     999900   -1    0    0    0    0 -0.00000000000E+00 -0.00000000000E+00 -0.74505805969E-08  0.93827000000E+00  0.93827000000E+00 0. -1.
     999902    2    1    2    0    0 -0.21129376105E-01  0.19749046454E-01  0.13156236194E-02  0.10149782084E+01  0.10145652060E+01 0.  0.
     999903    2    3    3    0    0  0.11862989609E+00 -0.23281565195E-01  0.75358812623E-02  0.12288909890E+00  0.20733007443E-01 0.  0.
         14    1    1    2    0    0  0.21129376105E-01 -0.19749046454E-01 -0.13156236194E-02  0.28951791585E-01  0.00000000000E+00 0. -1.
     999901    1    3    3    0    0 -0.13975927220E+00  0.43030611649E-01 -0.62202576429E-02  0.89208910951E+00  0.88000000000E+00 0.  1.
        -11    1    4    4    0    0  0.59602314886E-01 -0.21764293775E-01  0.69866768200E-02  0.63837255559E-01  0.51100000000E-03 0. -1.
         11    1    4    4    0    0  0.59027581209E-01 -0.15172714197E-02  0.54920444233E-03  0.59051843345E-01  0.51100000000E-03 0.  1.
</event>
<event>
 8    1  0.1063984E+005  0.1043930E+01  0.7957747E-01            NaN
         13   -1    0    0    0    0  0.00000000000E+00  0.00000000000E+00  0.74505805969E-08  0.10566000000E+00  0.10566000000E+00 0.  1.
     999900   -1    0    0    0    0 -0.00000000000E+00 -0.00000000000E+00 -0.74505805969E-08  0.93827000000E+00  0.93827000000E+00 0. -1.
     999902    2    1    2    0    0  0.89191493088E-02 -0.92652349999E-02 -0.19908239886E-01  0.10202290756E+01  0.10199537405E+01 0.  0.
     999903    2    3    3    0    0  0.68705529111E-01  0.10083574824E+00 -0.43344018578E-01  0.13104637586E+00  0.20153184032E-01 0.  0.
         14    1    1    2    0    0 -0.89191493088E-02  0.92652349999E-02  0.19908239886E-01  0.23700924441E-01  0.00000000000E+00 0. -1.
     999901    1    3    3    0    0 -0.59786379803E-01 -0.11010098324E+00  0.23435778692E-01  0.88918269970E+00  0.88000000000E+00 0.  1.
        -11    1    4    4    0    0  0.15622082669E-01  0.39909790006E-01 -0.15171244574E-01  0.45467225429E-01  0.51100000000E-03 0.  1.
         11    1    4    4    0    0  0.53083446442E-01  0.60925958231E-01 -0.28172774004E-01  0.85579150432E-01  0.51100000000E-03 0. -1.
</event>
<event>
 8    1  0.1063984E+005  0.1043930E+01  0.7957747E-01            NaN
         13   -1    0    0    0    0  0.00000000000E+00  0.00000000000E+00  0.74505805969E-08  0.10566000000E+00  0.10566000000E+00 0.  1.
     999900   -1    0    0    0    0 -0.00000000000E+00 -0.00000000000E+00 -0.74505805969E-08  0.93827000000E+00  0.93827000000E+00 0. -1.
     999902    2    1    2    0    0  0.14760527223E-02 -0.58903305252E-02  0.21537717700E-01  0.10215526005E+01  0.10213074794E+01 0.  0.
     999903    2    3    3    0    0 -0.47992065438E-01  0.13489610525E-01  0.12334870123E+00  0.13409096571E+00  0.16741477023E-01 0.  0.
         14    1    1    2    0    0 -0.14760527223E-02  0.58903305252E-02 -0.21537717700E-01  0.22377399515E-01  0.00000000000E+00 0. -1.
     999901    1    3    3    0    0  0.49468118160E-01 -0.19379941050E-01 -0.10181098353E+00  0.88746163477E+00  0.88000000000E+00 0. -1.
        -11    1    4    4    0    0 -0.78747850246E-02  0.60601320295E-02  0.40972626078E-01  0.42163427851E-01  0.51100000000E-03 0.  1.
         11    1    4    4    0    0 -0.40117280413E-01  0.74294784953E-02  0.82376075152E-01  0.91927537860E-01  0.51100000000E-03 0. -1.
</event>
<event>
 8    1  0.1063984E+005  0.1043930E+01  0.7957747E-01            NaN
         13   -1    0    0    0    0  0.00000000000E+00  0.00000000000E+00  0.74505805969E-08  0.10566000000E+00  0.10566000000E+00 0. -1.
     999900   -1    0    0    0    0 -0.00000000000E+00 -0.00000000000E+00 -0.74505805969E-08  0.93827000000E+00  0.93827000000E+00 0. -1.
     999902    2    1    2    0    0  0.44150926286E-02  0.22814645388E-01  0.26486443141E-02  0.10205416182E+01  0.10202735800E+01 0.  0.
     999903    2    3    3    0    0  0.94097079839E-01  0.24667557545E-01 -0.86335874285E-01  0.13151713221E+00  0.19496770177E-01 0.  0.
         14    1    1    2    0    0 -0.44150926286E-02 -0.22814645388E-01 -0.26486443141E-02  0.23388381813E-01  0.00000000000E+00 0.  1.
     999901    1    3    3    0    0 -0.89681987210E-01 -0.18529121560E-02  0.88984518599E-01  0.88902448598E+00  0.88000000000E+00 0.  1.
        -11    1    4    4    0    0  0.76828346722E-01  0.26557527694E-01 -0.65577823992E-01  0.10444428782E+00  0.51100000000E-03 0.  1.
         11    1    4    4    0    0  0.17268733117E-01 -0.18899701497E-02 -0.20758050293E-01  0.27072844394E-01  0.51100000000E-03 0. -1.
</event>
<event>
 8    1  0.1063984E+005  0.1043930E+01  0.7957747E-01            NaN
         13   -1    0    0    0    0  0.00000000000E+00  0.00000000000E+00  0.74505805969E-08  0.10566000000E+00  0.10566000000E+00 0. -1.
     999900   -1    0    0    0    0 -0.00000000000E+00 -0.00000000000E+00 -0.74505805969E-08  0.93827000000E+00  0.93827000000E+00 0. -1.
     999902    2    1    2    0    0  0.14523696892E-01  0.28411932484E-02  0.18960932532E-01  0.10198774094E+01  0.10195937442E+01 0.  0.
     999903    2    3    3    0    0 -0.13435669807E-01  0.84948586039E-01 -0.93342878191E-01  0.12851020337E+00  0.20129579451E-01 0.  0.
         14    1    1    2    0    0 -0.14523696892E-01 -0.28411932484E-02 -0.18960932532E-01  0.24052590567E-01  0.00000000000E+00 0.  1.
     999901    1    3    3    0    0  0.27959366699E-01 -0.82107392790E-01  0.11230381072E+00  0.89136720606E+00  0.88000000000E+00 0.  1.
        -11    1    4    4    0    0 -0.68034583540E-02  0.60932066107E-01 -0.52767591983E-01  0.80893038083E-01  0.51100000000E-03 0. -1.
         11    1    4    4    0    0 -0.66322114530E-02  0.24016519932E-01 -0.40575286208E-01  0.47617165290E-01  0.51100000000E-03 0.  1.
</event>
<event>
 8    1  0.1063984E+005  0.1043930E+01  0.7957747E-01            NaN
         13   -1    0    0    0    0  0.00000000000E+00  0.00000000000E+00  0.74505805969E-08  0.10566000000E+00  0.10566000000E+00 0.  1.
     999900   -1    0    0    0    0 -0.00000000000E+00 -0.00000000000E+00 -0.74505805969E-08  0.93827000000E+00  0.93827000000E+00 0.  1.
     999902    2    1    2    0    0  0.19671828404E-01 -0.12127741336E-01  0.54083237998E-02  0.10201957861E+01  0.10199196680E+01 0.  0.
     999903    2    3    3    0    0  0.30081305358E-01 -0.10267317249E+00  0.76029815135E-01  0.13267439068E+00  0.19372554545E-01 0.  0.
         14    1    1    2    0    0 -0.19671828404E-01  0.12127741336E-01 -0.54083237998E-02  0.23734213890E-01  0.00000000000E+00 0.  1.
     999901    1    3    3    0    0 -0.10409476954E-01  0.90545431159E-01 -0.70621491335E-01  0.88752139543E+00  0.88000000000E+00 0.  1.
        -11    1    4    4    0    0  0.30011216480E-01 -0.71825587466E-01  0.55889563087E-01  0.95830540604E-01  0.51100000000E-03 0. -1.
         11    1    4    4    0    0  0.70088878457E-04 -0.30847585029E-01  0.20140252048E-01  0.36843850072E-01  0.51100000000E-03 0.  1.
</event>
<event>
 8    1  0.1063984E+005  0.1043930E+01  0.7957747E-01            NaN
         13   -1    0    0    0    0  0.00000000000E+00  0.00000000000E+00  0.74505805969E-08  0.10566000000E+00  0.10566000000E+00 0.  1.
     999900   -1    0    0    0    0 -0.00000000000E+00 -0.00000000000E+00 -0.74505805969E-08  0.93827000000E+00  0.93827000000E+00 0. -1.
     999902    2    1    2    0    0  0.22624822276E-01  0.12928806874E-02  0.53822473077E-02  0.10206378831E+01  0.10203720722E+01 0.  0.
     999903    2    3    3    0    0  0.12843613298E+00 -0.18186198093E-01  0.25758051312E-01  0.13385118870E+00  0.20641837432E-01 0.  0.
         14    1    1    2    0    0 -0.22624822276E-01 -0.12928806874E-02 -0.53822473077E-02  0.23292116898E-01  0.00000000000E+00 0. -1.
     999901    1    3    3    0    0 -0.10581131070E+00  0.19479078780E-01 -0.20375804004E-01  0.88678669440E+00  0.88000000000E+00 0. -1.
        -11    1    4    4    0    0  0.97590058631E-01 -0.51548330516E-02  0.16552043320E-01  0.99119236814E-01  0.51100000000E-03 0.  1.
         11    1    4    4    0    0  0.30846074349E-01 -0.13031365041E-01  0.92060079921E-02  0.34731951885E-01  0.51100000000E-03 0. -1.
</event>
<event>
 8    1  0.1063984E+005  0.1043930E+01  0.7957747E-01            NaN
         13   -1    0    0    0    0  0.00000000000E+00  0.00000000000E+00  0.74505805969E-08  0.10566000000E+00  0.10566000000E+00 0.  1.
     999900   -1    0    0    0    0 -0.00000000000E+00 -0.00000000000E+00 -0.74505805969E-08  0.93827000000E+00  0.93827000000E+00 0. -1.
     999902    2    1    2    0    0 -0.12317460145E-01  0.19544788665E-01  0.49612069598E-02  0.10203009466E+01  0.10200272984E+01 0.  0.
     999903    2    3    3    0    0  0.35730318562E-01 -0.47825088962E-01  0.11337572473E+00  0.12979491234E+00  0.20706750416E-01 0.  0.
         14    1    1    2    0    0  0.12317460145E-01 -0.19544788665E-01 -0.49612069598E-02  0.23629053364E-01  0.00000000000E+00 0. -1.
     999901    1    3    3    0    0 -0.48047778706E-01  0.67369877627E-01 -0.10841451777E+00  0.89050603429E+00  0.88000000000E+00 0. -1.
        -11    1    4    4    0    0  0.95536473040E-02 -0.14376648384E-02  0.13585195233E-01  0.16678060664E-01  0.51100000000E-03 0. -1.
         11    1    4    4    0    0  0.26176671258E-01 -0.46387424123E-01  0.99790529499E-01  0.11311685168E+00  0.51100000000E-03 0.  1.
</event>
<event>
 7    1  0.1063984E+005  0.1043930E+01  0.7957747E-01            NaN
         13   -1    0    0    0    0  0.00000000000E+00  0.00000000000E+00  0.74505805969E-08  0.10566000000E+00  0.10566000000E+00 0. -1.
     999900   -1    0    0    0    0 -0.00000000000E+00 -0.00000000000E+00 -0.74505805969E-08  0.93827000000E+00  0.93827000000E+00 0.  1.
     999902    2    1    2    0    0  0.16648743081E-02  0.11219156013E-01 -0.20499915748E-01  0.10205016451E+01  0.10202326793E+01 0.  0.
         14    1    1    2    0    0 -0.16648743081E-02 -0.11219156013E-01  0.20499915748E-01  0.23428354910E-01  0.00000000000E+00 0.  1.
     999901    1    3    3    0    0  0.60865195385E-01 -0.97712412617E-01  0.26410649712E-01  0.88789065206E+00  0.88000000000E+00 0. -1.
        -11    1    3    3    0    0 -0.28589538675E-01  0.51397778285E-01 -0.20410115979E-01  0.62256945713E-01  0.51100000000E-03 0.  1.
         11    1    3    3    0    0 -0.30610782402E-01  0.57533790345E-01 -0.26500449481E-01  0.70354047321E-01  0.51100000000E-03 0. -1.
</event>
<event>
 8    1  0.1219094E+005  0.1043930E+01  0.7957747E-01            NaN
         13   -1    0    0    0    0  0.00000000000E+00  0.00000000000E+00  0.74505805969E-08  0.10566000000E+00  0.10566000000E+00 0.  1.
     999900   -1    0    0    0    0 -0.00000000000E+00 -0.00000000000E+00 -0.74505805969E-08  0.93827000000E+00  0.93827000000E+00 0.  1.
     999902    2    1    2    0    0  0.14960412924E-02  0.41191949472E-02 -0.22371298165E-01  0.10211334896E+01  0.10208789951E+01 0.  0.
     999903    2    3    3    0    0  0.52695943439E-01 -0.11277047582E+00 -0.39191064387E-01  0.13176993642E+00  0.18257435340E-01 0.  0.
         14    1    1    2    0    0 -0.14960412924E-02 -0.41191949472E-02  0.22371298165E-01  0.22796510438E-01  0.00000000000E+00 0.  1.
     999901    1    3    3    0    0 -0.51199902146E-01  0.11688967077E+00  0.16819766221E-01  0.88936355314E+00  0.88000000000E+00 0. -1.
        -11    1    4    4    0    0  0.20226961402E-01 -0.36464490648E-01 -0.47405229630E-02  0.41970498266E-01  0.51100000000E-03 0. -1.
         11    1    4    4    0    0  0.32468982037E-01 -0.76305985176E-01 -0.34450541424E-01  0.89799438159E-01  0.51100000000E-03 0.  1.
</event>
<event>
 8    1  0.1063984E+005  0.1043930E+01  0.7957747E-01            NaN
         13   -1    0    0    0    0  0.00000000000E+00  0.00000000000E+00  0.74505805969E-08  0.10566000000E+00  0.10566000000E+00 0. -1.
     999900   -1    0    0    0    0 -0.00000000000E+00 -0.00000000000E+00 -0.74505805969E-08  0.93827000000E+00  0.93827000000E+00 0. -1.
     999902    2    1    2    0    0 -0.85820191469E-02 -0.88794730305E-02 -0.22356065220E-01  0.10183900363E+01  0.10180697306E+01 0.  0.
     999903    2    3    3    0    0 -0.35826331850E-01 -0.31268515415E-01  0.11577299010E+00  0.12691757025E+00  0.21057974550E-01 0.  0.
         14    1    1    2    0    0  0.85820191469E-02  0.88794730305E-02  0.22356065220E-01  0.25539963705E-01  0.00000000000E+00 0. -1.
     999901    1    3    3    0    0  0.27244312703E-01  0.22389042384E-01 -0.13812905532E+00  0.89147246604E+00  0.88000000000E+00 0. -1.
        -11    1    4    4    0    0 -0.91252959972E-02 -0.16707306368E-01  0.64980317903E-01  0.67713425175E-01  0.51100000000E-03 0.  1.
         11    1    4    4    0    0 -0.26701035853E-01 -0.14561209047E-01  0.50792672193E-01  0.59204145075E-01  0.51100000000E-03 0. -1.
</event>
<event>
 8    1  0.1063984E+005  0.1043930E+01  0.7957747E-01            NaN
         13   -1    0    0    0    0  0.00000000000E+00  0.00000000000E+00  0.74505805969E-08  0.10566000000E+00  0.10566000000E+00 0.  1.
     999900   -1    0    0    0    0 -0.00000000000E+00 -0.00000000000E+00 -0.74505805969E-08  0.93827000000E+00  0.93827000000E+00 0. -1.
     999902    2    1    2    0    0 -0.16550570309E-01  0.13740565087E-01  0.96272887421E-02  0.10203628789E+01  0.10200906801E+01 0.  0.
     999903    2    3    3    0    0 -0.43320732606E-01 -0.86555736794E-01 -0.83383521487E-01  0.12939318216E+00  0.20523218283E-01 0.  0.
         14    1    1    2    0    0  0.16550570309E-01 -0.13740565087E-01 -0.96272887421E-02  0.23567121059E-01  0.00000000000E+00 0.  1.
     999901    1    3    3    0    0  0.26770162297E-01  0.10029630188E+00  0.93010810230E-01  0.89096969678E+00  0.88000000000E+00 0. -1.
        -11    1    4    4    0    0 -0.14455065347E-01 -0.48422514176E-01 -0.49803366630E-01  0.70952979092E-01  0.51100000000E-03 0.  1.
         11    1    4    4    0    0 -0.28865667259E-01 -0.38133222619E-01 -0.33580154857E-01  0.58440203070E-01  0.51100000000E-03 0. -1.
</event>
<event>
 8    1  0.1063984E+005  0.1043930E+01  0.7957747E-01            NaN
         13   -1    0    0    0    0  0.00000000000E+00  0.00000000000E+00  0.74505805969E-08  0.10566000000E+00  0.10566000000E+00 0.  1.
     999900   -1    0    0    0    0 -0.00000000000E+00 -0.00000000000E+00 -0.74505805969E-08  0.93827000000E+00  0.93827000000E+00 0. -1.
     999902    2    1    2    0    0 -0.21361818547E-01  0.10787476327E-01  0.63496240413E-03  0.10199904905E+01  0.10197095178E+01 0.  0.
     999903    2    3    3    0    0 -0.11171353994E-02  0.12976873855E+00  0.16570851877E-01  0.13160974977E+00  0.14330373497E-01 0.  0.
         14    1    1    2    0    0  0.21361818547E-01 -0.10787476327E-01 -0.63496240413E-03  0.23939509485E-01  0.00000000000E+00 0. -1.
     999901    1    3    3    0    0 -0.20244683147E-01 -0.11898126223E+00 -0.15935889473E-01  0.88838074075E+00  0.88000000000E+00 0. -1.
        -11    1    4    4    0    0 -0.98149075220E-03  0.32679821300E-01 -0.19985125724E-02  0.32759566813E-01  0.51100000000E-03 0.  1.
         11    1    4    4    0    0 -0.13564464720E-03  0.97088917255E-01  0.18569364449E-01  0.98850182955E-01  0.51100000000E-03 0. -1.
</event>
<event>
 8    1  0.1063984E+005  0.1043930E+01  0.7957747E-01            NaN
         13   -1    0    0    0    0  0.00000000000E+00  0.00000000000E+00  0.74505805969E-08  0.10566000000E+00  0.10566000000E+00 0.  1.
     999900   -1    0    0    0    0 -0.00000000000E+00 -0.00000000000E+00 -0.74505805969E-08  0.93827000000E+00  0.93827000000E+00 0. -1.
     999902    2    1    2    0    0  0.22165764376E-01 -0.65926014904E-02  0.36472381426E-03  0.10208017375E+01  0.10205396958E+01 0.  0.
     999903    2    3    3    0    0 -0.83719821497E-01 -0.53929851606E-01 -0.80206457076E-01  0.12954179348E+00  0.20750014367E-01 0.  0.
         14    1    1    2    0    0 -0.22165764376E-01  0.65926014904E-02 -0.36472381426E-03  0.23128262543E-01  0.00000000000E+00 0. -1.
     999901    1    3    3    0    0  0.10588558587E+00  0.47337250116E-01  0.80571180890E-01  0.89125994397E+00  0.88000000000E+00 0.  1.
        -11    1    4    4    0    0 -0.66739089933E-01 -0.39778475366E-01 -0.51117772280E-01  0.93003876217E-01  0.51100000000E-03 0. -1.
         11    1    4    4    0    0 -0.16980731564E-01 -0.14151376241E-01 -0.29088684796E-01  0.36537917266E-01  0.51100000000E-03 0.  1.
</event>
<event>
 8    1  0.1063984E+005  0.1043930E+01  0.7957747E-01            NaN
         13   -1    0    0    0    0  0.00000000000E+00  0.00000000000E+00  0.74505805969E-08  0.10566000000E+00  0.10566000000E+00 0.  1.
     999900   -1    0    0    0    0 -0.00000000000E+00 -0.00000000000E+00 -0.74505805969E-08  0.93827000000E+00  0.93827000000E+00 0. -1.
     999902    2    1    2    0    0  0.22292023925E-01 -0.59343785999E-03  0.89708722588E-02  0.10198932979E+01  0.10196100117E+01 0.  0.
     999903    2    3    3    0    0  0.11946875688E+00  0.42264976441E-01 -0.33315505328E-01  0.13249919219E+00  0.19672339250E-01 0.  0.
         14    1    1    2    0    0 -0.22292023925E-01  0.59343785999E-03 -0.89708722588E-02  0.24036702109E-01  0.00000000000E+00 0.  1.
     999901    1    3    3    0    0 -0.97176732956E-01 -0.42858414301E-01  0.42286377586E-01  0.88739410570E+00  0.88000000000E+00 0. -1.
        -11    1    4    4    0    0  0.85638721224E-01  0.39455017684E-01 -0.24396440329E-01  0.97396798793E-01  0.51100000000E-03 0.  1.
         11    1    4    4    0    0  0.33830035657E-01  0.28099587563E-02 -0.89190649984E-02  0.35102393397E-01  0.51100000000E-03 0. -1.
</event>
<event>
 8    1  0.1063984E+005  0.1043930E+01  0.7957747E-01            NaN
         13   -1    0    0    0    0  0.00000000000E+00  0.00000000000E+00  0.74505805969E-08  0.10566000000E+00  0.10566000000E+00 0.  1.
     999900   -1    0    0    0    0 -0.00000000000E+00 -0.00000000000E+00 -0.74505805969E-08  0.93827000000E+00  0.93827000000E+00 0. -1.
     999902    2    1    2    0    0  0.89495469550E-02 -0.50307756547E-02  0.21110713446E-01  0.10204552196E+01  0.10201851743E+01 0.  0.
     999903    2    3    3    0    0 -0.53598775086E-01 -0.52589835810E-01  0.10767947067E+00  0.13272310540E+00  0.19545710024E-01 0.  0.
         14    1    1    2    0    0 -0.89495469550E-02  0.50307756547E-02 -0.21110713446E-01  0.23474780438E-01  0.00000000000E+00 0. -1.
     999901    1    3    3    0    0  0.62548322041E-01  0.47559060155E-01 -0.86568757228E-01  0.88773211417E+00  0.88000000000E+00 0. -1.
        -11    1    4    4    0    0 -0.20914842458E-01 -0.28295689296E-01  0.63759812761E-01  0.72826173263E-01  0.51100000000E-03 0. -1.
         11    1    4    4    0    0 -0.32683932628E-01 -0.24294146514E-01  0.43919657913E-01  0.59896932134E-01  0.51100000000E-03 0.  1.
</event>
<event>
 8    1  0.1063984E+005  0.1043930E+01  0.7957747E-01            NaN
         13   -1    0    0    0    0  0.00000000000E+00  0.00000000000E+00  0.74505805969E-08  0.10566000000E+00  0.10566000000E+00 0.  1.
     999900   -1    0    0    0    0 -0.00000000000E+00 -0.00000000000E+00 -0.74505805969E-08  0.93827000000E+00  0.93827000000E+00 0. -1.
     999902    2    1    2    0    0 -0.21162047814E-01 -0.68754844346E-02 -0.70855631393E-03  0.10216677763E+01  0.10214251996E+01 0.  0.
     999903    2    3    3    0    0  0.45150704841E-01 -0.11905875038E+00  0.25189122959E-01  0.13169409344E+00  0.22254665601E-01 0.  0.
         14    1    1    2    0    0  0.21162047814E-01  0.68754844346E-02  0.70855631393E-03  0.22262223742E-01  0.00000000000E+00 0. -1.
     999901    1    3    3    0    0 -0.66312752655E-01  0.11218326595E+00 -0.25897679273E-01  0.88997368282E+00  0.88000000000E+00 0. -1.
        -11    1    4    4    0    0  0.32902027270E-01 -0.71723726244E-01  0.59069939754E-02  0.79132736611E-01  0.51100000000E-03 0. -1.
         11    1    4    4    0    0  0.12248677571E-01 -0.47335024136E-01  0.19282128983E-01  0.52561356825E-01  0.51100000000E-03 0.  1.
</event>
<event>
 8    1  0.1063984E+005  0.1043930E+01  0.7957747E-01            NaN
         13   -1    0    0    0    0  0.00000000000E+00  0.00000000000E+00  0.74505805969E-08  0.10566000000E+00  0.10566000000E+00 0.  1.
     999900   -1    0    0    0    0 -0.00000000000E+00 -0.00000000000E+00 -0.74505805969E-08  0.93827000000E+00  0.93827000000E+00 0. -1.
     999902    2    1    2    0    0 -0.54148876093E-02  0.20497524914E-01  0.97365182656E-02  0.10206004196E+01  0.10203337430E+01 0.  0.
     999903    2    3    3    0    0 -0.35496343726E-01 -0.11493537090E+00 -0.42462719223E-01  0.12820380165E+00  0.12767236590E-01 0.  0.
         14    1    1    2    0    0  0.54148876093E-02 -0.20497524914E-01 -0.97365182656E-02  0.23329580437E-01  0.00000000000E+00 0.  1.
     999901    1    3    3    0    0  0.30081456117E-01  0.13543289582E+00  0.52199237489E-01  0.89239661792E+00  0.88000000000E+00 0. -1.
        -11    1    4    4    0    0 -0.33471899855E-01 -0.96193015451E-01 -0.38809179371E-01  0.10899485229E+00  0.51100000000E-03 0.  1.
         11    1    4    4    0    0 -0.20244438713E-02 -0.18742355454E-01 -0.36535398521E-02  0.19208949357E-01  0.51100000000E-03 0. -1.
</event>
<event>
 8    1  0.1063984E+005  0.1043930E+01  0.7957747E-01            NaN
         13   -1    0    0    0    0  0.00000000000E+00  0.00000000000E+00  0.74505805969E-08  0.10566000000E+00  0.10566000000E+00 0.  1.
     999900   -1    0    0    0    0 -0.00000000000E+00 -0.00000000000E+00 -0.74505805969E-08  0.93827000000E+00  0.93827000000E+00 0.  1.
     999902    2    1    2    0    0 -0.82178737890E-02  0.56112242691E-02 -0.16750505494E-01  0.10244467066E+01  0.10242614197E+01 0.  0.
     999903    2    3    3    0    0  0.20518882550E-01 -0.10519494717E+00 -0.79270572906E-01  0.13483298839E+00  0.20226457378E-01 0.  0.
         14    1    1    2    0    0  0.82178737890E-02 -0.56112242691E-02  0.16750505494E-01  0.19483293400E-01  0.00000000000E+00 0.  1.
     999901    1    3    3    0    0 -0.28736756339E-01  0.11080617144E+00  0.62520067412E-01  0.88961371821E+00  0.88000000000E+00 0. -1.
        -11    1    4    4    0    0  0.23736208838E-01 -0.84498221534E-01 -0.59589485441E-01  0.10608734585E+00  0.51100000000E-03 0. -1.
         11    1    4    4    0    0 -0.32173262874E-02 -0.20696725639E-01 -0.19681087466E-01  0.28745642547E-01  0.51100000000E-03 0.  1.
</event>
<event>
 8    1  0.1063984E+005  0.1043930E+01  0.7957747E-01            NaN
         13   -1    0    0    0    0  0.00000000000E+00  0.00000000000E+00  0.74505805969E-08  0.10566000000E+00  0.10566000000E+00 0. -1.
     999900   -1    0    0    0    0 -0.00000000000E+00 -0.00000000000E+00 -0.74505805969E-08  0.93827000000E+00  0.93827000000E+00 0. -1.
     999902    2    1    2    0    0 -0.16710697888E-02 -0.18063074367E-01  0.15306547786E-01  0.10201948460E+01  0.10199187057E+01 0.  0.
     999903    2    3    3    0    0  0.68692692714E-01  0.99876300329E-01  0.39116644784E-01  0.12922477025E+00  0.21793759378E-01 0.  0.
         14    1    1    2    0    0  0.16710697888E-02  0.18063074367E-01 -0.15306547786E-01  0.23735153990E-01  0.00000000000E+00 0.  1.
     999901    1    3    3    0    0 -0.70363762502E-01 -0.11793937470E+00 -0.23810096998E-01  0.89097007576E+00  0.88000000000E+00 0.  1.
        -11    1    4    4    0    0  0.13431503215E-01  0.32068351080E-01  0.41447423640E-02  0.35017487487E-01  0.51100000000E-03 0.  1.
         11    1    4    4    0    0  0.55261189498E-01  0.67807949249E-01  0.34971902420E-01  0.94207282765E-01  0.51100000000E-03 0. -1.
</event>
<event>
 8    1  0.1063984E+005  0.1043930E+01  0.7957747E-01            NaN
         13   -1    0    0    0    0  0.00000000000E+00  0.00000000000E+00  0.74505805969E-08  0.10566000000E+00  0.10566000000E+00 0. -1.
     999900   -1    0    0    0    0 -0.00000000000E+00 -0.00000000000E+00 -0.74505805969E-08  0.93827000000E+00  0.93827000000E+00 0.  1.
     999902    2    1    2    0    0 -0.99168379211E-02 -0.16918677031E-01 -0.13976674812E-01  0.10198482072E+01  0.10195638445E+01 0.  0.
     999903    2    3    3    0    0 -0.11576146931E+00 -0.22923460492E-01 -0.56898486093E-01  0.13244670543E+00  0.19454799995E-01 0.  0.
         14    1    1    2    0    0  0.99168379211E-02  0.16918677031E-01  0.13976674812E-01  0.24081792824E-01  0.00000000000E+00 0. -1.
     999901    1    3    3    0    0  0.10584463138E+00  0.60047834609E-02  0.42921811281E-01  0.88740150175E+00  0.88000000000E+00 0.  1.
        -11    1    4    4    0    0 -0.33345845120E-01  0.20942489190E-02 -0.14094525800E-01  0.36266348642E-01  0.51100000000E-03 0.  1.
         11    1    4    4    0    0 -0.82415624186E-01 -0.25017709411E-01 -0.42803960293E-01  0.96180356788E-01  0.51100000000E-03 0. -1.
</event>
<event>
 8    1  0.1063984E+005  0.1043930E+01  0.7957747E-01            NaN
         13   -1    0    0    0    0  0.00000000000E+00  0.00000000000E+00  0.74505805969E-08  0.10566000000E+00  0.10566000000E+00 0.  1.
     999900   -1    0    0    0    0 -0.00000000000E+00 -0.00000000000E+00 -0.74505805969E-08  0.93827000000E+00  0.93827000000E+00 0. -1.
     999902    2    1    2    0    0  0.19878803989E-01 -0.10872115741E-01  0.12252941038E-01  0.10181714225E+01  0.10178455390E+01 0.  0.
     999903    2    3    3    0    0  0.10468344453E+00 -0.76861851101E-01 -0.41112118545E-02  0.13148418471E+00  0.20120165305E-01 0.  0.
         14    1    1    2    0    0 -0.19878803989E-01  0.10872115741E-01 -0.12252941038E-01  0.25758577460E-01  0.00000000000E+00 0. -1.
     999901    1    3    3    0    0 -0.84804640544E-01  0.65989735360E-01  0.16364152892E-01  0.88668723783E+00  0.88000000000E+00 0.  1.
        -11    1    4    4    0    0  0.74342448599E-01 -0.47880115888E-01 -0.10460680631E-01  0.89044888238E-01  0.51100000000E-03 0.  1.
         11    1    4    4    0    0  0.30340995934E-01 -0.28981735214E-01  0.63494687763E-02  0.42439296472E-01  0.51100000000E-03 0. -1.
</event>
<event>
 8    1  0.1063984E+005  0.1043930E+01  0.7957747E-01            NaN
         13   -1    0    0    0    0  0.00000000000E+00  0.00000000000E+00  0.74505805969E-08  0.10566000000E+00  0.10566000000E+00 0.  1.
     999900   -1    0    0    0    0 -0.00000000000E+00 -0.00000000000E+00 -0.74505805969E-08  0.93827000000E+00  0.93827000000E+00 0. -1.
     999902    2    1    2    0    0 -0.36085182339E-02 -0.20695789078E-01  0.10546800680E-01  0.10204231479E+01  0.10201523557E+01 0.  0.
     999903    2    3    3    0    0  0.11173507462E+00  0.52263677855E-01  0.34975096589E-01  0.12956739650E+00  0.18661027056E-01 0.  0.
         14    1    1    2    0    0  0.36085182339E-02  0.20695789078E-01 -0.10546800680E-01  0.23506852064E-01  0.00000000000E+00 0. -1.
     999901    1    3    3    0    0 -0.11534359285E+00 -0.72959466932E-01 -0.24428295910E-01  0.89085575144E+00  0.88000000000E+00 0. -1.
        -11    1    4    4    0    0  0.64481011685E-01  0.27244573068E-01  0.10591725430E-01  0.70799105913E-01  0.51100000000E-03 0.  1.
         11    1    4    4    0    0  0.47254062935E-01  0.25019104787E-01  0.24383371160E-01  0.58768290585E-01  0.51100000000E-03 0. -1.
</event>
<event>
 8    1  0.1063984E+005  0.1043930E+01  0.7957747E-01            NaN
         13   -1    0    0    0    0  0.00000000000E+00  0.00000000000E+00  0.74505805969E-08  0.10566000000E+00  0.10566000000E+00 0.  1.
     999900   -1    0    0    0    0 -0.00000000000E+00 -0.00000000000E+00 -0.74505805969E-08  0.93827000000E+00  0.93827000000E+00 0.  1.
     999902    2    1    2    0    0 -0.97767340936E-02  0.13787261583E-01 -0.16664999396E-01  0.10201940501E+01  0.10199178911E+01 0.  0.
     999903    2    3    3    0    0  0.93263573977E-01  0.51489094542E-01 -0.74537528191E-01  0.13149389660E+00  0.19636207513E-01 0.  0.
         14    1    1    2    0    0  0.97767340936E-02 -0.13787261583E-01  0.16664999396E-01  0.23735949873E-01  0.00000000000E+00 0. -1.
     999901    1    3    3    0    0 -0.10304030807E+00 -0.37701832959E-01  0.57872528795E-01  0.88870015353E+00  0.88000000000E+00 0. -1.
        -11    1    4    4    0    0  0.25305042086E-01  0.20188779625E-01 -0.31530123858E-01  0.45192275991E-01  0.51100000000E-03 0. -1.
         11    1    4    4    0    0  0.67958531891E-01  0.31300314917E-01 -0.43007404333E-01  0.86301620605E-01  0.51100000000E-03 0.  1.
</event>
<event>
 8    1  0.1063984E+005  0.1043930E+01  0.7957747E-01            NaN
         13   -1    0    0    0    0  0.00000000000E+00  0.00000000000E+00  0.74505805969E-08  0.10566000000E+00  0.10566000000E+00 0.  1.
     999900   -1    0    0    0    0 -0.00000000000E+00 -0.00000000000E+00 -0.74505805969E-08  0.93827000000E+00  0.93827000000E+00 0.  1.
     999902    2    1    2    0    0 -0.67571926683E-02 -0.22477719742E-01 -0.59812672136E-02  0.10197084580E+01  0.10194207455E+01 0.  0.
     999903    2    3    3    0    0 -0.11061890700E-01 -0.11377676910E+00 -0.64993154110E-01  0.13300870635E+00  0.19992180283E-01 0.  0.
         14    1    1    2    0    0  0.67571926683E-02  0.22477719742E-01  0.59812672136E-02  0.24221541963E-01  0.00000000000E+00 0.  1.
     999901    1    3    3    0    0  0.43046980313E-02  0.91299049357E-01  0.59011886897E-01  0.88669975168E+00  0.88000000000E+00 0. -1.
        -11    1    4    4    0    0 -0.15251014755E-01 -0.86222329620E-01 -0.54964090595E-01  0.10338373156E+00  0.51100000000E-03 0.  1.
         11    1    4    4    0    0  0.41891240552E-02 -0.27554439480E-01 -0.10029063515E-01  0.29624974791E-01  0.51100000000E-03 0. -1.
</event>
<event>
 8    1  0.1063984E+005  0.1043930E+01  0.7957747E-01            NaN
         13   -1    0    0    0    0  0.00000000000E+00  0.00000000000E+00  0.74505805969E-08  0.10566000000E+00  0.10566000000E+00 0. -1.
     999900   -1    0    0    0    0 -0.00000000000E+00 -0.00000000000E+00 -0.74505805969E-08  0.93827000000E+00  0.93827000000E+00 0.  1.
     999902    2    1    2    0    0 -0.29701154024E-02 -0.21595511095E-01 -0.88703020053E-02  0.10203955584E+01  0.10201241226E+01 0.  0.
     999903    2    3    3    0    0 -0.83453018888E-01  0.83448413966E-01  0.47597655328E-01  0.12871155933E+00  0.19315396907E-01 0.  0.
         14    1    1    2    0    0  0.29701154024E-02  0.21595511095E-01  0.88703020053E-02  0.23534441625E-01  0.00000000000E+00 0. -1.
     999901    1    3    3    0    0  0.80482903486E-01 -0.10504392506E+00 -0.56467957333E-01  0.89168399904E+00  0.88000000000E+00 0.  1.
        -11    1    4    4    0    0 -0.63117053313E-01  0.70480826753E-01  0.31537582687E-01  0.99730585085E-01  0.51100000000E-03 0. -1.
         11    1    4    4    0    0 -0.20335965575E-01  0.12967587213E-01  0.16060072641E-01  0.28980974246E-01  0.51100000000E-03 0.  1.
</event>
<event>
 8    1  0.1063984E+005  0.1043930E+01  0.7957747E-01            NaN
         13   -1    0    0    0    0  0.00000000000E+00  0.00000000000E+00  0.74505805969E-08  0.10566000000E+00  0.10566000000E+00 0. -1.
     999900   -1    0    0    0    0 -0.00000000000E+00 -0.00000000000E+00 -0.74505805969E-08  0.93827000000E+00  0.93827000000E+00 0.  1.
     999902    2    1    2    0    0 -0.13595165879E-01 -0.12320618574E-01 -0.14425777578E-01  0.10205905648E+01  0.10203236603E+01 0.  0.
     999903    2    3    3    0    0 -0.57143433137E-01  0.16215326825E-01 -0.11738503384E+00  0.13305951732E+00  0.19931889161E-01 0.  0.
         14    1    1    2    0    0  0.13595165879E-01  0.12320618574E-01  0.14425777578E-01  0.23339435213E-01  0.00000000000E+00 0. -1.
     999901    1    3    3    0    0  0.43548267258E-01 -0.28535945398E-01  0.10295925626E+00  0.88753104746E+00  0.88000000000E+00 0. -1.
        -11    1    4    4    0    0 -0.30453960054E-01 -0.11029843612E-02 -0.64526163990E-01  0.71362085295E-01  0.51100000000E-03 0. -1.
         11    1    4    4    0    0 -0.26689473083E-01  0.17318311186E-01 -0.52858869853E-01  0.61697432028E-01  0.51100000000E-03 0.  1.
</event>
<event>
 8    1  0.1063984E+005  0.1043930E+01  0.7957747E-01            NaN
         13   -1    0    0    0    0  0.00000000000E+00  0.00000000000E+00  0.74505805969E-08  0.10566000000E+00  0.10566000000E+00 0. -1.
     999900   -1    0    0    0    0 -0.00000000000E+00 -0.00000000000E+00 -0.74505805969E-08  0.93827000000E+00  0.93827000000E+00 0. -1.
     999902    2    1    2    0    0 -0.14691384249E-01  0.91979185311E-02 -0.16482753595E-01  0.10200109774E+01  0.10197304910E+01 0.  0.
     999903    2    3    3    0    0 -0.11805513904E+00  0.54769897367E-01  0.13363290865E-01  0.13228824059E+00  0.19617429652E-01 0.  0.
         14    1    1    2    0    0  0.14691384249E-01 -0.91979185311E-02  0.16482753595E-01  0.23919022608E-01  0.00000000000E+00 0.  1.
     999901    1    3    3    0    0  0.10336375479E+00 -0.45571978836E-01 -0.29846044460E-01  0.88772273680E+00  0.88000000000E+00 0.  1.
        -11    1    4    4    0    0 -0.92892119643E-01  0.44303415655E-01  0.25066809134E-02  0.10294796307E+00  0.51100000000E-03 0. -1.
         11    1    4    4    0    0 -0.25163019393E-01  0.10466481712E-01  0.10856609951E-01  0.29340277522E-01  0.51100000000E-03 0.  1.
</event>
<event>
 8    1  0.1063984E+005  0.1043930E+01  0.7957747E-01            NaN
         13   -1    0    0    0    0  0.00000000000E+00  0.00000000000E+00  0.74505805969E-08  0.10566000000E+00  0.10566000000E+00 0. -1.
     999900   -1    0    0    0    0 -0.00000000000E+00 -0.00000000000E+00 -0.74505805969E-08  0.93827000000E+00  0.93827000000E+00 0. -1.
     999902    2    1    2    0    0 -0.14927693393E-01 -0.13191989321E-01 -0.11040571837E-01  0.10211537220E+01  0.10208996842E+01 0.  0.
     999903    2    3    3    0    0  0.63332010403E-01 -0.25367069928E-02  0.11053473601E+00  0.12929124845E+00  0.21929902800E-01 0.  0.
         14    1    1    2    0    0  0.14927693393E-01  0.13191989321E-01  0.11040571837E-01  0.22776277984E-01  0.00000000000E+00 0. -1.
     999901    1    3    3    0    0 -0.78259703796E-01 -0.10655282329E-01 -0.12157530785E+00  0.89186247357E+00  0.88000000000E+00 0. -1.
        -11    1    4    4    0    0  0.34979776967E-01 -0.91609899027E-02  0.75653394424E-01  0.83852285249E-01  0.51100000000E-03 0. -1.
         11    1    4    4    0    0  0.28352233436E-01  0.66242829099E-02  0.34881341585E-01  0.45438963200E-01  0.51100000000E-03 0.  1.
</event>
<event>
 8    1  0.1063984E+005  0.1043930E+01  0.7957747E-01            NaN
         13   -1    0    0    0    0  0.00000000000E+00  0.00000000000E+00  0.74505805969E-08  0.10566000000E+00  0.10566000000E+00 0.  1.
     999900   -1    0    0    0    0 -0.00000000000E+00 -0.00000000000E+00 -0.74505805969E-08  0.93827000000E+00  0.93827000000E+00 0.  1.
     999902    2    1    2    0    0  0.13236730357E-02 -0.21791010371E-01 -0.97275081845E-02  0.10200296933E+01  0.10197496510E+01 0.  0.
     999903    2    3    3    0    0  0.28801887886E-01 -0.10900040867E+00  0.65993172173E-01  0.13205776085E+00  0.19326551482E-01 0.  0.
         14    1    1    2    0    0 -0.13236730357E-02  0.21791010371E-01  0.97275081845E-02  0.23900306666E-01  0.00000000000E+00 0.  1.
     999901    1    3    3    0    0 -0.27478214850E-01  0.87209398297E-01 -0.75720680357E-01  0.88797193248E+00  0.88000000000E+00 0.  1.
        -11    1    4    4    0    0  0.13050087467E-01 -0.65830632542E-01  0.29215651000E-01  0.73196942205E-01  0.51100000000E-03 0.  1.
         11    1    4    4    0    0  0.15751800418E-01 -0.43169776125E-01  0.36777521172E-01  0.58860818646E-01  0.51100000000E-03 0. -1.
</event>
<event>
 8    1  0.1063984E+005  0.1043930E+01  0.7957747E-01            NaN
         13   -1    0    0    0    0  0.00000000000E+00  0.00000000000E+00  0.74505805969E-08  0.10566000000E+00  0.10566000000E+00 0.  1.
     999900   -1    0    0    0    0 -0.00000000000E+00 -0.00000000000E+00 -0.74505805969E-08  0.93827000000E+00  0.93827000000E+00 0.  1.
     999902    2    1    2    0    0  0.17751208220E-02  0.12585087284E-01  0.20113083205E-01  0.10201377409E+01  0.10198602546E+01 0.  0.
     999903    2    3    3    0    0 -0.19957150904E-01  0.11949698720E+00 -0.45853080647E-01  0.13095048238E+00  0.19175661939E-01 0.  0.
         14    1    1    2    0    0 -0.17751208220E-02 -0.12585087284E-01 -0.20113083205E-01  0.23792259075E-01  0.00000000000E+00 0. -1.
     999901    1    3    3    0    0  0.21732271726E-01 -0.10691189991E+00  0.65966163852E-01  0.88918725854E+00  0.88000000000E+00 0. -1.
        -11    1    4    4    0    0 -0.17240061528E-01  0.72326360617E-01 -0.36302780085E-01  0.82743429494E-01  0.51100000000E-03 0. -1.
         11    1    4    4    0    0 -0.27170893762E-02  0.47170626579E-01 -0.95503005622E-02  0.48207052891E-01  0.51100000000E-03 0.  1.
</event>
<event>
 8    1  0.1063984E+005  0.1043930E+01  0.7957747E-01            NaN
         13   -1    0    0    0    0  0.00000000000E+00  0.00000000000E+00  0.74505805969E-08  0.10566000000E+00  0.10566000000E+00 0.  1.
     999900   -1    0    0    0    0 -0.00000000000E+00 -0.00000000000E+00 -0.74505805969E-08  0.93827000000E+00  0.93827000000E+00 0. -1.
     999902    2    1    2    0    0 -0.82019967866E-02  0.49415150977E-02 -0.21767371385E-01  0.10201495505E+01  0.10198723428E+01 0.  0.
     999903    2    3    3    0    0  0.80323097482E-01 -0.11960983162E-01 -0.10214756240E+00  0.13190219648E+00  0.19214573279E-01 0.  0.
         14    1    1    2    0    0  0.82019967866E-02 -0.49415150977E-02  0.21767371385E-01  0.23780449528E-01  0.00000000000E+00 0.  1.
     999901    1    3    3    0    0 -0.88525094268E-01  0.16902498260E-01  0.80380191011E-01  0.88824735399E+00  0.88000000000E+00 0. -1.
        -11    1    4    4    0    0  0.40611019647E-01 -0.11896356462E-01 -0.40554146928E-01  0.58614658302E-01  0.51100000000E-03 0. -1.
         11    1    4    4    0    0  0.39712077835E-01 -0.64626700067E-04 -0.61593415468E-01  0.73287538181E-01  0.51100000000E-03 0.  1.
</event>
<event>
 8    1  0.1063984E+005  0.1043930E+01  0.7957747E-01            NaN
         13   -1    0    0    0    0  0.00000000000E+00  0.00000000000E+00  0.74505805969E-08  0.10566000000E+00  0.10566000000E+00 0.  1.
     999900   -1    0    0    0    0 -0.00000000000E+00 -0.00000000000E+00 -0.74505805969E-08  0.93827000000E+00  0.93827000000E+00 0.  1.
     999902    2    1    2    0    0  0.64548046753E-02  0.18649767814E-01 -0.12870009707E-01  0.10203691110E+01  0.10200970577E+01 0.  0.
     999903    2    3    3    0    0  0.30658725846E-01  0.31947489516E-02 -0.12740164720E+00  0.13248275370E+00  0.19244127110E-01 0.  0.
         14    1    1    2    0    0 -0.64548046753E-02 -0.18649767814E-01  0.12870009707E-01  0.23560889048E-01  0.00000000000E+00 0.  1.
     999901    1    3    3    0    0 -0.24203921171E-01  0.15455018862E-01  0.11453163749E+00  0.88788635725E+00  0.88000000000E+00 0. -1.
        -11    1    4    4    0    0  0.19822611069E-01  0.85199144502E-02 -0.10318968032E+00  0.10542246486E+00  0.51100000000E-03 0. -1.
         11    1    4    4    0    0  0.10836114777E-01 -0.53251654986E-02 -0.24211966881E-01  0.27060288843E-01  0.51100000000E-03 0.  1.
</event>
<event>
 8    1  0.1063984E+005  0.1043930E+01  0.7957747E-01            NaN
         13   -1    0    0    0    0  0.00000000000E+00  0.00000000000E+00  0.74505805969E-08  0.10566000000E+00  0.10566000000E+00 0. -1.
     999900   -1    0    0    0    0 -0.00000000000E+00 -0.00000000000E+00 -0.74505805969E-08  0.93827000000E+00  0.93827000000E+00 0.  1.
     999902    2    1    2    0    0  0.13273167200E-01  0.18508220705E-01 -0.59143251944E-02  0.10203989472E+01  0.10201275906E+01 0.  0.
     999903    2    3    3    0    0  0.63588928893E-01 -0.11074664247E+00  0.72494711596E-02  0.12943779149E+00  0.19829683253E-01 0.  0.
         14    1    1    2    0    0 -0.13273167200E-01 -0.18508220705E-01  0.59143251944E-02  0.23531052754E-01  0.00000000000E+00 0. -1.
     999901    1    3    3    0    0 -0.50315761693E-01  0.12925486318E+00 -0.13163796354E-01  0.89096115575E+00  0.88000000000E+00 0. -1.
        -11    1    4    4    0    0  0.70171564000E-03 -0.12805485673E-01  0.35106209106E-03  0.12839674208E-01  0.51100000000E-03 0. -1.
         11    1    4    4    0    0  0.62887213253E-01 -0.97941156797E-01  0.68984090686E-02  0.11659811728E+00  0.51100000000E-03 0.  1.
</event>
<event>
 8    1  0.1063984E+005  0.1043930E+01  0.7957747E-01            NaN
         13   -1    0    0    0    0  0.00000000000E+00  0.00000000000E+00  0.74505805969E-08  0.10566000000E+00  0.10566000000E+00 0. -1.
     999900   -1    0    0    0    0 -0.00000000000E+00 -0.00000000000E+00 -0.74505805969E-08  0.93827000000E+00  0.93827000000E+00 0.  1.
     999902    2    1    2    0    0  0.95609625454E-02 -0.20820609201E-01 -0.41457620327E-02  0.10206470209E+01  0.10203814209E+01 0.  0.
     999903    2    3    3    0    0 -0.50073199773E-01  0.83488545104E-01 -0.82243369570E-01  0.12905525935E+00  0.20337788188E-01 0.  0.
         14    1    1    2    0    0 -0.95609625454E-02  0.20820609201E-01  0.41457620327E-02  0.23282979086E-01  0.00000000000E+00 0. -1.
     999901    1    3    3    0    0  0.59634162318E-01 -0.10430915430E+00  0.78097607537E-01  0.89159176156E+00  0.88000000000E+00 0. -1.
        -11    1    4    4    0    0 -0.48009195956E-01  0.68405079204E-01 -0.74543307161E-01  0.11198706854E+00  0.51100000000E-03 0. -1.
         11    1    4    4    0    0 -0.20640038168E-02  0.15083465900E-01 -0.77000624094E-02  0.17068190807E-01  0.51100000000E-03 0.  1.
</event>
<event>
 8    1  0.1063984E+005  0.1043930E+01  0.7957747E-01            NaN
         13   -1    0    0    0    0  0.00000000000E+00  0.00000000000E+00  0.74505805969E-08  0.10566000000E+00  0.10566000000E+00 0. -1.
     999900   -1    0    0    0    0 -0.00000000000E+00 -0.00000000000E+00 -0.74505805969E-08  0.93827000000E+00  0.93827000000E+00 0.  1.
     999902    2    1    2    0    0 -0.10894278799E-01 -0.14943351741E-01  0.11120190633E-01  0.10223511281E+01  0.10221233690E+01 0.  0.
     999903    2    3    3    0    0 -0.30289029080E-01 -0.89961724033E-01  0.93816073837E-01  0.13508424515E+00  0.20874877342E-01 0.  0.
         14    1    1    2    0    0  0.10894278799E-01  0.14943351741E-01 -0.11120190633E-01  0.21578871878E-01  0.00000000000E+00 0.  1.
     999901    1    3    3    0    0  0.19394750281E-01  0.75018372292E-01 -0.82695883205E-01  0.88726688297E+00  0.88000000000E+00 0.  1.
        -11    1    4    4    0    0 -0.84437196840E-02 -0.61423221167E-02  0.12251935711E-01  0.16105762098E-01  0.51100000000E-03 0.  1.
         11    1    4    4    0    0 -0.21845309396E-01 -0.83819401916E-01  0.81564138126E-01  0.11897848305E+00  0.51100000000E-03 0. -1.
</event>
<event>
 8    1  0.1063984E+005  0.1043930E+01  0.7957747E-01            NaN
         13   -1    0    0    0    0  0.00000000000E+00  0.00000000000E+00  0.74505805969E-08  0.10566000000E+00  0.10566000000E+00 0.  1.
     999900   -1    0    0    0    0 -0.00000000000E+00 -0.00000000000E+00 -0.74505805969E-08  0.93827000000E+00  0.93827000000E+00 0.  1.
     999902    2    1    2    0    0  0.54052657775E-03  0.59999707032E-02 -0.22764445541E-01  0.10203819258E+01  0.10201101719E+01 0.  0.
     999903    2    3    3    0    0  0.60490523308E-01 -0.90409781744E-01  0.66261851782E-01  0.12863390978E+00  0.17972693127E-01 0.  0.
         14    1    1    2    0    0 -0.54052657775E-03 -0.59999707032E-02  0.22764445541E-01  0.23548074194E-01  0.00000000000E+00 0.  1.
     999901    1    3    3    0    0 -0.59949996730E-01  0.96409752447E-01 -0.89026297324E-01  0.89174801603E+00  0.88000000000E+00 0.  1.
        -11    1    4    4    0    0  0.26023751227E-01 -0.54531073234E-01  0.38702899157E-01  0.71756874933E-01  0.51100000000E-03 0.  1.
         11    1    4    4    0    0  0.34466772081E-01 -0.35878708510E-01  0.27558952625E-01  0.56877034845E-01  0.51100000000E-03 0. -1.
</event>
<event>
 8    1  0.1063984E+005  0.1043930E+01  0.7957747E-01            NaN
         13   -1    0    0    0    0  0.00000000000E+00  0.00000000000E+00  0.74505805969E-08  0.10566000000E+00  0.10566000000E+00 0.  1.
     999900   -1    0    0    0    0 -0.00000000000E+00 -0.00000000000E+00 -0.74505805969E-08  0.93827000000E+00  0.93827000000E+00 0.  1.
     999902    2    1    2    0    0 -0.78454367606E-03  0.12696330040E-01 -0.19255547474E-01  0.10208521228E+01  0.10205912347E+01 0.  0.
     999903    2    3    3    0    0 -0.11218575558E+00 -0.57031222735E-01 -0.30411966394E-01  0.13102257326E+00  0.20095344824E-01 0.  0.
         14    1    1    2    0    0  0.78454367606E-03 -0.12696330040E-01  0.19255547474E-01  0.23077877151E-01  0.00000000000E+00 0.  1.
     999901    1    3    3    0    0  0.11140121190E+00  0.69727552775E-01  0.11156418920E-01  0.88982954958E+00  0.88000000000E+00 0.  1.
        -11    1    4    4    0    0 -0.25316674362E-01 -0.13027060460E-01 -0.15759773627E-01  0.32546426697E-01  0.51100000000E-03 0.  1.
         11    1    4    4    0    0 -0.86869081217E-01 -0.44004162274E-01 -0.14652192767E-01  0.98476146568E-01  0.51100000000E-03 0. -1.
</event>
<event>
 8    1  0.1063984E+005  0.1043930E+01  0.7957747E-01            NaN
         13   -1    0    0    0    0  0.00000000000E+00  0.00000000000E+00  0.74505805969E-08  0.10566000000E+00  0.10566000000E+00 0.  1.
     999900   -1    0    0    0    0 -0.00000000000E+00 -0.00000000000E+00 -0.74505805969E-08  0.93827000000E+00  0.93827000000E+00 0. -1.
     999902    2    1    2    0    0  0.10705909215E-01 -0.45786293736E-02 -0.27221994404E-01  0.10143222760E+01  0.10138900642E+01 0.  0.
     999903    2    3    3    0    0 -0.43548297410E-01  0.35718223403E-01 -0.11271161021E+00  0.12760031866E+00  0.20141711842E-01 0.  0.
         14    1    1    2    0    0 -0.10705909215E-01  0.45786293736E-02  0.27221994404E-01  0.29607723965E-01  0.00000000000E+00 0.  1.
     999901    1    3    3    0    0  0.54254206624E-01 -0.40296852777E-01  0.85489615805E-01  0.88672195737E+00  0.88000000000E+00 0.  1.
        -11    1    4    4    0    0 -0.30849454408E-01  0.28993843027E-01 -0.63417625903E-01  0.76252135490E-01  0.51100000000E-03 0.  1.
         11    1    4    4    0    0 -0.12698843002E-01  0.67243803758E-02 -0.49293984306E-01  0.51348183170E-01  0.51100000000E-03 0. -1.
</event>
<event>
 8    1  0.1063984E+005  0.1043930E+01  0.7957747E-01            NaN
         13   -1    0    0    0    0  0.00000000000E+00  0.00000000000E+00  0.74505805969E-08  0.10566000000E+00  0.10566000000E+00 0. -1.
     999900   -1    0    0    0    0 -0.00000000000E+00 -0.00000000000E+00 -0.74505805969E-08  0.93827000000E+00  0.93827000000E+00 0. -1.
     999902    2    1    2    0    0  0.12949504142E-01  0.18485393593E-01 -0.21642413255E-02  0.10212565932E+01  0.10210048706E+01 0.  0.
     999903    2    3    3    0    0 -0.57600234358E-01 -0.10969730100E+00  0.28164696904E-01  0.12866042851E+00  0.20223028132E-01 0.  0.
         14    1    1    2    0    0 -0.12949504142E-01 -0.18485393593E-01  0.21642413255E-02  0.22673406765E-01  0.00000000000E+00 0. -1.
     999901    1    3    3    0    0  0.70549738500E-01  0.12818269459E+00 -0.30328938229E-01  0.89259616473E+00  0.88000000000E+00 0.  1.
        -11    1    4    4    0    0 -0.53172632686E-02 -0.84718220733E-02  0.83057084899E-02  0.13011186434E-01  0.51100000000E-03 0.  1.
         11    1    4    4    0    0 -0.52282971089E-01 -0.10122547893E+00  0.19858988414E-01  0.11564924207E+00  0.51100000000E-03 0. -1.
</event>
<event>
 8    1  0.1063984E+005  0.1043930E+01  0.7957747E-01            NaN
         13   -1    0    0    0    0  0.00000000000E+00  0.00000000000E+00  0.74505805969E-08  0.10566000000E+00  0.10566000000E+00 0.  1.
     999900   -1    0    0    0    0 -0.00000000000E+00 -0.00000000000E+00 -0.74505805969E-08  0.93827000000E+00  0.93827000000E+00 0.  1.
     999902    2    1    2    0    0  0.16788000254E-01 -0.14623721339E-01 -0.82079290064E-02  0.10202011088E+01  0.10199251160E+01 0.  0.
     999903    2    3    3    0    0 -0.48226371713E-01  0.11626340264E+00  0.10059902009E-01  0.12796121874E+00  0.20734274801E-01 0.  0.
         14    1    1    2    0    0 -0.16788000254E-01  0.14623721339E-01  0.82079290064E-02  0.23728891186E-01  0.00000000000E+00 0.  1.
     999901    1    3    3    0    0  0.65014371968E-01 -0.13088712398E+00 -0.18267831015E-01  0.89223989007E+00  0.88000000000E+00 0.  1.
        -11    1    4    4    0    0 -0.17166403034E-01  0.21484962680E-01  0.59239925769E-02  0.28136165757E-01  0.51100000000E-03 0.  1.
         11    1    4    4    0    0 -0.31059968680E-01  0.94778439960E-01  0.41359094318E-02  0.99825052985E-01  0.51100000000E-03 0. -1.
</event>
<event>
 8    1  0.1063984E+005  0.1043930E+01  0.7957747E-01            NaN
         13   -1    0    0    0    0  0.00000000000E+00  0.00000000000E+00  0.74505805969E-08  0.10566000000E+00  0.10566000000E+00 0.  1.
     999900   -1    0    0    0    0 -0.00000000000E+00 -0.00000000000E+00 -0.74505805969E-08  0.93827000000E+00  0.93827000000E+00 0.  1.
     999902    2    1    2    0    0 -0.20841600212E-01 -0.10650312763E-01  0.39227430428E-02  0.10201983887E+01  0.10199223318E+01 0.  0.
     999903    2    3    3    0    0 -0.12024008477E-01 -0.10877300649E+00  0.71273804856E-01  0.13214322236E+00  0.20142796162E-01 0.  0.
         14    1    1    2    0    0  0.20841600212E-01  0.10650312763E-01 -0.39227430428E-02  0.23731611288E-01  0.00000000000E+00 0. -1.
     999901    1    3    3    0    0 -0.88175917348E-02  0.98122693729E-01 -0.67351061813E-01  0.88805516635E+00  0.88000000000E+00 0.  1.
        -11    1    4    4    0    0 -0.75827131514E-03 -0.75841195892E-01  0.55170067809E-01  0.93789442225E-01  0.51100000000E-03 0. -1.
         11    1    4    4    0    0 -0.11265737162E-01 -0.32931810600E-01  0.16103737047E-01  0.38353780140E-01  0.51100000000E-03 0.  1.
</event>
<event>
 8    1  0.1063984E+005  0.1043930E+01  0.7957747E-01            NaN
         13   -1    0    0    0    0  0.00000000000E+00  0.00000000000E+00  0.74505805969E-08  0.10566000000E+00  0.10566000000E+00 0. -1.
     999900   -1    0    0    0    0 -0.00000000000E+00 -0.00000000000E+00 -0.74505805969E-08  0.93827000000E+00  0.93827000000E+00 0. -1.
     999902    2    1    2    0    0 -0.24243654855E-01  0.11370094276E-01  0.67533436141E-03  0.10171439977E+01  0.10167912382E+01 0.  0.
     999903    2    3    3    0    0 -0.40243779199E-01 -0.11914174970E+00 -0.67937244537E-03  0.12737370111E+00  0.20230667407E-01 0.  0.
         14    1    1    2    0    0  0.24243654855E-01 -0.11370094276E-01 -0.67533436141E-03  0.26786002334E-01  0.00000000000E+00 0. -1.
     999901    1    3    3    0    0  0.16000124345E-01  0.13051184397E+00  0.13547068068E-02  0.88977029655E+00  0.88000000000E+00 0. -1.
        -11    1    4    4    0    0 -0.29870055945E-01 -0.84891454384E-01 -0.95510465550E-02  0.90500071165E-01  0.51100000000E-03 0. -1.
         11    1    4    4    0    0 -0.10373723254E-01 -0.34250295311E-01  0.88716741096E-02  0.36873629948E-01  0.51100000000E-03 0.  1.
</event>
<event>
 8    1  0.1063984E+005  0.1043930E+01  0.7957747E-01            NaN
         13   -1    0    0    0    0  0.00000000000E+00  0.00000000000E+00  0.74505805969E-08  0.10566000000E+00  0.10566000000E+00 0.  1.
     999900   -1    0    0    0    0 -0.00000000000E+00 -0.00000000000E+00 -0.74505805969E-08  0.93827000000E+00  0.93827000000E+00 0. -1.
     999902    2    1    2    0    0 -0.24983098509E-01  0.71469407398E-03  0.63743123910E-02  0.10181366315E+01  0.10178098558E+01 0.  0.
     999903    2    3    3    0    0 -0.67536085804E-01  0.47025754415E-01 -0.98294677758E-01  0.12970482855E+00  0.19721927142E-01 0.  0.
         14    1    1    2    0    0  0.24983098509E-01 -0.71469407398E-03 -0.63743123910E-02  0.25793368473E-01  0.00000000000E+00 0. -1.
     999901    1    3    3    0    0  0.42552987295E-01 -0.46311060341E-01  0.10466899015E+00  0.88843180297E+00  0.88000000000E+00 0.  1.
        -11    1    4    4    0    0 -0.43097485904E-01  0.18935774370E-01 -0.60371195889E-01  0.76556510215E-01  0.51100000000E-03 0. -1.
         11    1    4    4    0    0 -0.24438599900E-01  0.28089980046E-01 -0.37923481869E-01  0.53148318338E-01  0.51100000000E-03 0.  1.
</event>
<event>
 8    1  0.1063984E+005  0.1043930E+01  0.7957747E-01            NaN
         13   -1    0    0    0    0  0.00000000000E+00  0.00000000000E+00  0.74505805969E-08  0.10566000000E+00  0.10566000000E+00 0.  1.
     999900   -1    0    0    0    0 -0.00000000000E+00 -0.00000000000E+00 -0.74505805969E-08  0.93827000000E+00  0.93827000000E+00 0.  1.
     999902    2    1    2    0    0 -0.21766704327E-01 -0.58413190485E-02  0.62064417473E-02  0.10205541504E+01  0.10202864027E+01 0.  0.
     999903    2    3    3    0    0 -0.10091089407E+00 -0.13329746089E-01  0.84146203683E-01  0.13353978422E+00  0.19788878280E-01 0.  0.
         14    1    1    2    0    0  0.21766704327E-01  0.58413190485E-02 -0.62064417473E-02  0.23375849603E-01  0.00000000000E+00 0. -1.
     999901    1    3    3    0    0  0.79144189740E-01  0.74884270408E-02 -0.77939761936E-01  0.88701436617E+00  0.88000000000E+00 0.  1.
        -11    1    4    4    0    0 -0.68088641913E-01 -0.49757896465E-02  0.66667418334E-01  0.95423411323E-01  0.51100000000E-03 0.  1.
         11    1    4    4    0    0 -0.32822252155E-01 -0.83539564427E-02  0.17478785349E-01  0.38116372900E-01  0.51100000000E-03 0. -1.
</event>
<event>
 8    1  0.1063984E+005  0.1043930E+01  0.7957747E-01            NaN
         13   -1    0    0    0    0  0.00000000000E+00  0.00000000000E+00  0.74505805969E-08  0.10566000000E+00  0.10566000000E+00 0. -1.
     999900   -1    0    0    0    0 -0.00000000000E+00 -0.00000000000E+00 -0.74505805969E-08  0.93827000000E+00  0.93827000000E+00 0. -1.
     999902    2    1    2    0    0 -0.46386426922E-03  0.24577152634E-01 -0.81995883847E-02  0.10180169753E+01  0.10176871214E+01 0.  0.
     999903    2    3    3    0    0 -0.95564403329E-01  0.83081250816E-01  0.23907081568E-01  0.13038096861E+00  0.19814111309E-01 0.  0.
         14    1    1    2    0    0  0.46386426922E-03 -0.24577152634E-01  0.81995883847E-02  0.25913024743E-01  0.00000000000E+00 0.  1.
     999901    1    3    3    0    0  0.95100539059E-01 -0.58504098183E-01 -0.32106669952E-01  0.88763600664E+00  0.88000000000E+00 0. -1.
        -11    1    4    4    0    0 -0.27390181142E-01  0.23687080820E-01  0.16075860477E-01  0.39623152725E-01  0.51100000000E-03 0. -1.
         11    1    4    4    0    0 -0.68174222186E-01  0.59394169996E-01  0.78312210909E-02  0.90757815889E-01  0.51100000000E-03 0.  1.
</event>
<event>
 8    1  0.1063984E+005  0.1043930E+01  0.7957747E-01            NaN
         13   -1    0    0    0    0  0.00000000000E+00  0.00000000000E+00  0.74505805969E-08  0.10566000000E+00  0.10566000000E+00 0.  1.
     999900   -1    0    0    0    0 -0.00000000000E+00 -0.00000000000E+00 -0.74505805969E-08  0.93827000000E+00  0.93827000000E+00 0. -1.
     999902    2    1    2    0    0  0.56806336220E-02 -0.21139901448E-01  0.87359849198E-02  0.10203613245E+01  0.10200890893E+01 0.  0.
     999903    2    3    3    0    0  0.12142289298E+00 -0.26668122964E-02 -0.44853860591E-01  0.13097423378E+00  0.19792682379E-01 0.  0.
         14    1    1    2    0    0 -0.56806336220E-02  0.21139901448E-01 -0.87359849198E-02  0.23568675485E-01  0.00000000000E+00 0. -1.
     999901    1    3    3    0    0 -0.11574225936E+00 -0.18473089152E-01  0.53589845510E-01  0.88938709074E+00  0.88000000000E+00 0.  1.
        -11    1    4    4    0    0  0.26136133713E-01 -0.71906186710E-02 -0.49069206423E-02  0.27552522090E-01  0.51100000000E-03 0.  1.
         11    1    4    4    0    0  0.95286759272E-01  0.45238063746E-02 -0.39946939948E-01  0.10342171169E+00  0.51100000000E-03 0. -1.
</event>
<event>
 8    1  0.1063984E+005  0.1043930E+01  0.7957747E-01            NaN
         13   -1    0    0    0    0  0.00000000000E+00  0.00000000000E+00  0.74505805969E-08  0.10566000000E+00  0.10566000000E+00 0. -1.
     999900   -1    0    0    0    0 -0.00000000000E+00 -0.00000000000E+00 -0.74505805969E-08  0.93827000000E+00  0.93827000000E+00 0.  1.
     999902    2    1    2    0    0  0.17657810548E-01 -0.17899943929E-02 -0.16367675631E-01  0.10197866125E+01  0.10195007758E+01 0.  0.
     999903    2    3    3    0    0  0.12170241791E+00  0.42188080268E-01  0.19599446613E-01  0.13183786104E+00  0.20143749780E-01 0.  0.
         14    1    1    2    0    0 -0.17657810548E-01  0.17899943929E-02  0.16367675631E-01  0.24143387477E-01  0.00000000000E+00 0. -1.
     999901    1    3    3    0    0 -0.10404460736E+00 -0.43978074661E-01 -0.35967122244E-01  0.88794875148E+00  0.88000000000E+00 0.  1.
        -11    1    4    4    0    0  0.53533828718E-01  0.14091381284E-01 -0.68868329264E-03  0.55364006804E-01  0.51100000000E-03 0.  1.
         11    1    4    4    0    0  0.68168589191E-01  0.28096698985E-01  0.20288129905E-01  0.76473854240E-01  0.51100000000E-03 0. -1.
</event>
<event>
 8    1  0.1063984E+005  0.1043930E+01  0.7957747E-01            NaN
         13   -1    0    0    0    0  0.00000000000E+00  0.00000000000E+00  0.74505805969E-08  0.10566000000E+00  0.10566000000E+00 0. -1.
     999900   -1    0    0    0    0 -0.00000000000E+00 -0.00000000000E+00 -0.74505805969E-08  0.93827000000E+00  0.93827000000E+00 0.  1.
     999902    2    1    2    0    0 -0.23736904715E-02 -0.17862796179E-01  0.12991074193E-01  0.10217155474E+01  0.10214740222E+01 0.  0.
     999903    2    3    3    0    0  0.20665481217E-01 -0.76972201477E-02 -0.12676860925E+00  0.13033071950E+00  0.20724546852E-01 0.  0.
         14    1    1    2    0    0  0.23736904715E-02  0.17862796179E-01 -0.12991074193E-01  0.22214452559E-01  0.00000000000E+00 0.  1.
     999901    1    3    3    0    0 -0.23039171689E-01 -0.10165576031E-01  0.13975968344E+00  0.89138482794E+00  0.88000000000E+00 0. -1.
        -11    1    4    4    0    0  0.22313794740E-01 -0.10963005376E-01 -0.89842292741E-01  0.93220124482E-01  0.51100000000E-03 0.  1.
         11    1    4    4    0    0 -0.16483135224E-02  0.32657852278E-02 -0.36926316509E-01  0.37110595018E-01  0.51100000000E-03 0. -1.
</event>
<event>
 8    1  0.1063984E+005  0.1043930E+01  0.7957747E-01            NaN
         13   -1    0    0    0    0  0.00000000000E+00  0.00000000000E+00  0.74505805969E-08  0.10566000000E+00  0.10566000000E+00 0.  1.
     999900   -1    0    0    0    0 -0.00000000000E+00 -0.00000000000E+00 -0.74505805969E-08  0.93827000000E+00  0.93827000000E+00 0.  1.
     999902    2    1    2    0    0  0.17037091436E-01  0.16520709527E-02  0.18441691566E-01  0.10187687637E+01  0.10184580041E+01 0.  0.
     999903    2    3    3    0    0 -0.11570753779E+00  0.29737778532E-01  0.41595942146E-01  0.12806900349E+00  0.19971917235E-01 0.  0.
         14    1    1    2    0    0 -0.17037091436E-01 -0.16520709527E-02 -0.18441691566E-01  0.25161236275E-01  0.00000000000E+00 0.  1.
     999901    1    3    3    0    0  0.13274462923E+00 -0.28085707579E-01 -0.23154250580E-01  0.89069976023E+00  0.88000000000E+00 0. -1.
        -11    1    4    4    0    0 -0.67319187217E-01  0.25257207557E-01  0.18405818811E-01  0.74221525100E-01  0.51100000000E-03 0. -1.
         11    1    4    4    0    0 -0.48388350577E-01  0.44805709750E-02  0.23190123335E-01  0.53847478392E-01  0.51100000000E-03 0.  1.
</event>
<event>
 8    1  0.1063984E+005  0.1043930E+01  0.7957747E-01            NaN
         13   -1    0    0    0    0  0.00000000000E+00  0.00000000000E+00  0.74505805969E-08  0.10566000000E+00  0.10566000000E+00 0. -1.
     999900   -1    0    0    0    0 -0.00000000000E+00 -0.00000000000E+00 -0.74505805969E-08  0.93827000000E+00  0.93827000000E+00 0.  1.
     999902    2    1    2    0    0 -0.40309197741E-02 -0.12548588143E-01  0.19511317808E-01  0.10203841532E+01  0.10201124513E+01 0.  0.
     999903    2    3    3    0    0  0.77760516919E-01  0.67301613544E-01 -0.73655700434E-01  0.12811402196E+00  0.20293724138E-01 0.  0.
         14    1    1    2    0    0  0.40309197741E-02  0.12548588143E-01 -0.19511317808E-01  0.23545846793E-01  0.00000000000E+00 0.  1.
     999901    1    3    3    0    0 -0.81791436693E-01 -0.79850201687E-01  0.93167018242E-01  0.89227013125E+00  0.88000000000E+00 0. -1.
        -11    1    4    4    0    0  0.21955919927E-01  0.82601893414E-02 -0.14019157994E-01  0.27332966536E-01  0.51100000000E-03 0.  1.
         11    1    4    4    0    0  0.55804596992E-01  0.59041424202E-01 -0.59636542440E-01  0.10078105542E+00  0.51100000000E-03 0. -1.
</event>
<event>
 8    1  0.1063984E+005  0.1043930E+01  0.7957747E-01            NaN
         13   -1    0    0    0    0  0.00000000000E+00  0.00000000000E+00  0.74505805969E-08  0.10566000000E+00  0.10566000000E+00 0.  1.
     999900   -1    0    0    0    0 -0.00000000000E+00 -0.00000000000E+00 -0.74505805969E-08  0.93827000000E+00  0.93827000000E+00 0.  1.
     999902    2    1    2    0    0  0.22491591550E-01  0.21462229878E-04 -0.74180225448E-02  0.10202466892E+01  0.10199717681E+01 0.  0.
     999903    2    3    3    0    0  0.12806073860E+00  0.62378687003E-02 -0.31827362401E-01  0.13357916168E+00  0.19797668081E-01 0.  0.
         14    1    1    2    0    0 -0.22491591550E-01 -0.21462229878E-04  0.74180225448E-02  0.23683310781E-01  0.00000000000E+00 0.  1.
     999901    1    3    3    0    0 -0.10556914705E+00 -0.62164064704E-02  0.24409339856E-01  0.88666752754E+00  0.88000000000E+00 0. -1.
        -11    1    4    4    0    0  0.76657378210E-01  0.33611423676E-02 -0.28950706202E-01  0.82012532107E-01  0.51100000000E-03 0. -1.
         11    1    4    4    0    0  0.51403360390E-01  0.28767263327E-02 -0.28766561991E-02  0.51566629574E-01  0.51100000000E-03 0.  1.
</event>
<event>
 8    1  0.1063984E+005  0.1043930E+01  0.7957747E-01            NaN
         13   -1    0    0    0    0  0.00000000000E+00  0.00000000000E+00  0.74505805969E-08  0.10566000000E+00  0.10566000000E+00 0. -1.
     999900   -1    0    0    0    0 -0.00000000000E+00 -0.00000000000E+00 -0.74505805969E-08  0.93827000000E+00  0.93827000000E+00 0. -1.
     999902    2    1    2    0    0 -0.17275746813E-01 -0.17067766354E-02 -0.16712338181E-01  0.10198329719E+01  0.10195482450E+01 0.  0.
     999903    2    3    3    0    0  0.12049591750E+00 -0.23480004463E-01  0.30083285705E-01  0.12761946869E+00  0.17639386778E-01 0.  0.
         14    1    1    2    0    0  0.17275746813E-01  0.17067766354E-02  0.16712338181E-01  0.24097028072E-01  0.00000000000E+00 0. -1.
     999901    1    3    3    0    0 -0.13777166432E+00  0.21773227827E-01 -0.46795623887E-01  0.89221350323E+00  0.88000000000E+00 0. -1.
        -11    1    4    4    0    0  0.11391771469E-01 -0.44935377861E-02  0.81622209961E-02  0.14725736370E-01  0.51100000000E-03 0. -1.
         11    1    4    4    0    0  0.10910414604E+00 -0.18986466677E-01  0.21921064709E-01  0.11289373232E+00  0.51100000000E-03 0.  1.
</event>
<event>
 8    1  0.1063984E+005  0.1043930E+01  0.7957747E-01            NaN
         13   -1    0    0    0    0  0.00000000000E+00  0.00000000000E+00  0.74505805969E-08  0.10566000000E+00  0.10566000000E+00 0. -1.
     999900   -1    0    0    0    0 -0.00000000000E+00 -0.00000000000E+00 -0.74505805969E-08  0.93827000000E+00  0.93827000000E+00 0.  1.
     999902    2    1    2    0    0  0.11384435371E-01 -0.18897239120E-01 -0.79164340293E-02  0.10204911233E+01  0.10202219130E+01 0.  0.
     999903    2    3    3    0    0  0.32741007901E-01 -0.12116147204E+00  0.39048851274E-01  0.13306799163E+00  0.20741304322E-01 0.  0.
         14    1    1    2    0    0 -0.11384435371E-01  0.18897239120E-01  0.79164340293E-02  0.23438876739E-01  0.00000000000E+00 0. -1.
     999901    1    3    3    0    0 -0.21356572530E-01  0.10226423292E+00 -0.46965285304E-01  0.88742313163E+00  0.88000000000E+00 0.  1.
        -11    1    4    4    0    0  0.33304076714E-01 -0.10751190213E+00  0.29383214570E-01  0.11632542733E+00  0.51100000000E-03 0.  1.
         11    1    4    4    0    0 -0.56306881350E-03 -0.13649569916E-01  0.96656367046E-02  0.16742564298E-01  0.51100000000E-03 0. -1.
</event>
<event>
 8    1  0.1063984E+005  0.1043930E+01  0.7957747E-01            NaN
         13   -1    0    0    0    0  0.00000000000E+00  0.00000000000E+00  0.74505805969E-08  0.10566000000E+00  0.10566000000E+00 0.  1.
     999900   -1    0    0    0    0 -0.00000000000E+00 -0.00000000000E+00 -0.74505805969E-08  0.93827000000E+00  0.93827000000E+00 0.  1.
     999902    2    1    2    0    0 -0.23421763614E-01 -0.50991150687E-02 -0.10478660654E-01  0.10177692983E+01  0.10174330259E+01 0.  0.
     999903    2    3    3    0    0  0.10321514392E+00 -0.59539140066E-01  0.36269925988E-01  0.12581299160E+00  0.17751794033E-01 0.  0.
         14    1    1    2    0    0  0.23421763614E-01  0.50991150687E-02  0.10478660654E-01  0.26160701718E-01  0.00000000000E+00 0.  1.
     999901    1    3    3    0    0 -0.12663690753E+00  0.54440024997E-01 -0.46748586642E-01  0.89195630668E+00  0.88000000000E+00 0.  1.
        -11    1    4    4    0    0  0.60914886707E-01 -0.45009935288E-01  0.22532574835E-01  0.79022121883E-01  0.51100000000E-03 0.  1.
         11    1    4    4    0    0  0.42300257209E-01 -0.14529204778E-01  0.13737351153E-01  0.46790869720E-01  0.51100000000E-03 0. -1.
</event>
<event>
 7    1  0.1063984E+005  0.1043930E+01  0.7957747E-01            NaN
         13   -1    0    0    0    0  0.00000000000E+00  0.00000000000E+00  0.74505805969E-08  0.10566000000E+00  0.10566000000E+00 0.  1.
     999900   -1    0    0    0    0 -0.00000000000E+00 -0.00000000000E+00 -0.74505805969E-08  0.93827000000E+00  0.93827000000E+00 0.  1.
     999903    2    1    2    0    0  0.16802859157E-01  0.64452889121E-01  0.73790485050E-02  0.70032368391E-01  0.20336451845E-01 0.  0.
         14    1    1    2    0    0  0.80315934159E-01 -0.14158590917E-01 -0.29842360428E-01  0.86842854930E-01  0.00000000000E+00 0. -1.
     999901    1    1    2    0    0 -0.97118793316E-01 -0.50294298205E-01  0.22463311923E-01  0.88705477668E+00  0.88000000000E+00 0. -1.
        -11    1    3    3    0    0  0.17401551937E-01  0.26773467471E-01  0.25673204966E-02  0.32038801877E-01  0.51100000000E-03 0.  1.
         11    1    3    3    0    0 -0.59869277981E-03  0.37679421651E-01  0.48117280083E-02  0.37993566513E-01  0.51100000000E-03 0. -1.
</event>
<event>
 7    1  0.2342577E+005  0.1043930E+01  0.7957747E-01            NaN
         13   -1    0    0    0    0  0.00000000000E+00  0.00000000000E+00  0.74505805969E-08  0.10566000000E+00  0.10566000000E+00 0.  1.
     999900   -1    0    0    0    0 -0.00000000000E+00 -0.00000000000E+00 -0.74505805969E-08  0.93827000000E+00  0.93827000000E+00 0. -1.
     999903    2    1    2    0    0  0.35404963484E-01 -0.87472623589E-01 -0.94098550282E-02  0.96939433720E-01  0.20093210829E-01 0.  0.
         14    1    1    2    0    0  0.15736322311E-01 -0.49784873860E-01  0.16812514802E-01  0.54852768016E-01  0.00000000000E+00 0. -1.
     999901    1    1    2    0    0 -0.51141285796E-01  0.13725749745E+00 -0.74026597735E-02  0.89213779826E+00  0.88000000000E+00 0. -1.
        -11    1    3    3    0    0  0.33395080814E-01 -0.60304116675E-01 -0.32941304160E-02  0.69013986457E-01  0.51100000000E-03 0. -1.
         11    1    3    3    0    0  0.20098826703E-02 -0.27168506915E-01 -0.61157246121E-02  0.27925447263E-01  0.51100000000E-03 0.  1.
</event>
<event>
 8    1  0.1063984E+005  0.1043930E+01  0.7957747E-01            NaN
         13   -1    0    0    0    0  0.00000000000E+00  0.00000000000E+00  0.74505805969E-08  0.10566000000E+00  0.10566000000E+00 0. -1.
     999900   -1    0    0    0    0 -0.00000000000E+00 -0.00000000000E+00 -0.74505805969E-08  0.93827000000E+00  0.93827000000E+00 0.  1.
     999902    2    1    2    0    0 -0.66602079654E-02  0.15266568404E-01  0.17301435427E-01  0.10199140439E+01  0.10196312523E+01 0.  0.
     999903    2    3    3    0    0 -0.66502188895E-01 -0.10602827504E+00 -0.22072058357E-01  0.12871049039E+00  0.20363652441E-01 0.  0.
         14    1    1    2    0    0  0.66602079654E-02 -0.15266568404E-01 -0.17301435427E-01  0.24015956130E-01  0.00000000000E+00 0.  1.
     999901    1    3    3    0    0  0.59841980929E-01  0.12129484344E+00  0.39373493785E-01  0.89120355348E+00  0.88000000000E+00 0. -1.
        -11    1    4    4    0    0 -0.39088891685E-01 -0.71329233879E-01 -0.22821285634E-01  0.84480016915E-01  0.51100000000E-03 0.  1.
         11    1    4    4    0    0 -0.27413297209E-01 -0.34699041158E-01  0.74922727611E-03  0.44230473473E-01  0.51100000000E-03 0. -1.
</event>
<event>
 8    1  0.1063984E+005  0.1043930E+01  0.7957747E-01            NaN
         13   -1    0    0    0    0  0.00000000000E+00  0.00000000000E+00  0.74505805969E-08  0.10566000000E+00  0.10566000000E+00 0.  1.
     999900   -1    0    0    0    0 -0.00000000000E+00 -0.00000000000E+00 -0.74505805969E-08  0.93827000000E+00  0.93827000000E+00 0.  1.
     999902    2    1    2    0    0  0.85145613757E-02 -0.21828766742E-01 -0.11969091601E-02  0.10204688533E+01  0.10201991252E+01 0.  0.
     999903    2    3    3    0    0  0.33409191698E-01 -0.12644285741E+00 -0.20081410539E-01  0.13372172194E+00  0.19345945053E-01 0.  0.
         14    1    1    2    0    0 -0.85145613757E-02  0.21828766742E-01  0.11969091601E-02  0.23461146699E-01  0.00000000000E+00 0.  1.
     999901    1    3    3    0    0 -0.24894630322E-01  0.10461409067E+00  0.18884501378E-01  0.88674713136E+00  0.88000000000E+00 0.  1.
        -11    1    4    4    0    0  0.34112480212E-01 -0.98829908924E-01 -0.16958642053E-01  0.10591916194E+00  0.51100000000E-03 0. -1.
         11    1    4    4    0    0 -0.70328851405E-03 -0.27612948484E-01 -0.31227684858E-02  0.27802560003E-01  0.51100000000E-03 0.  1.
</event>
<event>
 8    1  0.1063984E+005  0.1043930E+01  0.7957747E-01            NaN
         13   -1    0    0    0    0  0.00000000000E+00  0.00000000000E+00  0.74505805969E-08  0.10566000000E+00  0.10566000000E+00 0. -1.
     999900   -1    0    0    0    0 -0.00000000000E+00 -0.00000000000E+00 -0.74505805969E-08  0.93827000000E+00  0.93827000000E+00 0.  1.
     999902    2    1    2    0    0  0.10156480270E-01 -0.15981564478E-01  0.15789605522E-01  0.10192748558E+01  0.10189766216E+01 0.  0.
     999903    2    3    3    0    0 -0.82151990131E-01  0.95091273409E-01  0.90987497972E-02  0.12747734704E+00  0.19400695832E-01 0.  0.
         14    1    1    2    0    0 -0.10156480270E-01  0.15981564478E-01 -0.15789605522E-01  0.24655144234E-01  0.00000000000E+00 0.  1.
     999901    1    3    3    0    0  0.92308470401E-01 -0.11107283789E+00  0.66908557250E-02  0.89179750873E+00  0.88000000000E+00 0. -1.
        -11    1    4    4    0    0 -0.22469877763E-01  0.25184581827E-01 -0.61231902216E-02  0.34306167783E-01  0.51100000000E-03 0.  1.
         11    1    4    4    0    0 -0.59682112369E-01  0.69906691582E-01  0.15221940019E-01  0.93171179254E-01  0.51100000000E-03 0. -1.
</event>
<event>
 8    1  0.1063984E+005  0.1043930E+01  0.7957747E-01            NaN
         13   -1    0    0    0    0  0.00000000000E+00  0.00000000000E+00  0.74505805969E-08  0.10566000000E+00  0.10566000000E+00 0. -1.
     999900   -1    0    0    0    0 -0.00000000000E+00 -0.00000000000E+00 -0.74505805969E-08  0.93827000000E+00  0.93827000000E+00 0.  1.
     999902    2    1    2    0    0 -0.10363536292E-02 -0.24026816856E-01 -0.88288545935E-03  0.10198646422E+01  0.10195806722E+01 0.  0.
     999903    2    3    3    0    0 -0.44115411900E-01 -0.42653785845E-01  0.11425905610E+00  0.13112371490E+00  0.19307555339E-01 0.  0.
         14    1    1    2    0    0  0.10363536292E-02  0.24026816856E-01  0.88288545935E-03  0.24065357753E-01  0.00000000000E+00 0. -1.
     999901    1    3    3    0    0  0.43079058271E-01  0.18626968989E-01 -0.11514194156E+00  0.88874092735E+00  0.88000000000E+00 0.  1.
        -11    1    4    4    0    0 -0.35616931919E-01 -0.22681440521E-01  0.82067591903E-01  0.92294985482E-01  0.51100000000E-03 0.  1.
         11    1    4    4    0    0 -0.84984799813E-02 -0.19972345324E-01  0.32191464202E-01  0.38828729418E-01  0.51100000000E-03 0. -1.
</event>
<event>
 8    1  0.1063984E+005  0.1043930E+01  0.7957747E-01            NaN
         13   -1    0    0    0    0  0.00000000000E+00  0.00000000000E+00  0.74505805969E-08  0.10566000000E+00  0.10566000000E+00 0. -1.
     999900   -1    0    0    0    0 -0.00000000000E+00 -0.00000000000E+00 -0.74505805969E-08  0.93827000000E+00  0.93827000000E+00 0. -1.
     999902    2    1    2    0    0  0.26278167270E-02 -0.81196484027E-02  0.22654405621E-01  0.10197214023E+01  0.10194340008E+01 0.  0.
     999903    2    3    3    0    0  0.92289174494E-01  0.81053450822E-01 -0.33772339049E-01  0.12889314820E+00  0.19644824993E-01 0.  0.
         14    1    1    2    0    0 -0.26278167270E-02  0.81196484027E-02 -0.22654405621E-01  0.24208597749E-01  0.00000000000E+00 0.  1.
     999901    1    3    3    0    0 -0.89661357767E-01 -0.89173099225E-01  0.56426744670E-01  0.89082825405E+00  0.88000000000E+00 0.  1.
        -11    1    4    4    0    0  0.27342157848E-01  0.12974913086E-01 -0.94480010032E-02  0.31709112402E-01  0.51100000000E-03 0.  1.
         11    1    4    4    0    0  0.64947016646E-01  0.68078537736E-01 -0.24324338046E-01  0.97184035798E-01  0.51100000000E-03 0. -1.
</event>
<event>
 8    1  0.1063984E+005  0.1043930E+01  0.7957747E-01            NaN
         13   -1    0    0    0    0  0.00000000000E+00  0.00000000000E+00  0.74505805969E-08  0.10566000000E+00  0.10566000000E+00 0.  1.
     999900   -1    0    0    0    0 -0.00000000000E+00 -0.00000000000E+00 -0.74505805969E-08  0.93827000000E+00  0.93827000000E+00 0. -1.
     999902    2    1    2    0    0 -0.11697160391E-01  0.19045040042E-01 -0.59396616340E-02  0.10208038959E+01  0.10205419037E+01 0.  0.
     999903    2    3    3    0    0  0.94967922266E-01 -0.61923874703E-01  0.53036122165E-01  0.12872119339E+00  0.30047343559E-01 0.  0.
         14    1    1    2    0    0  0.11697160391E-01 -0.19045040042E-01  0.59396616340E-02  0.23126104120E-01  0.00000000000E+00 0.  1.
     999901    1    3    3    0    0 -0.10666508266E+00  0.80968914745E-01 -0.58975783799E-01  0.89208270249E+00  0.88000000000E+00 0. -1.
        -11    1    4    4    0    0  0.45369758929E-01 -0.15486171382E-01  0.12285601283E-01  0.49491753346E-01  0.51100000000E-03 0. -1.
         11    1    4    4    0    0  0.49598163337E-01 -0.46437703320E-01  0.40750520883E-01  0.79229440041E-01  0.51100000000E-03 0.  1.
</event>
<event>
 8    1  0.1063984E+005  0.1043930E+01  0.7957747E-01            NaN
         13   -1    0    0    0    0  0.00000000000E+00  0.00000000000E+00  0.74505805969E-08  0.10566000000E+00  0.10566000000E+00 0. -1.
     999900   -1    0    0    0    0 -0.00000000000E+00 -0.00000000000E+00 -0.74505805969E-08  0.93827000000E+00  0.93827000000E+00 0. -1.
     999902    2    1    2    0    0  0.58454347774E-02  0.54531872210E-02  0.22134359571E-01  0.10203962746E+01  0.10201248556E+01 0.  0.
     999903    2    3    3    0    0 -0.30020236854E-02  0.92071245146E-02  0.13166941991E+00  0.13355339164E+00  0.20146686849E-01 0.  0.
         14    1    1    2    0    0 -0.58454347774E-02 -0.54531872210E-02 -0.22134359571E-01  0.23533725421E-01  0.00000000000E+00 0.  1.
     999901    1    3    3    0    0  0.88474584628E-02 -0.37539372936E-02 -0.10953506034E+00  0.88684288293E+00  0.88000000000E+00 0. -1.
        -11    1    4    4    0    0  0.79656602345E-02  0.78489326531E-02  0.60053762497E-01  0.61088239440E-01  0.51100000000E-03 0. -1.
         11    1    4    4    0    0 -0.10967683920E-01  0.13581918615E-02  0.71615657418E-01  0.72465152205E-01  0.51100000000E-03 0.  1.
</event>
<event>
 8    1  0.1063984E+005  0.1043930E+01  0.7957747E-01            NaN
         13   -1    0    0    0    0  0.00000000000E+00  0.00000000000E+00  0.74505805969E-08  0.10566000000E+00  0.10566000000E+00 0. -1.
     999900   -1    0    0    0    0 -0.00000000000E+00 -0.00000000000E+00 -0.74505805969E-08  0.93827000000E+00  0.93827000000E+00 0.  1.
     999902    2    1    2    0    0  0.31625753262E-02 -0.36695902882E-02  0.23137023409E-01  0.10202912685E+01  0.10200173934E+01 0.  0.
     999903    2    3    3    0    0 -0.67293579891E-01  0.10806591581E+00  0.19384230078E-01  0.13042443766E+00  0.20691000675E-01 0.  0.
         14    1    1    2    0    0 -0.31625753262E-02  0.36695902882E-02 -0.23137023409E-01  0.23638731519E-01  0.00000000000E+00 0.  1.
     999901    1    3    3    0    0  0.70456155217E-01 -0.11173550610E+00  0.37527933315E-02  0.88986683082E+00  0.88000000000E+00 0.  1.
        -11    1    4    4    0    0 -0.11069197310E-01  0.35396459199E-01  0.51358205406E-02  0.37444281626E-01  0.51100000000E-03 0.  1.
         11    1    4    4    0    0 -0.56224382581E-01  0.72669456615E-01  0.14248409537E-01  0.92980156037E-01  0.51100000000E-03 0. -1.
</event>
<event>
 8    1  0.1063984E+005  0.1043930E+01  0.7957747E-01            NaN
         13   -1    0    0    0    0  0.00000000000E+00  0.00000000000E+00  0.74505805969E-08  0.10566000000E+00  0.10566000000E+00 0. -1.
     999900   -1    0    0    0    0 -0.00000000000E+00 -0.00000000000E+00 -0.74505805969E-08  0.93827000000E+00  0.93827000000E+00 0. -1.
     999902    2    1    2    0    0 -0.22768569205E-01  0.23994322975E-02 -0.76771712593E-02  0.10197824540E+01  0.10194965177E+01 0.  0.
     999903    2    3    3    0    0  0.11261368729E+00 -0.54662865202E-01  0.13329619647E-01  0.12735556824E+00  0.19284465369E-01 0.  0.
         14    1    1    2    0    0  0.22768569205E-01 -0.23994322975E-02  0.76771712593E-02  0.24147545995E-01  0.00000000000E+00 0.  1.
     999901    1    3    3    0    0 -0.13538225650E+00  0.57062297499E-01 -0.21006790906E-01  0.89242688576E+00  0.88000000000E+00 0.  1.
        -11    1    4    4    0    0  0.80234375471E-01 -0.48297380482E-01  0.10196284251E-01  0.94204125717E-01  0.51100000000E-03 0. -1.
         11    1    4    4    0    0  0.32379311821E-01 -0.63654847201E-02  0.31333353964E-02  0.33151442525E-01  0.51100000000E-03 0.  1.
</event>
<event>
 8    1  0.1063984E+005  0.1043930E+01  0.7957747E-01            NaN
         13   -1    0    0    0    0  0.00000000000E+00  0.00000000000E+00  0.74505805969E-08  0.10566000000E+00  0.10566000000E+00 0.  1.
     999900   -1    0    0    0    0 -0.00000000000E+00 -0.00000000000E+00 -0.74505805969E-08  0.93827000000E+00  0.93827000000E+00 0.  1.
     999902    2    1    2    0    0 -0.37776732461E-02  0.15286230314E-01  0.19494729282E-01  0.10188703886E+01  0.10185621654E+01 0.  0.
     999903    2    3    3    0    0  0.28841891314E-01 -0.68695621825E-01 -0.99907175926E-01  0.12624851883E+00  0.20156923170E-01 0.  0.
         14    1    1    2    0    0  0.37776732461E-02 -0.15286230314E-01 -0.19494729282E-01  0.25059611373E-01  0.00000000000E+00 0. -1.
     999901    1    3    3    0    0 -0.32619564560E-01  0.83981852139E-01  0.11940190521E+00  0.89262186980E+00  0.88000000000E+00 0. -1.
        -11    1    4    4    0    0  0.17277721596E-01 -0.46595093386E-01 -0.50241922755E-01  0.70669189286E-01  0.51100000000E-03 0.  1.
         11    1    4    4    0    0  0.11564169718E-01 -0.22100528439E-01 -0.49665253171E-01  0.55579329539E-01  0.51100000000E-03 0. -1.
</event>
<event>
 8    1  0.1063984E+005  0.1043930E+01  0.7957747E-01            NaN
         13   -1    0    0    0    0  0.00000000000E+00  0.00000000000E+00  0.74505805969E-08  0.10566000000E+00  0.10566000000E+00 0. -1.
     999900   -1    0    0    0    0 -0.00000000000E+00 -0.00000000000E+00 -0.74505805969E-08  0.93827000000E+00  0.93827000000E+00 0. -1.
     999902    2    1    2    0    0  0.19107097819E-01  0.74081338010E-02 -0.11430028652E-01  0.10204649795E+01  0.10201951613E+01 0.  0.
     999903    2    3    3    0    0 -0.11783472382E+00 -0.45274359747E-01 -0.11509169867E-01  0.12831672167E+00  0.19948189915E-01 0.  0.
         14    1    1    2    0    0 -0.19107097819E-01 -0.74081338010E-02  0.11430028652E-01  0.23465020530E-01  0.00000000000E+00 0. -1.
     999901    1    3    3    0    0  0.13694182163E+00  0.52682493548E-01  0.79141214779E-04  0.89214825780E+00  0.88000000000E+00 0. -1.
        -11    1    4    4    0    0 -0.87969145175E-02 -0.89025062400E-02 -0.39031909972E-02  0.13120074060E-01  0.51100000000E-03 0. -1.
         11    1    4    4    0    0 -0.10903780930E+00 -0.36371853507E-01 -0.76059788699E-02  0.11519664761E+00  0.51100000000E-03 0.  1.
</event>
<event>
 8    1  0.1657729E+005  0.1043930E+01  0.7957747E-01            NaN
         13   -1    0    0    0    0  0.00000000000E+00  0.00000000000E+00  0.74505805969E-08  0.10566000000E+00  0.10566000000E+00 0. -1.
     999900   -1    0    0    0    0 -0.00000000000E+00 -0.00000000000E+00 -0.74505805969E-08  0.93827000000E+00  0.93827000000E+00 0.  1.
     999902    2    1    2    0    0  0.44467570580E-02 -0.62033878313E-02 -0.21565034466E-01  0.10210541092E+01  0.10207978191E+01 0.  0.
     999903    2    3    3    0    0  0.16809777134E-02 -0.12973471499E+00 -0.16712835217E-01  0.13240840804E+00  0.20463276890E-01 0.  0.
         14    1    1    2    0    0 -0.44467570580E-02  0.62033878313E-02  0.21565034466E-01  0.22875890812E-01  0.00000000000E+00 0. -1.
     999901    1    3    3    0    0  0.27657793447E-02  0.12353132716E+00 -0.48521992496E-02  0.88864570114E+00  0.88000000000E+00 0.  1.
        -11    1    4    4    0    0 -0.57462616258E-02 -0.60322041839E-01  0.11804551207E-03  0.60597386990E-01  0.51100000000E-03 0.  1.
         11    1    4    4    0    0  0.74272393391E-02 -0.69412673148E-01 -0.16830880729E-01  0.71811021054E-01  0.51100000000E-03 0. -1.
</event>
<event>
 8    1  0.1063984E+005  0.1043930E+01  0.7957747E-01            NaN
         13   -1    0    0    0    0  0.00000000000E+00  0.00000000000E+00  0.74505805969E-08  0.10566000000E+00  0.10566000000E+00 0. -1.
     999900   -1    0    0    0    0 -0.00000000000E+00 -0.00000000000E+00 -0.74505805969E-08  0.93827000000E+00  0.93827000000E+00 0.  1.
     999902    2    1    2    0    0  0.23840079110E-01  0.16336571987E-02  0.35159466339E-02  0.10197767375E+01  0.10194906642E+01 0.  0.
     999903    2    3    3    0    0  0.77307848675E-01  0.83576713174E-02  0.10520551331E+00  0.13228319798E+00  0.19603323738E-01 0.  0.
         14    1    1    2    0    0 -0.23840079110E-01 -0.16336571987E-02 -0.35159466339E-02  0.24153262483E-01  0.00000000000E+00 0. -1.
     999901    1    3    3    0    0 -0.53467769565E-01 -0.67240141187E-02 -0.10168956667E+00  0.88749353954E+00  0.88000000000E+00 0.  1.
        -11    1    4    4    0    0  0.66155432946E-01  0.23278572739E-02  0.95982027074E-01  0.11659661603E+00  0.51100000000E-03 0. -1.
         11    1    4    4    0    0  0.11152415729E-01  0.60298140435E-02  0.92234862314E-02  0.15686581949E-01  0.51100000000E-03 0.  1.
</event>
<event>
 8    1  0.1063984E+005  0.1043930E+01  0.7957747E-01            NaN
         13   -1    0    0    0    0  0.00000000000E+00  0.00000000000E+00  0.74505805969E-08  0.10566000000E+00  0.10566000000E+00 0. -1.
     999900   -1    0    0    0    0 -0.00000000000E+00 -0.00000000000E+00 -0.74505805969E-08  0.93827000000E+00  0.93827000000E+00 0.  1.
     999902    2    1    2    0    0 -0.65457976394E-04 -0.17253252940E-01  0.16754811483E-01  0.10198799952E+01  0.10195963917E+01 0.  0.
     999903    2    3    3    0    0  0.12167587325E+00  0.44079410903E-02  0.43475130236E-01  0.13083323915E+00  0.20069913845E-01 0.  0.
         14    1    1    2    0    0  0.65457976394E-04  0.17253252940E-01 -0.16754811483E-01  0.24050004773E-01  0.00000000000E+00 0.  1.
     999901    1    3    3    0    0 -0.12174133123E+00 -0.21661194031E-01 -0.26720318753E-01  0.88904675608E+00  0.88000000000E+00 0.  1.
        -11    1    4    4    0    0  0.46101043798E-01  0.43972455579E-02  0.26554051715E-01  0.53385585988E-01  0.51100000000E-03 0. -1.
         11    1    4    4    0    0  0.75574829452E-01  0.10695532391E-04  0.16921078520E-01  0.77447653162E-01  0.51100000000E-03 0.  1.
</event>
<event>
 8    1  0.1063984E+005  0.1043930E+01  0.7957747E-01            NaN
         13   -1    0    0    0    0  0.00000000000E+00  0.00000000000E+00  0.74505805969E-08  0.10566000000E+00  0.10566000000E+00 0. -1.
     999900   -1    0    0    0    0 -0.00000000000E+00 -0.00000000000E+00 -0.74505805969E-08  0.93827000000E+00  0.93827000000E+00 0.  1.
     999902    2    1    2    0    0  0.21128704041E-03 -0.19911527127E-01  0.19744145405E-01  0.10158881593E+01  0.10155010622E+01 0.  0.
     999903    2    3    3    0    0 -0.11431406557E+00 -0.52373590077E-01 -0.57218402563E-02  0.12750853412E+00  0.20371261466E-01 0.  0.
         14    1    1    2    0    0 -0.21128704041E-03  0.19911527127E-01 -0.19744145405E-01  0.28041840747E-01  0.00000000000E+00 0. -1.
     999901    1    3    3    0    0  0.11452535261E+00  0.32462062950E-01  0.25465985661E-01  0.88837962513E+00  0.88000000000E+00 0.  1.
        -11    1    4    4    0    0 -0.95718046354E-01 -0.37185002199E-01  0.53892563791E-03  0.10268992330E+00  0.51100000000E-03 0.  1.
         11    1    4    4    0    0 -0.18596019214E-01 -0.15188587878E-01 -0.62607658942E-02  0.24818610817E-01  0.51100000000E-03 0. -1.
</event>
<event>
 7    1  0.1063984E+005  0.1043930E+01  0.7957747E-01            NaN
         13   -1    0    0    0    0  0.00000000000E+00  0.00000000000E+00  0.74505805969E-08  0.10566000000E+00  0.10566000000E+00 0.  1.
     999900   -1    0    0    0    0 -0.00000000000E+00 -0.00000000000E+00 -0.74505805969E-08  0.93827000000E+00  0.93827000000E+00 0. -1.
     999902    2    1    2    0    0 -0.10495436190E-01  0.12653417030E-01 -0.38227234315E-02  0.10270517193E+01  0.10269130235E+01 0.  0.
         14    1    1    2    0    0  0.10495436190E-01 -0.12653417030E-01  0.38227234315E-02  0.16878280653E-01  0.00000000000E+00 0. -1.
     999901    1    3    3    0    0  0.23898360019E-01  0.23263058618E-01  0.12428569000E+00  0.88935888945E+00  0.88000000000E+00 0.  1.
        -11    1    3    3    0    0 -0.87340297104E-02  0.83145002701E-02 -0.73269259980E-01  0.74256715311E-01  0.51100000000E-03 0. -1.
         11    1    3    3    0    0 -0.25659766499E-01 -0.18924141858E-01 -0.54839153447E-01  0.63436114585E-01  0.51100000000E-03 0.  1.
</event>
<event>
 8    1  0.1063984E+005  0.1043930E+01  0.7957747E-01            NaN
         13   -1    0    0    0    0  0.00000000000E+00  0.00000000000E+00  0.74505805969E-08  0.10566000000E+00  0.10566000000E+00 0.  1.
     999900   -1    0    0    0    0 -0.00000000000E+00 -0.00000000000E+00 -0.74505805969E-08  0.93827000000E+00  0.93827000000E+00 0.  1.
     999902    2    1    2    0    0 -0.55999273282E-02 -0.49444148236E-02  0.22328817251E-01  0.10203846713E+01  0.10201129814E+01 0.  0.
     999903    2    3    3    0    0  0.10040895570E+00  0.35276847369E-01 -0.68598624679E-01  0.12846346799E+00  0.21695090583E-01 0.  0.
         14    1    1    2    0    0  0.55999273282E-02  0.49444148236E-02 -0.22328817251E-01  0.23545328706E-01  0.00000000000E+00 0. -1.
     999901    1    3    3    0    0 -0.10600888302E+00 -0.40221262193E-01  0.90927441930E-01  0.89192120331E+00  0.88000000000E+00 0. -1.
        -11    1    4    4    0    0  0.12304939542E-01 -0.27690992466E-02 -0.88189402998E-02  0.15398515408E-01  0.51100000000E-03 0.  1.
         11    1    4    4    0    0  0.88104016153E-01  0.38045946616E-01 -0.59779684379E-01  0.11306495258E+00  0.51100000000E-03 0. -1.
</event>
<event>
 8    1  0.1063984E+005  0.1043930E+01  0.7957747E-01            NaN
         13   -1    0    0    0    0  0.00000000000E+00  0.00000000000E+00  0.74505805969E-08  0.10566000000E+00  0.10566000000E+00 0.  1.
     999900   -1    0    0    0    0 -0.00000000000E+00 -0.00000000000E+00 -0.74505805969E-08  0.93827000000E+00  0.93827000000E+00 0.  1.
     999902    2    1    2    0    0 -0.22233259313E-01 -0.32348472993E-02 -0.81368222126E-02  0.10200346044E+01  0.10197546784E+01 0.  0.
     999903    2    3    3    0    0  0.41946684044E-01  0.10811747700E+00  0.52040929204E-01  0.12866500256E+00  0.19937688864E-01 0.  0.
         14    1    1    2    0    0  0.22233259313E-01  0.32348472993E-02  0.81368222126E-02  0.23895395632E-01  0.00000000000E+00 0.  1.
     999901    1    3    3    0    0 -0.64179943356E-01 -0.11135232430E+00 -0.60177751417E-01  0.89136960180E+00  0.88000000000E+00 0. -1.
        -11    1    4    4    0    0  0.36132610797E-01  0.83072922737E-01  0.32054898022E-01  0.96096064764E-01  0.51100000000E-03 0. -1.
         11    1    4    4    0    0  0.58140732469E-02  0.25044554262E-01  0.19986031182E-01  0.32568937798E-01  0.51100000000E-03 0.  1.
</event>
<event>
 8    1  0.1063984E+005  0.1043930E+01  0.7957747E-01            NaN
         13   -1    0    0    0    0  0.00000000000E+00  0.00000000000E+00  0.74505805969E-08  0.10566000000E+00  0.10566000000E+00 0. -1.
     999900   -1    0    0    0    0 -0.00000000000E+00 -0.00000000000E+00 -0.74505805969E-08  0.93827000000E+00  0.93827000000E+00 0.  1.
     999902    2    1    2    0    0 -0.80893340391E-02  0.15336259049E-01  0.10269251778E-01  0.10237781837E+01  0.10235798326E+01 0.  0.
     999903    2    3    3    0    0  0.90568489910E-01  0.36453384945E-01  0.89994896586E-01  0.13443265039E+00  0.21013220632E-01 0.  0.
         14    1    1    2    0    0  0.80893340391E-02 -0.15336259049E-01 -0.10269251778E-01  0.20151816268E-01  0.00000000000E+00 0.  1.
     999901    1    3    3    0    0 -0.98657823949E-01 -0.21117125896E-01 -0.79725644807E-01  0.88934553334E+00  0.88000000000E+00 0. -1.
        -11    1    4    4    0    0  0.18353732767E-02  0.42662816035E-02  0.86266602632E-02  0.98107156763E-02  0.51100000000E-03 0. -1.
         11    1    4    4    0    0  0.88733116633E-01  0.32187103342E-01  0.81368236323E-01  0.12462193472E+00  0.51100000000E-03 0.  1.
</event>
<event>
 8    1  0.1063984E+005  0.1043930E+01  0.7957747E-01            NaN
         13   -1    0    0    0    0  0.00000000000E+00  0.00000000000E+00  0.74505805969E-08  0.10566000000E+00  0.10566000000E+00 0.  1.
     999900   -1    0    0    0    0 -0.00000000000E+00 -0.00000000000E+00 -0.74505805969E-08  0.93827000000E+00  0.93827000000E+00 0.  1.
     999902    2    1    2    0    0 -0.21545249468E-01  0.53050751219E-02 -0.95088692955E-02  0.10197895735E+01  0.10195038077E+01 0.  0.
     999903    2    3    3    0    0 -0.10551722777E+00 -0.74239834209E-01  0.18795505485E-01  0.13176940290E+00  0.19090997228E-01 0.  0.
         14    1    1    2    0    0  0.21545249468E-01 -0.53050751219E-02  0.95088692955E-02  0.24140426508E-01  0.00000000000E+00 0.  1.
     999901    1    3    3    0    0  0.83971978303E-01  0.79544909331E-01 -0.28304374780E-01  0.88802017059E+00  0.88000000000E+00 0.  1.
        -11    1    4    4    0    0 -0.44195762463E-01 -0.32505790193E-01 -0.14313127320E-02  0.54883527519E-01  0.51100000000E-03 0.  1.
         11    1    4    4    0    0 -0.61321465309E-01 -0.41734044016E-01  0.20226818217E-01  0.76885875385E-01  0.51100000000E-03 0. -1.
</event>
<event>
 8    1  0.1063984E+005  0.1043930E+01  0.7957747E-01            NaN
         13   -1    0    0    0    0  0.00000000000E+00  0.00000000000E+00  0.74505805969E-08  0.10566000000E+00  0.10566000000E+00 0.  1.
     999900   -1    0    0    0    0 -0.00000000000E+00 -0.00000000000E+00 -0.74505805969E-08  0.93827000000E+00  0.93827000000E+00 0.  1.
     999902    2    1    2    0    0  0.15921517383E-01 -0.10935659690E-01  0.24709991254E-02  0.10244572189E+01  0.10242721338E+01 0.  0.
     999903    2    3    3    0    0  0.42638180967E-01  0.14073487518E-01  0.12590199586E+00  0.13508977595E+00  0.19541173916E-01 0.  0.
         14    1    1    2    0    0 -0.15921517383E-01  0.10935659690E-01 -0.24709991254E-02  0.19472781139E-01  0.00000000000E+00 0. -1.
     999901    1    3    3    0    0 -0.26716663584E-01 -0.25009147208E-01 -0.12343099673E+00  0.88936744291E+00  0.88000000000E+00 0.  1.
        -11    1    4    4    0    0  0.66978496613E-02  0.95291708027E-02  0.44262372860E-01  0.45772099127E-01  0.51100000000E-03 0. -1.
         11    1    4    4    0    0  0.35940331306E-01  0.45443167149E-02  0.81639622997E-01  0.89317676822E-01  0.51100000000E-03 0.  1.
</event>
<event>
 8    1  0.1063984E+005  0.1043930E+01  0.7957747E-01            NaN
         13   -1    0    0    0    0  0.00000000000E+00  0.00000000000E+00  0.74505805969E-08  0.10566000000E+00  0.10566000000E+00 0. -1.
     999900   -1    0    0    0    0 -0.00000000000E+00 -0.00000000000E+00 -0.74505805969E-08  0.93827000000E+00  0.93827000000E+00 0.  1.
     999902    2    1    2    0    0 -0.19249860447E-01 -0.10319055816E-01  0.46925695141E-02  0.10215903436E+01  0.10213460578E+01 0.  0.
     999903    2    3    3    0    0 -0.19615961461E-01 -0.12510601426E+00 -0.35549664005E-01  0.13322351776E+00  0.21176079129E-01 0.  0.
         14    1    1    2    0    0  0.19249860447E-01  0.10319055816E-01 -0.46925695141E-02  0.22339656416E-01  0.00000000000E+00 0. -1.
     999901    1    3    3    0    0  0.36610101473E-03  0.11478695844E+00  0.40242233519E-01  0.88836682582E+00  0.88000000000E+00 0. -1.
        -11    1    4    4    0    0 -0.16877007049E-02 -0.20168752966E-01 -0.13974544032E-01  0.24600323814E-01  0.51100000000E-03 0. -1.
         11    1    4    4    0    0 -0.17928260756E-01 -0.10493726129E+00 -0.21575119973E-01  0.10862319395E+00  0.51100000000E-03 0.  1.
</event>
<event>
 8    1  0.1063984E+005  0.1043930E+01  0.7957747E-01            NaN
         13   -1    0    0    0    0  0.00000000000E+00  0.00000000000E+00  0.74505805969E-08  0.10566000000E+00  0.10566000000E+00 0. -1.
     999900   -1    0    0    0    0 -0.00000000000E+00 -0.00000000000E+00 -0.74505805969E-08  0.93827000000E+00  0.93827000000E+00 0.  1.
     999902    2    1    2    0    0  0.14376881225E-01  0.13228747453E-01  0.13018488867E-01  0.10204528723E+01  0.10201827724E+01 0.  0.
     999903    2    3    3    0    0  0.81866924290E-01 -0.58194159792E-01 -0.80459770575E-01  0.13006288887E+00  0.18810285845E-01 0.  0.
         14    1    1    2    0    0 -0.14376881225E-01 -0.13228747453E-01 -0.13018488867E-01  0.23477127706E-01  0.00000000000E+00 0. -1.
     999901    1    3    3    0    0 -0.67490043065E-01  0.71422907246E-01  0.93478259442E-01  0.89038998342E+00  0.88000000000E+00 0. -1.
        -11    1    4    4    0    0  0.10095298916E-01 -0.15874800823E-01 -0.16400174907E-01  0.24962997003E-01  0.51100000000E-03 0. -1.
         11    1    4    4    0    0  0.71771625374E-01 -0.42319358970E-01 -0.64059595668E-01  0.10509989187E+00  0.51100000000E-03 0.  1.
</event>
<event>
 8    1  0.1063984E+005  0.1043930E+01  0.7957747E-01            NaN
         13   -1    0    0    0    0  0.00000000000E+00  0.00000000000E+00  0.74505805969E-08  0.10566000000E+00  0.10566000000E+00 0. -1.
     999900   -1    0    0    0    0 -0.00000000000E+00 -0.00000000000E+00 -0.74505805969E-08  0.93827000000E+00  0.93827000000E+00 0. -1.
     999902    2    1    2    0    0  0.51090303198E-03 -0.58668575076E-02  0.24806155602E-01  0.10184343848E+01  0.10181152046E+01 0.  0.
     999903    2    3    3    0    0 -0.72053745474E-01 -0.88706261804E-01  0.60619569487E-01  0.13084743371E+00  0.19641170650E-01 0.  0.
         14    1    1    2    0    0 -0.51090303198E-03  0.58668575076E-02 -0.24806155602E-01  0.25495615205E-01  0.00000000000E+00 0.  1.
     999901    1    3    3    0    0  0.72564648506E-01  0.82839404296E-01 -0.35813413885E-01  0.88758695108E+00  0.88000000000E+00 0.  1.
        -11    1    4    4    0    0 -0.51584864608E-01 -0.51734245911E-01  0.44910853113E-01  0.85759409425E-01  0.51100000000E-03 0.  1.
         11    1    4    4    0    0 -0.20468880866E-01 -0.36972015893E-01  0.15708716374E-01  0.45088024288E-01  0.51100000000E-03 0. -1.
</event>
<event>
 8    1  0.1063984E+005  0.1043930E+01  0.7957747E-01            NaN
         13   -1    0    0    0    0  0.00000000000E+00  0.00000000000E+00  0.74505805969E-08  0.10566000000E+00  0.10566000000E+00 0. -1.
     999900   -1    0    0    0    0 -0.00000000000E+00 -0.00000000000E+00 -0.74505805969E-08  0.93827000000E+00  0.93827000000E+00 0.  1.
     999902    2    1    2    0    0  0.13027597463E-01 -0.11666659703E-01  0.15838003052E-01  0.10203361113E+01  0.10200632865E+01 0.  0.
     999903    2    3    3    0    0  0.34438145271E-01  0.90541239706E-01  0.86413276015E-01  0.13135594535E+00  0.20085521414E-01 0.  0.
         14    1    1    2    0    0 -0.13027597463E-01  0.11666659703E-01 -0.15838003052E-01  0.23593888721E-01  0.00000000000E+00 0.  1.
     999901    1    3    3    0    0 -0.21410547807E-01 -0.10220789941E+00 -0.70575272963E-01  0.88898016593E+00  0.88000000000E+00 0.  1.
        -11    1    4    4    0    0  0.94209294268E-02  0.52485742110E-01  0.44362165841E-01  0.69366922342E-01  0.51100000000E-03 0.  1.
         11    1    4    4    0    0  0.25017215844E-01  0.38055497596E-01  0.42051110174E-01  0.61989023010E-01  0.51100000000E-03 0. -1.
</event>
<event>
 8    1  0.1063984E+005  0.1043930E+01  0.7957747E-01            NaN
         13   -1    0    0    0    0  0.00000000000E+00  0.00000000000E+00  0.74505805969E-08  0.10566000000E+00  0.10566000000E+00 0. -1.
     999900   -1    0    0    0    0 -0.00000000000E+00 -0.00000000000E+00 -0.74505805969E-08  0.93827000000E+00  0.93827000000E+00 0.  1.
     999902    2    1    2    0    0 -0.44051575266E-02 -0.18910702104E-01 -0.12472608881E-01  0.10208521743E+01  0.10205912873E+01 0.  0.
     999903    2    3    3    0    0 -0.12546171670E-01 -0.69963023530E-01  0.10844681327E+00  0.13108022470E+00  0.19211530742E-01 0.  0.
         14    1    1    2    0    0  0.44051575266E-02  0.18910702104E-01  0.12472608881E-01  0.23077825703E-01  0.00000000000E+00 0. -1.
     999901    1    3    3    0    0  0.81410141438E-02  0.51052321427E-01 -0.12091942215E+00  0.88977194960E+00  0.88000000000E+00 0.  1.
        -11    1    4    4    0    0 -0.45142226753E-02 -0.29345354129E-01  0.29086688115E-01  0.41567109135E-01  0.51100000000E-03 0. -1.
         11    1    4    4    0    0 -0.80319489950E-02 -0.40617669402E-01  0.79360125158E-01  0.89513115566E-01  0.51100000000E-03 0.  1.
</event>
<event>
 8    1  0.1063984E+005  0.1043930E+01  0.7957747E-01            NaN
         13   -1    0    0    0    0  0.00000000000E+00  0.00000000000E+00  0.74505805969E-08  0.10566000000E+00  0.10566000000E+00 0.  1.
     999900   -1    0    0    0    0 -0.00000000000E+00 -0.00000000000E+00 -0.74505805969E-08  0.93827000000E+00  0.93827000000E+00 0. -1.
     999902    2    1    2    0    0 -0.45564766070E-02 -0.24070733019E-01 -0.48742053146E-02  0.10189516185E+01  0.10186454149E+01 0.  0.
     999903    2    3    3    0    0 -0.94262372540E-01 -0.87769617826E-01 -0.20381639975E-01  0.13196504797E+00  0.20259860499E-01 0.  0.
         14    1    1    2    0    0  0.45564766070E-02  0.24070733019E-01  0.48742053146E-02  0.24978381545E-01  0.00000000000E+00 0.  1.
     999901    1    3    3    0    0  0.89705895933E-01  0.63698884807E-01  0.15507434660E-01  0.88698657048E+00  0.88000000000E+00 0. -1.
        -11    1    4    4    0    0 -0.59268221977E-01 -0.42520277041E-01 -0.75114207046E-02  0.73330612011E-01  0.51100000000E-03 0.  1.
         11    1    4    4    0    0 -0.34994150563E-01 -0.45249340786E-01 -0.12870219270E-01  0.58634435959E-01  0.51100000000E-03 0. -1.
</event>
<event>
 8    1  0.1063984E+005  0.1043930E+01  0.7957747E-01            NaN
         13   -1    0    0    0    0  0.00000000000E+00  0.00000000000E+00  0.74505805969E-08  0.10566000000E+00  0.10566000000E+00 0. -1.
     999900   -1    0    0    0    0 -0.00000000000E+00 -0.00000000000E+00 -0.74505805969E-08  0.93827000000E+00  0.93827000000E+00 0.  1.
     999902    2    1    2    0    0  0.34178986645E-02 -0.13741975456E-01 -0.18598124317E-01  0.10205544968E+01  0.10202867572E+01 0.  0.
     999903    2    3    3    0    0  0.82050927879E-01  0.58067329015E-01  0.77219106264E-01  0.12897125833E+00  0.23803899620E-01 0.  0.
         14    1    1    2    0    0 -0.34178986645E-02  0.13741975456E-01  0.18598124317E-01  0.23375503178E-01  0.00000000000E+00 0. -1.
     999901    1    3    3    0    0 -0.78633029215E-01 -0.71809304471E-01 -0.95817230581E-01  0.89158323850E+00  0.88000000000E+00 0.  1.
        -11    1    4    4    0    0  0.33893654534E-01  0.33259346703E-01  0.24742101427E-01  0.53548078068E-01  0.51100000000E-03 0. -1.
         11    1    4    4    0    0  0.48157273346E-01  0.24807982312E-01  0.52477004837E-01  0.75423180258E-01  0.51100000000E-03 0.  1.
</event>
<event>
 8    1  0.1063984E+005  0.1043930E+01  0.7957747E-01            NaN
         13   -1    0    0    0    0  0.00000000000E+00  0.00000000000E+00  0.74505805969E-08  0.10566000000E+00  0.10566000000E+00 0. -1.
     999900   -1    0    0    0    0 -0.00000000000E+00 -0.00000000000E+00 -0.74505805969E-08  0.93827000000E+00  0.93827000000E+00 0. -1.
     999902    2    1    2    0    0  0.10636434566E-02 -0.10415260909E-01 -0.21199555014E-01  0.10202861820E+01  0.10200121877E+01 0.  0.
     999903    2    3    3    0    0  0.81076082837E-01 -0.97018608032E-01  0.27697401525E-01  0.13107695884E+00  0.20690132276E-01 0.  0.
         14    1    1    2    0    0 -0.10636434566E-02  0.10415260909E-01  0.21199555014E-01  0.23643818008E-01  0.00000000000E+00 0. -1.
     999901    1    3    3    0    0 -0.80012439380E-01  0.86603347124E-01 -0.48896956539E-01  0.88920922316E+00  0.88000000000E+00 0. -1.
        -11    1    4    4    0    0  0.28746217269E-01 -0.28919019154E-01 -0.18520797218E-03  0.40779285172E-01  0.51100000000E-03 0.  1.
         11    1    4    4    0    0  0.52329865568E-01 -0.68099588878E-01  0.27882609497E-01  0.90297673664E-01  0.51100000000E-03 0. -1.
</event>
<event>
 8    1  0.1063984E+005  0.1043930E+01  0.7957747E-01            NaN
         13   -1    0    0    0    0  0.00000000000E+00  0.00000000000E+00  0.74505805969E-08  0.10566000000E+00  0.10566000000E+00 0. -1.
     999900   -1    0    0    0    0 -0.00000000000E+00 -0.00000000000E+00 -0.74505805969E-08  0.93827000000E+00  0.93827000000E+00 0. -1.
     999902    2    1    2    0    0  0.37451261684E-02 -0.22398649394E-01 -0.69421615498E-02  0.10201830197E+01  0.10199066010E+01 0.  0.
     999903    2    3    3    0    0 -0.31304075107E-01 -0.12419931219E+00  0.29197864322E-01  0.13288491711E+00  0.20011787691E-01 0.  0.
         14    1    1    2    0    0 -0.37451261684E-02  0.22398649394E-01  0.69421615498E-02  0.23746980265E-01  0.00000000000E+00 0.  1.
     999901    1    3    3    0    0  0.35049201276E-01  0.10180066280E+00 -0.36140025872E-01  0.88729810263E+00  0.88000000000E+00 0.  1.
        -11    1    4    4    0    0 -0.29070200231E-01 -0.12051005606E+00  0.24278644707E-01  0.12632285567E+00  0.51100000000E-03 0.  1.
         11    1    4    4    0    0 -0.22338748767E-02 -0.36892561279E-02  0.49192196146E-02  0.65620614413E-02  0.51100000000E-03 0. -1.
</event>
<event>
 8    1  0.1063984E+005  0.1043930E+01  0.7957747E-01            NaN
         13   -1    0    0    0    0  0.00000000000E+00  0.00000000000E+00  0.74505805969E-08  0.10566000000E+00  0.10566000000E+00 0.  1.
     999900   -1    0    0    0    0 -0.00000000000E+00 -0.00000000000E+00 -0.74505805969E-08  0.93827000000E+00  0.93827000000E+00 0.  1.
     999902    2    1    2    0    0  0.19962445030E-01 -0.11498628872E-01 -0.67381361958E-02  0.10199274969E+01  0.10196450258E+01 0.  0.
     999903    2    3    3    0    0 -0.52114497393E-02  0.48276303436E-01  0.11739246132E+00  0.12885220669E+00  0.21543920569E-01 0.  0.
         14    1    1    2    0    0 -0.19962445030E-01  0.11498628872E-01  0.67381361958E-02  0.24002503138E-01  0.00000000000E+00 0.  1.
     999901    1    3    3    0    0  0.25173894769E-01 -0.59774932308E-01 -0.12413059751E+00  0.89107529017E+00  0.88000000000E+00 0.  1.
        -11    1    4    4    0    0  0.60062022416E-02  0.65234411661E-02  0.30957084940E-01  0.32206086055E-01  0.51100000000E-03 0. -1.
         11    1    4    4    0    0 -0.11217651981E-01  0.41752862270E-01  0.86435376378E-01  0.96646120637E-01  0.51100000000E-03 0.  1.
</event>
<event>
 8    1  0.1063984E+005  0.1043930E+01  0.7957747E-01            NaN
         13   -1    0    0    0    0  0.00000000000E+00  0.00000000000E+00  0.74505805969E-08  0.10566000000E+00  0.10566000000E+00 0.  1.
     999900   -1    0    0    0    0 -0.00000000000E+00 -0.00000000000E+00 -0.74505805969E-08  0.93827000000E+00  0.93827000000E+00 0.  1.
     999902    2    1    2    0    0  0.11768986246E-01 -0.16049212085E-03  0.20687486363E-01  0.10201285949E+01  0.10198508926E+01 0.  0.
     999903    2    3    3    0    0  0.11038068164E+00  0.15971551650E-01 -0.61156216282E-01  0.13070018235E+00  0.30057769961E-01 0.  0.
         14    1    1    2    0    0 -0.11768986246E-01  0.16049212085E-03 -0.20687486363E-01  0.23801405147E-01  0.00000000000E+00 0. -1.
     999901    1    3    3    0    0 -0.98611695394E-01 -0.16132043771E-01  0.81843702645E-01  0.88942841250E+00  0.88000000000E+00 0. -1.
        -11    1    4    4    0    0  0.61700923479E-01  0.22047169696E-01 -0.26728253214E-01  0.70765403204E-01  0.51100000000E-03 0. -1.
         11    1    4    4    0    0  0.48679758161E-01 -0.60756180463E-02 -0.34427963068E-01  0.59934779145E-01  0.51100000000E-03 0.  1.
</event>
<event>
 8    1  0.1063984E+005  0.1043930E+01  0.7957747E-01            NaN
         13   -1    0    0    0    0  0.00000000000E+00  0.00000000000E+00  0.74505805969E-08  0.10566000000E+00  0.10566000000E+00 0.  1.
     999900   -1    0    0    0    0 -0.00000000000E+00 -0.00000000000E+00 -0.74505805969E-08  0.93827000000E+00  0.93827000000E+00 0.  1.
     999902    2    1    2    0    0  0.19645921017E-01 -0.28798808390E-02 -0.10341126003E-01  0.10215426193E+01  0.10212972771E+01 0.  0.
     999903    2    3    3    0    0 -0.75157763747E-01 -0.10443916687E+00 -0.10781733134E-01  0.13064294969E+00  0.19877261089E-01 0.  0.
         14    1    1    2    0    0 -0.19645921017E-01  0.28798808390E-02  0.10341126003E-01  0.22387380670E-01  0.00000000000E+00 0.  1.
     999901    1    3    3    0    0  0.94803684764E-01  0.10155928603E+00  0.44060713113E-03  0.89089966964E+00  0.88000000000E+00 0.  1.
        -11    1    4    4    0    0 -0.60448848159E-01 -0.90478555313E-01 -0.28222475193E-02  0.10885154302E+00  0.51100000000E-03 0. -1.
         11    1    4    4    0    0 -0.14708915588E-01 -0.13960611552E-01 -0.79594856144E-02  0.21791406676E-01  0.51100000000E-03 0.  1.
</event>
<event>
 8    1  0.1063984E+005  0.1043930E+01  0.7957747E-01            NaN
         13   -1    0    0    0    0  0.00000000000E+00  0.00000000000E+00  0.74505805969E-08  0.10566000000E+00  0.10566000000E+00 0.  1.
     999900   -1    0    0    0    0 -0.00000000000E+00 -0.00000000000E+00 -0.74505805969E-08  0.93827000000E+00  0.93827000000E+00 0. -1.
     999902    2    1    2    0    0  0.20133556347E-01  0.10885084531E-01  0.67100073647E-02  0.10200790177E+01  0.10198001437E+01 0.  0.
     999903    2    3    3    0    0 -0.56831681842E-01  0.73093858300E-01 -0.88179439952E-01  0.12946260948E+00  0.20307669538E-01 0.  0.
         14    1    1    2    0    0 -0.20133556347E-01 -0.10885084531E-01 -0.67100073647E-02  0.23850982270E-01  0.00000000000E+00 0. -1.
     999901    1    3    3    0    0  0.76965238189E-01 -0.62208773769E-01  0.94889447317E-01  0.89061640825E+00  0.88000000000E+00 0.  1.
        -11    1    4    4    0    0 -0.77013155184E-02  0.11409736425E-01 -0.45300557115E-02  0.14500857622E-01  0.51100000000E-03 0. -1.
         11    1    4    4    0    0 -0.49130366324E-01  0.61684121875E-01 -0.83649384241E-01  0.11496175186E+00  0.51100000000E-03 0.  1.
</event>
<event>
 8    1  0.1063984E+005  0.1043930E+01  0.7957747E-01            NaN
         13   -1    0    0    0    0  0.00000000000E+00  0.00000000000E+00  0.74505805969E-08  0.10566000000E+00  0.10566000000E+00 0. -1.
     999900   -1    0    0    0    0 -0.00000000000E+00 -0.00000000000E+00 -0.74505805969E-08  0.93827000000E+00  0.93827000000E+00 0.  1.
     999902    2    1    2    0    0  0.71208098285E-03 -0.24120495220E-01  0.30186664311E-02  0.10196109191E+01  0.10193208566E+01 0.  0.
     999903    2    3    3    0    0  0.30569408316E-01  0.48925132398E-01  0.11382464971E+00  0.12915873642E+00  0.19944197311E-01 0.  0.
         14    1    1    2    0    0 -0.71208098285E-03  0.24120495220E-01 -0.30186664311E-02  0.24319080904E-01  0.00000000000E+00 0.  1.
     999901    1    3    3    0    0 -0.29857327334E-01 -0.73045627618E-01 -0.11080598328E+00  0.89045218268E+00  0.88000000000E+00 0.  1.
        -11    1    4    4    0    0  0.13646905249E-01  0.38898268065E-01  0.81017191739E-01  0.90903023930E-01  0.51100000000E-03 0. -1.
         11    1    4    4    0    0  0.16922503067E-01  0.10026864333E-01  0.32807457970E-01  0.38255712487E-01  0.51100000000E-03 0.  1.
</event>
<event>
 8    1  0.1063984E+005  0.1043930E+01  0.7957747E-01            NaN
         13   -1    0    0    0    0  0.00000000000E+00  0.00000000000E+00  0.74505805969E-08  0.10566000000E+00  0.10566000000E+00 0. -1.
     999900   -1    0    0    0    0 -0.00000000000E+00 -0.00000000000E+00 -0.74505805969E-08  0.93827000000E+00  0.93827000000E+00 0.  1.
     999902    2    1    2    0    0  0.21998036878E-02  0.23022726092E-01  0.12184657716E-02  0.10207703430E+01  0.10205075813E+01 0.  0.
     999903    2    3    3    0    0  0.60476393351E-01 -0.10910496486E+00  0.24821599960E-01  0.12868795020E+00  0.19575218824E-01 0.  0.
         14    1    1    2    0    0 -0.21998036878E-02 -0.23022726092E-01 -0.12184657716E-02  0.23159656988E-01  0.00000000000E+00 0. -1.
     999901    1    3    3    0    0 -0.58276589664E-01  0.13212769095E+00 -0.23603134189E-01  0.89208239281E+00  0.88000000000E+00 0.  1.
        -11    1    4    4    0    0  0.49878593096E-01 -0.94715691262E-01  0.14448046044E-01  0.10801825483E+00  0.51100000000E-03 0.  1.
         11    1    4    4    0    0  0.10597800255E-01 -0.14389273600E-01  0.10373553916E-01  0.20669695374E-01  0.51100000000E-03 0. -1.
</event>
<event>
 8    1  0.1063984E+005  0.1043930E+01  0.7957747E-01            NaN
         13   -1    0    0    0    0  0.00000000000E+00  0.00000000000E+00  0.74505805969E-08  0.10566000000E+00  0.10566000000E+00 0.  1.
     999900   -1    0    0    0    0 -0.00000000000E+00 -0.00000000000E+00 -0.74505805969E-08  0.93827000000E+00  0.93827000000E+00 0.  1.
     999902    2    1    2    0    0  0.53186221983E-02 -0.75789118927E-02  0.22088262573E-01  0.10199796557E+01  0.10196984256E+01 0.  0.
     999903    2    3    3    0    0 -0.63855311265E-02 -0.13769175636E-01  0.13043244372E+00  0.13323630607E+00  0.22559381057E-01 0.  0.
         14    1    1    2    0    0 -0.53186221983E-02  0.75789118927E-02 -0.22088262573E-01  0.23950344278E-01  0.00000000000E+00 0. -1.
     999901    1    3    3    0    0  0.11704153325E-01  0.61902637435E-02 -0.10834418115E+00  0.88674334966E+00  0.88000000000E+00 0.  1.
        -11    1    4    4    0    0  0.59598700391E-02  0.13259637804E-02  0.54294460218E-01  0.54639068094E-01  0.51100000000E-03 0.  1.
         11    1    4    4    0    0 -0.12345401166E-01 -0.15095139417E-01  0.76137983503E-01  0.78597237972E-01  0.51100000000E-03 0. -1.
</event>
<event>
 8    1  0.1063984E+005  0.1043930E+01  0.7957747E-01            NaN
         13   -1    0    0    0    0  0.00000000000E+00  0.00000000000E+00  0.74505805969E-08  0.10566000000E+00  0.10566000000E+00 0.  1.
     999900   -1    0    0    0    0 -0.00000000000E+00 -0.00000000000E+00 -0.74505805969E-08  0.93827000000E+00  0.93827000000E+00 0.  1.
     999902    2    1    2    0    0 -0.13792490746E-01  0.11095960617E-01  0.16245061369E-01  0.10199038650E+01  0.10196208309E+01 0.  0.
     999903    2    3    3    0    0  0.40177288179E-01  0.11764009352E+00  0.38001866782E-01  0.13156961044E+00  0.20322756266E-01 0.  0.
         14    1    1    2    0    0  0.13792490746E-01 -0.11095960617E-01 -0.16245061369E-01  0.24026134976E-01  0.00000000000E+00 0. -1.
     999901    1    3    3    0    0 -0.53969778926E-01 -0.10654413290E+00 -0.21756805413E-01  0.88833425459E+00  0.88000000000E+00 0. -1.
        -11    1    4    4    0    0  0.47801606074E-02  0.34333976816E-01  0.17168692229E-01  0.38687168587E-01  0.51100000000E-03 0.  1.
         11    1    4    4    0    0  0.35397127572E-01  0.83306116705E-01  0.20833174553E-01  0.92882441848E-01  0.51100000000E-03 0. -1.
</event>
<event>
 8    1  0.1063984E+005  0.1043930E+01  0.7957747E-01            NaN
         13   -1    0    0    0    0  0.00000000000E+00  0.00000000000E+00  0.74505805969E-08  0.10566000000E+00  0.10566000000E+00 0. -1.
     999900   -1    0    0    0    0 -0.00000000000E+00 -0.00000000000E+00 -0.74505805969E-08  0.93827000000E+00  0.93827000000E+00 0.  1.
     999902    2    1    2    0    0  0.20894578227E-01  0.11312937506E-01 -0.13303633112E-01  0.10166985364E+01  0.10163337844E+01 0.  0.
     999903    2    3    3    0    0 -0.76638655725E-01  0.39645752479E-01 -0.91695447192E-01  0.12739501308E+00  0.19394975644E-01 0.  0.
         14    1    1    2    0    0 -0.20894578227E-01 -0.11312937506E-01  0.13303633112E-01  0.27231463572E-01  0.00000000000E+00 0. -1.
     999901    1    3    3    0    0  0.97533233952E-01 -0.28332814974E-01  0.78391814080E-01  0.88930352335E+00  0.88000000000E+00 0. -1.
        -11    1    4    4    0    0 -0.32812779918E-01  0.23162861345E-01 -0.31016782813E-01  0.50749370525E-01  0.51100000000E-03 0.  1.
         11    1    4    4    0    0 -0.43825875807E-01  0.16482891135E-01 -0.60678664379E-01  0.76645642552E-01  0.51100000000E-03 0. -1.
</event>
<event>
 8    1  0.1063984E+005  0.1043930E+01  0.7957747E-01            NaN
         13   -1    0    0    0    0  0.00000000000E+00  0.00000000000E+00  0.74505805969E-08  0.10566000000E+00  0.10566000000E+00 0. -1.
     999900   -1    0    0    0    0 -0.00000000000E+00 -0.00000000000E+00 -0.74505805969E-08  0.93827000000E+00  0.93827000000E+00 0. -1.
     999902    2    1    2    0    0  0.14629408856E-01  0.17976527759E-01 -0.58703636922E-02  0.10200210828E+01  0.10197408362E+01 0.  0.
     999903    2    3    3    0    0  0.26218553958E-01  0.73568185279E-01  0.10367784568E+00  0.13141231010E+00  0.20503880245E-01 0.  0.
         14    1    1    2    0    0 -0.14629408856E-01 -0.17976527759E-01  0.58703636922E-02  0.23908917241E-01  0.00000000000E+00 0.  1.
     999901    1    3    3    0    0 -0.11589145102E-01 -0.55591657520E-01 -0.10954820937E+00  0.88860877266E+00  0.88000000000E+00 0. -1.
        -11    1    4    4    0    0  0.17851123514E-02  0.33873534060E-01  0.39056573492E-01  0.51732774812E-01  0.51100000000E-03 0. -1.
         11    1    4    4    0    0  0.24433441606E-01  0.39694651220E-01  0.64621272184E-01  0.79679535289E-01  0.51100000000E-03 0.  1.
</event>
<event>
 8    1  0.1063984E+005  0.1043930E+01  0.7957747E-01            NaN
         13   -1    0    0    0    0  0.00000000000E+00  0.00000000000E+00  0.74505805969E-08  0.10566000000E+00  0.10566000000E+00 0. -1.
     999900   -1    0    0    0    0 -0.00000000000E+00 -0.00000000000E+00 -0.74505805969E-08  0.93827000000E+00  0.93827000000E+00 0.  1.
     999902    2    1    2    0    0 -0.31081288027E-04 -0.16451398279E-01  0.18278091318E-01  0.10193385768E+01  0.10190419011E+01 0.  0.
     999903    2    3    3    0    0  0.57178260632E-01  0.49072001213E-01 -0.10051893074E+00  0.12710600786E+00  0.19351149947E-01 0.  0.
         14    1    1    2    0    0  0.31081288027E-04  0.16451398279E-01 -0.18278091318E-01  0.24591423172E-01  0.00000000000E+00 0.  1.
     999901    1    3    3    0    0 -0.57209341920E-01 -0.65523399492E-01  0.11879702206E+00  0.89223256897E+00  0.88000000000E+00 0. -1.
        -11    1    4    4    0    0  0.19026783193E-01  0.22918083350E-01 -0.26779737483E-01  0.40058363469E-01  0.51100000000E-03 0.  1.
         11    1    4    4    0    0  0.38151477439E-01  0.26153917862E-01 -0.73739193257E-01  0.87047644388E-01  0.51100000000E-03 0. -1.
</event>
<event>
 8    1  0.1063984E+005  0.1043930E+01  0.7957747E-01            NaN
         13   -1    0    0    0    0  0.00000000000E+00  0.00000000000E+00  0.74505805969E-08  0.10566000000E+00  0.10566000000E+00 0. -1.
     999900   -1    0    0    0    0 -0.00000000000E+00 -0.00000000000E+00 -0.74505805969E-08  0.93827000000E+00  0.93827000000E+00 0.  1.
     999902    2    1    2    0    0  0.18031343766E-01  0.11108939200E-01 -0.17404821353E-02  0.10226798902E+01  0.10224590900E+01 0.  0.
     999903    2    3    3    0    0  0.75823358372E-01 -0.80998595706E-01  0.70752986204E-01  0.13302882496E+00  0.19512279031E-01 0.  0.
         14    1    1    2    0    0 -0.18031343766E-01 -0.11108939200E-01  0.17404821353E-02  0.21250109793E-01  0.00000000000E+00 0. -1.
     999901    1    3    3    0    0 -0.57792014606E-01  0.92107534906E-01 -0.72493468339E-01  0.88965106524E+00  0.88000000000E+00 0. -1.
        -11    1    4    4    0    0  0.24718260552E-01 -0.34853208975E-01  0.36118877862E-01  0.55951524015E-01  0.51100000000E-03 0. -1.
         11    1    4    4    0    0  0.51105097819E-01 -0.46145386731E-01  0.34634108342E-01  0.77077300947E-01  0.51100000000E-03 0.  1.
</event>
<event>
 8    1  0.1063984E+005  0.1043930E+01  0.7957747E-01            NaN
         13   -1    0    0    0    0  0.00000000000E+00  0.00000000000E+00  0.74505805969E-08  0.10566000000E+00  0.10566000000E+00 0. -1.
     999900   -1    0    0    0    0 -0.00000000000E+00 -0.00000000000E+00 -0.74505805969E-08  0.93827000000E+00  0.93827000000E+00 0.  1.
     999902    2    1    2    0    0  0.53517338097E-03  0.23170788276E-01  0.35040363499E-02  0.10204896478E+01  0.10202204032E+01 0.  0.
     999903    2    3    3    0    0 -0.74131972621E-01 -0.90266431609E-01  0.46154238040E-01  0.12905135760E+00  0.29672565951E-01 0.  0.
         14    1    1    2    0    0 -0.53517338097E-03 -0.23170788276E-01 -0.35040363499E-02  0.23440352187E-01  0.00000000000E+00 0.  1.
     999901    1    3    3    0    0  0.74667146002E-01  0.11343721989E+00 -0.42650201690E-01  0.89143829021E+00  0.88000000000E+00 0.  1.
        -11    1    4    4    0    0 -0.51468568217E-01 -0.62330897747E-01  0.46136467105E-01  0.93075179539E-01  0.51100000000E-03 0.  1.
         11    1    4    4    0    0 -0.22663404404E-01 -0.27935533862E-01  0.17770935180E-04  0.35976178065E-01  0.51100000000E-03 0. -1.
</event>
<event>
 8    1  0.1063984E+005  0.1043930E+01  0.7957747E-01            NaN
         13   -1    0    0    0    0  0.00000000000E+00  0.00000000000E+00  0.74505805969E-08  0.10566000000E+00  0.10566000000E+00 0. -1.
     999900   -1    0    0    0    0 -0.00000000000E+00 -0.00000000000E+00 -0.74505805969E-08  0.93827000000E+00  0.93827000000E+00 0.  1.
     999902    2    1    2    0    0 -0.13685886969E-01 -0.15726516378E-02  0.13491488317E-01  0.10246479619E+01  0.10244665192E+01 0.  0.
     999903    2    3    3    0    0 -0.21439679584E-02 -0.11284693367E+00 -0.68935851100E-01  0.13374423648E+00  0.19908344630E-01 0.  0.
         14    1    1    2    0    0  0.13685886969E-01  0.15726516378E-02 -0.13491488317E-01  0.19282038075E-01  0.00000000000E+00 0.  1.
     999901    1    3    3    0    0 -0.11541919011E-01  0.11127428203E+00  0.82427339417E-01  0.89090372545E+00  0.88000000000E+00 0. -1.
        -11    1    4    4    0    0 -0.72083050270E-02 -0.63190533250E-01 -0.29406935342E-01  0.70071621367E-01  0.51100000000E-03 0. -1.
         11    1    4    4    0    0  0.50643370686E-02 -0.49656400421E-01 -0.39528915758E-01  0.63672615108E-01  0.51100000000E-03 0.  1.
</event>
<event>
 8    1  0.1063984E+005  0.1043930E+01  0.7957747E-01            NaN
         13   -1    0    0    0    0  0.00000000000E+00  0.00000000000E+00  0.74505805969E-08  0.10566000000E+00  0.10566000000E+00 0.  1.
     999900   -1    0    0    0    0 -0.00000000000E+00 -0.00000000000E+00 -0.74505805969E-08  0.93827000000E+00  0.93827000000E+00 0.  1.
     999902    2    1    2    0    0 -0.22247856130E-01  0.39409294467E-02 -0.13053802448E-02  0.10212981188E+01  0.10210473277E+01 0.  0.
     999903    2    3    3    0    0 -0.33821671026E-01  0.12599783307E+00  0.12695365738E-01  0.13268804586E+00  0.20629731776E-01 0.  0.
         14    1    1    2    0    0  0.22247856130E-01 -0.39409294467E-02  0.13053802448E-02  0.22631881160E-01  0.00000000000E+00 0. -1.
     999901    1    3    3    0    0  0.11573814896E-01 -0.12205690362E+00 -0.14000745983E-01  0.88861007298E+00  0.88000000000E+00 0.  1.
        -11    1    4    4    0    0 -0.21887787042E-01  0.56754005390E-01 -0.21578755544E-02  0.60868792474E-01  0.51100000000E-03 0.  1.
         11    1    4    4    0    0 -0.11933883984E-01  0.69243827681E-01  0.14853241292E-01  0.71819253385E-01  0.51100000000E-03 0. -1.
</event>
<event>
 8    1  0.1063984E+005  0.1043930E+01  0.7957747E-01            NaN
         13   -1    0    0    0    0  0.00000000000E+00  0.00000000000E+00  0.74505805969E-08  0.10566000000E+00  0.10566000000E+00 0.  1.
     999900   -1    0    0    0    0 -0.00000000000E+00 -0.00000000000E+00 -0.74505805969E-08  0.93827000000E+00  0.93827000000E+00 0. -1.
     999902    2    1    2    0    0  0.12503251793E-01  0.14515363160E-02  0.20467906361E-01  0.10199014034E+01  0.10196183106E+01 0.  0.
     999903    2    3    3    0    0  0.27343504931E-01 -0.11866474273E+00  0.44901793077E-01  0.13128159246E+00  0.19740746388E-01 0.  0.
         14    1    1    2    0    0 -0.12503251793E-01 -0.14515363160E-02 -0.20467906361E-01  0.24028596585E-01  0.00000000000E+00 0. -1.
     999901    1    3    3    0    0 -0.14840253139E-01  0.12011627904E+00 -0.24433886717E-01  0.88861981096E+00  0.88000000000E+00 0.  1.
        -11    1    4    4    0    0  0.22034935242E-01 -0.68905777335E-01  0.34578246837E-01  0.80183918566E-01  0.51100000000E-03 0. -1.
         11    1    4    4    0    0  0.53085696893E-02 -0.49758965393E-01  0.10323546240E-01  0.51097673892E-01  0.51100000000E-03 0.  1.
</event>
<event>
 8    1  0.1166925E+005  0.1043930E+01  0.7957747E-01            NaN
         13   -1    0    0    0    0  0.00000000000E+00  0.00000000000E+00  0.74505805969E-08  0.10566000000E+00  0.10566000000E+00 0. -1.
     999900   -1    0    0    0    0 -0.00000000000E+00 -0.00000000000E+00 -0.74505805969E-08  0.93827000000E+00  0.93827000000E+00 0. -1.
     999902    2    1    2    0    0 -0.58692716687E-02  0.17095861516E-01  0.17417947223E-01  0.10188281730E+01  0.10185188975E+01 0.  0.
     999903    2    3    3    0    0 -0.31337772440E-01 -0.75746475132E-01  0.98603891679E-01  0.12986276226E+00  0.20543249256E-01 0.  0.
         14    1    1    2    0    0  0.58692716687E-02 -0.17095861516E-01 -0.17417947223E-01  0.25101826953E-01  0.00000000000E+00 0.  1.
     999901    1    3    3    0    0  0.25468500771E-01  0.92842336649E-01 -0.81185944456E-01  0.88896541079E+00  0.88000000000E+00 0.  1.
        -11    1    4    4    0    0 -0.29079794850E-01 -0.45583984050E-01  0.67285390030E-01  0.86319863895E-01  0.51100000000E-03 0. -1.
         11    1    4    4    0    0 -0.22579775893E-02 -0.30162491083E-01  0.31318501649E-01  0.43542898361E-01  0.51100000000E-03 0.  1.
</event>
<event>
 8    1  0.1063984E+005  0.1043930E+01  0.7957747E-01            NaN
         13   -1    0    0    0    0  0.00000000000E+00  0.00000000000E+00  0.74505805969E-08  0.10566000000E+00  0.10566000000E+00 0. -1.
     999900   -1    0    0    0    0 -0.00000000000E+00 -0.00000000000E+00 -0.74505805969E-08  0.93827000000E+00  0.93827000000E+00 0. -1.
     999902    2    1    2    0    0  0.33737082404E-02 -0.22066775159E-01 -0.63176821074E-02  0.10207300521E+01  0.10204663648E+01 0.  0.
     999903    2    3    3    0    0  0.84435720473E-02 -0.12839357874E+00 -0.25960344524E-01  0.13409770057E+00  0.27423508883E-01 0.  0.
         14    1    1    2    0    0 -0.33737082404E-02  0.22066775159E-01  0.63176821074E-02  0.23199947854E-01  0.00000000000E+00 0. -1.
     999901    1    3    3    0    0 -0.50698638069E-02  0.10632680358E+00  0.19642662416E-01  0.88663235158E+00  0.88000000000E+00 0.  1.
        -11    1    4    4    0    0  0.93056855517E-02 -0.80330423519E-01 -0.32623293002E-02  0.80935014918E-01  0.51100000000E-03 0.  1.
         11    1    4    4    0    0 -0.86211350435E-03 -0.48063155220E-01 -0.22698015223E-01  0.53162685649E-01  0.51100000000E-03 0. -1.
</event>
<event>
 8    1  0.1247494E+005  0.1043930E+01  0.7957747E-01            NaN
         13   -1    0    0    0    0  0.00000000000E+00  0.00000000000E+00  0.74505805969E-08  0.10566000000E+00  0.10566000000E+00 0.  1.
     999900   -1    0    0    0    0 -0.00000000000E+00 -0.00000000000E+00 -0.74505805969E-08  0.93827000000E+00  0.93827000000E+00 0. -1.
     999902    2    1    2    0    0  0.64216246505E-02 -0.15215761885E-01  0.16668500446E-01  0.10204652268E+01  0.10201954144E+01 0.  0.
     999903    2    3    3    0    0 -0.12073747094E+00  0.25274411312E-01 -0.32523433805E-01  0.12904572058E+00  0.19459997404E-01 0.  0.
         14    1    1    2    0    0 -0.64216246505E-02  0.15215761885E-01 -0.16668500446E-01  0.23464773172E-01  0.00000000000E+00 0. -1.
     999901    1    3    3    0    0  0.12715909559E+00 -0.40490173197E-01  0.49191934251E-01  0.89141950624E+00  0.88000000000E+00 0.  1.
        -11    1    4    4    0    0 -0.37434683210E-01  0.12715583116E-01 -0.25278211862E-02  0.39619345805E-01  0.51100000000E-03 0.  1.
         11    1    4    4    0    0 -0.83302787727E-01  0.12558828197E-01 -0.29995612619E-01  0.89426374779E-01  0.51100000000E-03 0. -1.
</event>
<event>
 8    1  0.1063984E+005  0.1043930E+01  0.7957747E-01            NaN
         13   -1    0    0    0    0  0.00000000000E+00  0.00000000000E+00  0.74505805969E-08  0.10566000000E+00  0.10566000000E+00 0. -1.
     999900   -1    0    0    0    0 -0.00000000000E+00 -0.00000000000E+00 -0.74505805969E-08  0.93827000000E+00  0.93827000000E+00 0.  1.
     999902    2    1    2    0    0  0.13697773923E-01  0.45604853730E-02  0.17803255779E-01  0.10210087663E+01  0.10207514477E+01 0.  0.
     999903    2    3    3    0    0 -0.58404679441E-01 -0.10367103138E-01 -0.11229467248E+00  0.12840187209E+00  0.18930501327E-01 0.  0.
         14    1    1    2    0    0 -0.13697773923E-01 -0.45604853730E-02 -0.17803255779E-01  0.22921233684E-01  0.00000000000E+00 0.  1.
     999901    1    3    3    0    0  0.72102453364E-01  0.14927588511E-01  0.13009792826E+00  0.89260689422E+00  0.88000000000E+00 0. -1.
        -11    1    4    4    0    0 -0.87825619446E-02  0.50602859718E-02 -0.15242236210E-01  0.18311929830E-01  0.51100000000E-03 0. -1.
         11    1    4    4    0    0 -0.49622117497E-01 -0.15427389110E-01 -0.97052436272E-01  0.11008994226E+00  0.51100000000E-03 0.  1.
</event>
<event>
 8    1  0.1063984E+005  0.1043930E+01  0.7957747E-01            NaN
         13   -1    0    0    0    0  0.00000000000E+00  0.00000000000E+00  0.74505805969E-08  0.10566000000E+00  0.10566000000E+00 0. -1.
     999900   -1    0    0    0    0 -0.00000000000E+00 -0.00000000000E+00 -0.74505805969E-08  0.93827000000E+00  0.93827000000E+00 0. -1.
     999902    2    1    2    0    0 -0.16510298793E-01 -0.15961948154E-01 -0.32076304499E-02  0.10207424463E+01  0.10204790439E+01 0.  0.
     999903    2    3    3    0    0  0.33698269287E-01  0.27255504871E-01  0.12037882262E+00  0.12964073493E+00  0.20909885720E-01 0.  0.
         14    1    1    2    0    0  0.16510298793E-01  0.15961948154E-01  0.32076304499E-02  0.23187553735E-01  0.00000000000E+00 0.  1.
     999901    1    3    3    0    0 -0.50208568081E-01 -0.43217453025E-01 -0.12358645307E+00  0.89110171133E+00  0.88000000000E+00 0. -1.
        -11    1    4    4    0    0  0.34904550834E-02  0.48629075047E-02  0.37100079113E-02  0.70609082837E-02  0.51100000000E-03 0.  1.
         11    1    4    4    0    0  0.30207814204E-01  0.22392597366E-01  0.11666881471E+00  0.12257982665E+00  0.51100000000E-03 0. -1.
</event>
<event>
 8    1  0.1063984E+005  0.1043930E+01  0.7957747E-01            NaN
         13   -1    0    0    0    0  0.00000000000E+00  0.00000000000E+00  0.74505805969E-08  0.10566000000E+00  0.10566000000E+00 0. -1.
     999900   -1    0    0    0    0 -0.00000000000E+00 -0.00000000000E+00 -0.74505805969E-08  0.93827000000E+00  0.93827000000E+00 0. -1.
     999902    2    1    2    0    0  0.12343617842E-02 -0.89014042221E-04 -0.22090139734E-01  0.10218052210E+01  0.10215656630E+01 0.  0.
     999903    2    3    3    0    0  0.10400943732E+00  0.70682750266E-01  0.31495740116E-01  0.13138801244E+00  0.21373205904E-01 0.  0.
         14    1    1    2    0    0 -0.12343617842E-02  0.89014042221E-04  0.22090139734E-01  0.22124779004E-01  0.00000000000E+00 0. -1.
     999901    1    3    3    0    0 -0.10277507554E+00 -0.70771764308E-01 -0.53585879849E-01  0.89041720856E+00  0.88000000000E+00 0. -1.
        -11    1    4    4    0    0  0.21390950682E-01  0.94706849483E-02 -0.13669026440E-02  0.23439201955E-01  0.51100000000E-03 0. -1.
         11    1    4    4    0    0  0.82618486638E-01  0.61212065318E-01  0.32862642760E-01  0.10794881048E+00  0.51100000000E-03 0.  1.
</event>
<event>
 8    1  0.1063984E+005  0.1043930E+01  0.7957747E-01            NaN
         13   -1    0    0    0    0  0.00000000000E+00  0.00000000000E+00  0.74505805969E-08  0.10566000000E+00  0.10566000000E+00 0. -1.
     999900   -1    0    0    0    0 -0.00000000000E+00 -0.00000000000E+00 -0.74505805969E-08  0.93827000000E+00  0.93827000000E+00 0. -1.
     999902    2    1    2    0    0  0.18998701364E-01  0.38592290055E-02 -0.14042673205E-01  0.10199917258E+01  0.10197107824E+01 0.  0.
     999903    2    3    3    0    0  0.15254199243E-01  0.80622691035E-01 -0.10119852296E+00  0.13235283944E+00  0.23311459699E-01 0.  0.
         14    1    1    2    0    0 -0.18998701364E-01 -0.38592290055E-02  0.14042673205E-01  0.23938274223E-01  0.00000000000E+00 0. -1.
     999901    1    3    3    0    0  0.37445021206E-02 -0.76763462029E-01  0.87155849755E-01  0.88763888634E+00  0.88000000000E+00 0.  1.
        -11    1    4    4    0    0  0.10099457906E-01  0.76826419175E-01 -0.85490980212E-01  0.11538312941E+00  0.51100000000E-03 0. -1.
         11    1    4    4    0    0  0.51547413373E-02  0.37962718603E-02 -0.15707542748E-01  0.16969710029E-01  0.51100000000E-03 0.  1.
</event>
<event>
 8    1  0.1063984E+005  0.1043930E+01  0.7957747E-01            NaN
         13   -1    0    0    0    0  0.00000000000E+00  0.00000000000E+00  0.74505805969E-08  0.10566000000E+00  0.10566000000E+00 0.  1.
     999900   -1    0    0    0    0 -0.00000000000E+00 -0.00000000000E+00 -0.74505805969E-08  0.93827000000E+00  0.93827000000E+00 0.  1.
     999902    2    1    2    0    0 -0.84404157399E-02  0.66908365093E-02  0.20864580922E-01  0.10204493985E+01  0.10201792177E+01 0.  0.
     999903    2    3    3    0    0 -0.69660991278E-02 -0.39932288826E-01 -0.11982483104E+00  0.12805408245E+00  0.19918425401E-01 0.  0.
         14    1    1    2    0    0  0.84404157399E-02 -0.66908365093E-02 -0.20864580922E-01  0.23480601528E-01  0.00000000000E+00 0. -1.
     999901    1    3    3    0    0 -0.14743166121E-02  0.46623125335E-01  0.14068941196E+00  0.89239531602E+00  0.88000000000E+00 0. -1.
        -11    1    4    4    0    0 -0.15122784181E-02 -0.32396359746E-01 -0.10923763362E+00  0.11395144945E+00  0.51100000000E-03 0.  1.
         11    1    4    4    0    0 -0.54538207097E-02 -0.75359290804E-02 -0.10587197416E-01  0.14102633001E-01  0.51100000000E-03 0. -1.
</event>
<event>
 8    1  0.1063984E+005  0.1043930E+01  0.7957747E-01            NaN
         13   -1    0    0    0    0  0.00000000000E+00  0.00000000000E+00  0.74505805969E-08  0.10566000000E+00  0.10566000000E+00 0. -1.
     999900   -1    0    0    0    0 -0.00000000000E+00 -0.00000000000E+00 -0.74505805969E-08  0.93827000000E+00  0.93827000000E+00 0. -1.
     999902    2    1    2    0    0  0.71133748528E-02 -0.21889040537E-01 -0.55689497814E-02  0.10202499789E+01  0.10199751350E+01 0.  0.
     999903    2    3    3    0    0  0.88311419996E-01 -0.90057724361E-01  0.34729582630E-01  0.13297095644E+00  0.23787196729E-01 0.  0.
         14    1    1    2    0    0 -0.71133748528E-02  0.21889040537E-01  0.55689497814E-02  0.23680021096E-01  0.00000000000E+00 0. -1.
     999901    1    3    3    0    0 -0.81198045144E-01  0.68168683824E-01 -0.40298532411E-01  0.88727902246E+00  0.88000000000E+00 0. -1.
        -11    1    4    4    0    0  0.61332824395E-02 -0.18087098593E-01  0.57746567671E-02  0.19959160072E-01  0.51100000000E-03 0.  1.
         11    1    4    4    0    0  0.82178137557E-01 -0.71970625768E-01  0.28954925863E-01  0.11301179637E+00  0.51100000000E-03 0. -1.
</event>
<event>
 8    1  0.1063984E+005  0.1043930E+01  0.7957747E-01            NaN
         13   -1    0    0    0    0  0.00000000000E+00  0.00000000000E+00  0.74505805969E-08  0.10566000000E+00  0.10566000000E+00 0. -1.
     999900   -1    0    0    0    0 -0.00000000000E+00 -0.00000000000E+00 -0.74505805969E-08  0.93827000000E+00  0.93827000000E+00 0. -1.
     999902    2    1    2    0    0  0.10947820331E-01  0.19195489266E-01 -0.81529696039E-02  0.10203759666E+01  0.10201040734E+01 0.  0.
     999903    2    3    3    0    0 -0.18479049652E-01  0.88216666012E-01 -0.95673271268E-01  0.13285714043E+00  0.19338807893E-01 0.  0.
         14    1    1    2    0    0 -0.10947820331E-01 -0.19195489266E-01  0.81529696039E-02  0.23554033445E-01  0.00000000000E+00 0. -1.
     999901    1    3    3    0    0  0.29426869983E-01 -0.69021176746E-01  0.87520301664E-01  0.88751882612E+00  0.88000000000E+00 0.  1.
        -11    1    4    4    0    0 -0.51223969665E-02  0.25714011692E-01 -0.41401257218E-01  0.49007903120E-01  0.51100000000E-03 0.  1.
         11    1    4    4    0    0 -0.13356652685E-01  0.62502654321E-01 -0.54272014050E-01  0.83849237314E-01  0.51100000000E-03 0. -1.
</event>
<event>
 8    1  0.1063984E+005  0.1043930E+01  0.7957747E-01            NaN
         13   -1    0    0    0    0  0.00000000000E+00  0.00000000000E+00  0.74505805969E-08  0.10566000000E+00  0.10566000000E+00 0.  1.
     999900   -1    0    0    0    0 -0.00000000000E+00 -0.00000000000E+00 -0.74505805969E-08  0.93827000000E+00  0.93827000000E+00 0. -1.
     999902    2    1    2    0    0 -0.42275236541E-02  0.23334744121E-01 -0.18651428358E-02  0.10201421670E+01  0.10198647851E+01 0.  0.
     999903    2    3    3    0    0  0.31441715136E-01  0.48915179774E-01 -0.11599872735E+00  0.13168669353E+00  0.22458945724E-01 0.  0.
         14    1    1    2    0    0  0.42275236541E-02 -0.23334744121E-01  0.18651428358E-02  0.23787832967E-01  0.00000000000E+00 0.  1.
     999901    1    3    3    0    0 -0.35669238790E-01 -0.25580435653E-01  0.11413358451E+00  0.88845547350E+00  0.88000000000E+00 0.  1.
        -11    1    4    4    0    0  0.10186074475E-01  0.33818296638E-01 -0.55231090492E-01  0.65560413198E-01  0.51100000000E-03 0. -1.
         11    1    4    4    0    0  0.21255640660E-01  0.15096883137E-01 -0.60767636858E-01  0.66126280332E-01  0.51100000000E-03 0.  1.
</event>
<event>
 8    1  0.1063984E+005  0.1043930E+01  0.7957747E-01            NaN
         13   -1    0    0    0    0  0.00000000000E+00  0.00000000000E+00  0.74505805969E-08  0.10566000000E+00  0.10566000000E+00 0. -1.
     999900   -1    0    0    0    0 -0.00000000000E+00 -0.00000000000E+00 -0.74505805969E-08  0.93827000000E+00  0.93827000000E+00 0. -1.
     999902    2    1    2    0    0  0.14272029270E-01 -0.17095137117E-01  0.91125705948E-02  0.10198681323E+01  0.10195842456E+01 0.  0.
     999903    2    3    3    0    0 -0.11343518587E+00  0.80021596417E-02  0.57524993474E-01  0.12897937958E+00  0.19874091904E-01 0.  0.
         14    1    1    2    0    0 -0.14272029270E-01  0.17095137117E-01 -0.91125705948E-02  0.24061867662E-01  0.00000000000E+00 0.  1.
     999901    1    3    3    0    0  0.12770721514E+00 -0.25097296758E-01 -0.48412422879E-01  0.89088875276E+00  0.88000000000E+00 0.  1.
        -11    1    4    4    0    0 -0.23978467076E-01 -0.62342502178E-02  0.14299252071E-01  0.28610531100E-01  0.51100000000E-03 0. -1.
         11    1    4    4    0    0 -0.89456718799E-01  0.14236409859E-01  0.43225741403E-01  0.10036884848E+00  0.51100000000E-03 0.  1.
</event>
<event>
 8    1  0.1063984E+005  0.1043930E+01  0.7957747E-01            NaN
         13   -1    0    0    0    0  0.00000000000E+00  0.00000000000E+00  0.74505805969E-08  0.10566000000E+00  0.10566000000E+00 0.  1.
     999900   -1    0    0    0    0 -0.00000000000E+00 -0.00000000000E+00 -0.74505805969E-08  0.93827000000E+00  0.93827000000E+00 0.  1.
     999902    2    1    2    0    0  0.10624812324E-01  0.45855796550E-02  0.21071127504E-01  0.10198903121E+01  0.10196069548E+01 0.  0.
     999903    2    3    3    0    0 -0.10244554406E+00  0.69771381528E-02 -0.73455079706E-01  0.12763147700E+00  0.18718312751E-01 0.  0.
         14    1    1    2    0    0 -0.10624812324E-01 -0.45855796550E-02 -0.21071127504E-01  0.24039687851E-01  0.00000000000E+00 0. -1.
     999901    1    3    3    0    0  0.11307035639E+00 -0.23915584978E-02  0.94526207210E-01  0.89225883515E+00  0.88000000000E+00 0.  1.
        -11    1    4    4    0    0 -0.34554273484E-01 -0.59247676513E-02 -0.20995991621E-01  0.40868000598E-01  0.51100000000E-03 0. -1.
         11    1    4    4    0    0 -0.67891270580E-01  0.12901905804E-01 -0.52459088085E-01  0.86763476406E-01  0.51100000000E-03 0.  1.
</event>
<event>
 8    1  0.1063984E+005  0.1043930E+01  0.7957747E-01            NaN
         13   -1    0    0    0    0  0.00000000000E+00  0.00000000000E+00  0.74505805969E-08  0.10566000000E+00  0.10566000000E+00 0. -1.
     999900   -1    0    0    0    0 -0.00000000000E+00 -0.00000000000E+00 -0.74505805969E-08  0.93827000000E+00  0.93827000000E+00 0.  1.
     999902    2    1    2    0    0 -0.60424282018E-02  0.23497143292E-02 -0.23137792823E-01  0.10199010684E+01  0.10196179676E+01 0.  0.
     999903    2    3    3    0    0 -0.47040807355E-01 -0.11967922888E+00  0.38894662049E-02  0.13012446567E+00  0.19526731335E-01 0.  0.
         14    1    1    2    0    0  0.60424282018E-02 -0.23497143292E-02  0.23137792823E-01  0.24028931576E-01  0.00000000000E+00 0. -1.
     999901    1    3    3    0    0  0.40998379153E-01  0.12202894321E+00 -0.27027259027E-01  0.88977660275E+00  0.88000000000E+00 0. -1.
        -11    1    4    4    0    0 -0.96360809691E-02 -0.50559699805E-01  0.13075867504E-02  0.51488913417E-01  0.51100000000E-03 0. -1.
         11    1    4    4    0    0 -0.37404726386E-01 -0.69119529077E-01  0.25818794545E-02  0.78635552255E-01  0.51100000000E-03 0.  1.
</event>
<event>
 8    1  0.1063984E+005  0.1043930E+01  0.7957747E-01            NaN
         13   -1    0    0    0    0  0.00000000000E+00  0.00000000000E+00  0.74505805969E-08  0.10566000000E+00  0.10566000000E+00 0.  1.
     999900   -1    0    0    0    0 -0.00000000000E+00 -0.00000000000E+00 -0.74505805969E-08  0.93827000000E+00  0.93827000000E+00 0.  1.
     999902    2    1    2    0    0 -0.77991530758E-03  0.23242406729E-01  0.45191895887E-02  0.10202394784E+01  0.10199643879E+01 0.  0.
     999903    2    3    3    0    0  0.32050456897E-01  0.54636570756E-01  0.11438440170E+00  0.13224522635E+00  0.19814688687E-01 0.  0.
         14    1    1    2    0    0  0.77991530758E-03 -0.23242406729E-01 -0.45191895887E-02  0.23690521585E-01  0.00000000000E+00 0.  1.
     999901    1    3    3    0    0 -0.32830372205E-01 -0.31394164027E-01 -0.10986521211E+00  0.88799425207E+00  0.88000000000E+00 0.  1.
        -11    1    4    4    0    0  0.97998475649E-02  0.31963700176E-01  0.70921397530E-01  0.78408040977E-01  0.51100000000E-03 0. -1.
         11    1    4    4    0    0  0.22250609332E-01  0.22672870580E-01  0.43463004170E-01  0.53837185369E-01  0.51100000000E-03 0.  1.
</event>
<event>
 8    1  0.1219978E+005  0.1043930E+01  0.7957747E-01            NaN
         13   -1    0    0    0    0  0.00000000000E+00  0.00000000000E+00  0.74505805969E-08  0.10566000000E+00  0.10566000000E+00 0.  1.
     999900   -1    0    0    0    0 -0.00000000000E+00 -0.00000000000E+00 -0.74505805969E-08  0.93827000000E+00  0.93827000000E+00 0.  1.
     999902    2    1    2    0    0 -0.90490940162E-02 -0.23217815443E-01  0.53891503070E-02  0.10184349809E+01  0.10181158158E+01 0.  0.
     999903    2    3    3    0    0  0.20499690805E-01 -0.11386701172E+00  0.59561264935E-01  0.13162889983E+00  0.19816389869E-01 0.  0.
         14    1    1    2    0    0  0.90490940162E-02  0.23217815443E-01 -0.53891503070E-02  0.25495019072E-01  0.00000000000E+00 0. -1.
     999901    1    3    3    0    0 -0.29548784822E-01  0.90649196282E-01 -0.54172114628E-01  0.88680608110E+00  0.88000000000E+00 0. -1.
        -11    1    4    4    0    0  0.15182969861E-02 -0.60881596653E-01  0.27164568431E-01  0.66686197491E-01  0.51100000000E-03 0. -1.
         11    1    4    4    0    0  0.18981393819E-01 -0.52985415071E-01  0.32396696504E-01  0.64942702338E-01  0.51100000000E-03 0.  1.
</event>
<event>
 8    1  0.1063984E+005  0.1043930E+01  0.7957747E-01            NaN
         13   -1    0    0    0    0  0.00000000000E+00  0.00000000000E+00  0.74505805969E-08  0.10566000000E+00  0.10566000000E+00 0. -1.
     999900   -1    0    0    0    0 -0.00000000000E+00 -0.00000000000E+00 -0.74505805969E-08  0.93827000000E+00  0.93827000000E+00 0.  1.
     999902    2    1    2    0    0  0.22458342586E-01 -0.13448571522E-01 -0.43655013180E-03  0.10177492475E+01  0.10174124527E+01 0.  0.
     999903    2    3    3    0    0 -0.11212482512E+00 -0.54429749877E-01 -0.84426329969E-02  0.12653873171E+00  0.20154366543E-01 0.  0.
         14    1    1    2    0    0 -0.22458342586E-01  0.13448571522E-01  0.43655013180E-03  0.26180752543E-01  0.00000000000E+00 0. -1.
     999901    1    3    3    0    0  0.13458316771E+00  0.40981178354E-01  0.80060828651E-02  0.89121051574E+00  0.88000000000E+00 0. -1.
        -11    1    4    4    0    0 -0.37061817304E-01 -0.28429113379E-01 -0.64721571126E-03  0.46716943378E-01  0.51100000000E-03 0. -1.
         11    1    4    4    0    0 -0.75063007820E-01 -0.26000636497E-01 -0.77954172856E-02  0.79821788335E-01  0.51100000000E-03 0.  1.
</event>
<event>
 8    1  0.1063984E+005  0.1043930E+01  0.7957747E-01            NaN
         13   -1    0    0    0    0  0.00000000000E+00  0.00000000000E+00  0.74505805969E-08  0.10566000000E+00  0.10566000000E+00 0.  1.
     999900   -1    0    0    0    0 -0.00000000000E+00 -0.00000000000E+00 -0.74505805969E-08  0.93827000000E+00  0.93827000000E+00 0.  1.
     999902    2    1    2    0    0 -0.85355796049E-02  0.21144154830E-01  0.50324786444E-02  0.10205792560E+01  0.10203120898E+01 0.  0.
     999903    2    3    3    0    0 -0.51175994918E-01 -0.77125065420E-01 -0.88074660441E-01  0.12920728877E+00  0.19238489751E-01 0.  0.
         14    1    1    2    0    0  0.85355796049E-02 -0.21144154830E-01 -0.50324786444E-02  0.23350743970E-01  0.00000000000E+00 0. -1.
     999901    1    3    3    0    0  0.42640415313E-01  0.98269220250E-01  0.93107139085E-01  0.89137196726E+00  0.88000000000E+00 0. -1.
        -11    1    4    4    0    0 -0.13323630896E-01 -0.13970972194E-01 -0.28831741880E-01  0.34702127675E-01  0.51100000000E-03 0.  1.
         11    1    4    4    0    0 -0.37852364022E-01 -0.63154093226E-01 -0.59242918560E-01  0.94505161096E-01  0.51100000000E-03 0. -1.
</event>
<event>
 8    1  0.1063984E+005  0.1043930E+01  0.7957747E-01            NaN
         13   -1    0    0    0    0  0.00000000000E+00  0.00000000000E+00  0.74505805969E-08  0.10566000000E+00  0.10566000000E+00 0.  1.
     999900   -1    0    0    0    0 -0.00000000000E+00 -0.00000000000E+00 -0.74505805969E-08  0.93827000000E+00  0.93827000000E+00 0.  1.
     999902    2    1    2    0    0 -0.76057067819E-02  0.67254918788E-02 -0.21681026013E-01  0.10199895341E+01  0.10197085387E+01 0.  0.
     999903    2    3    3    0    0  0.73391601378E-01 -0.61528854788E-01  0.81961717807E-01  0.12759890324E+00  0.19789638656E-01 0.  0.
         14    1    1    2    0    0  0.76057067819E-02 -0.67254918788E-02  0.21681026013E-01  0.23940465861E-01  0.00000000000E+00 0.  1.
     999901    1    3    3    0    0 -0.80997308160E-01  0.68254346667E-01 -0.10364274382E+00  0.89239063090E+00  0.88000000000E+00 0. -1.
        -11    1    4    4    0    0  0.45779755983E-01 -0.50151796422E-01  0.58106787281E-01  0.89373645955E-01  0.51100000000E-03 0. -1.
         11    1    4    4    0    0  0.27611845395E-01 -0.11377058366E-01  0.23854930526E-01  0.38225257286E-01  0.51100000000E-03 0.  1.
</event>
<event>
 8    1  0.1063984E+005  0.1043930E+01  0.7957747E-01            NaN
         13   -1    0    0    0    0  0.00000000000E+00  0.00000000000E+00  0.74505805969E-08  0.10566000000E+00  0.10566000000E+00 0.  1.
     999900   -1    0    0    0    0 -0.00000000000E+00 -0.00000000000E+00 -0.74505805969E-08  0.93827000000E+00  0.93827000000E+00 0. -1.
     999902    2    1    2    0    0  0.21327295512E-01 -0.14023113066E-02 -0.44727139977E-03  0.10225519724E+01  0.10223284777E+01 0.  0.
     999903    2    3    3    0    0  0.10707937744E+00  0.97924014276E-02  0.79088011866E-01  0.13474309524E+00  0.18409342561E-01 0.  0.
         14    1    1    2    0    0 -0.21327295512E-01  0.14023113066E-02  0.44727139977E-03  0.21378027564E-01  0.00000000000E+00 0. -1.
     999901    1    3    3    0    0 -0.85752081932E-01 -0.11194712734E-01 -0.79535283265E-01  0.88780887720E+00  0.88000000000E+00 0. -1.
        -11    1    4    4    0    0  0.64479068359E-01 -0.25084831598E-02  0.51022698632E-01  0.82264327876E-01  0.51100000000E-03 0.  1.
         11    1    4    4    0    0  0.42600309085E-01  0.12300884587E-01  0.28065313234E-01  0.52478767361E-01  0.51100000000E-03 0. -1.
</event>
<event>
 8    1  0.1063984E+005  0.1043930E+01  0.7957747E-01            NaN
         13   -1    0    0    0    0  0.00000000000E+00  0.00000000000E+00  0.74505805969E-08  0.10566000000E+00  0.10566000000E+00 0. -1.
     999900   -1    0    0    0    0 -0.00000000000E+00 -0.00000000000E+00 -0.74505805969E-08  0.93827000000E+00  0.93827000000E+00 0.  1.
     999902    2    1    2    0    0  0.17222366474E-01  0.12010212599E-02  0.15510294724E-01  0.10207217773E+01  0.10204578997E+01 0.  0.
     999903    2    3    3    0    0  0.55783064820E-01 -0.11318899617E+00 -0.30263941773E-01  0.13130214389E+00  0.20021179903E-01 0.  0.
         14    1    1    2    0    0 -0.17222366474E-01 -0.12010212599E-02 -0.15510294724E-01  0.23208222712E-01  0.00000000000E+00 0. -1.
     999901    1    3    3    0    0 -0.38560698347E-01  0.11439001743E+00  0.45774236497E-01  0.88941963340E+00  0.88000000000E+00 0.  1.
        -11    1    4    4    0    0  0.45087917354E-01 -0.70164717758E-01 -0.18499532679E-01  0.85431269097E-01  0.51100000000E-03 0. -1.
         11    1    4    4    0    0  0.10695147467E-01 -0.43024278410E-01 -0.11764409094E-01  0.45870874794E-01  0.51100000000E-03 0.  1.
</event>
<event>
 8    1  0.1063984E+005  0.1043930E+01  0.7957747E-01            NaN
         13   -1    0    0    0    0  0.00000000000E+00  0.00000000000E+00  0.74505805969E-08  0.10566000000E+00  0.10566000000E+00 0.  1.
     999900   -1    0    0    0    0 -0.00000000000E+00 -0.00000000000E+00 -0.74505805969E-08  0.93827000000E+00  0.93827000000E+00 0.  1.
     999902    2    1    2    0    0  0.14236033908E-01  0.18172072209E-01 -0.61993884119E-02  0.10200276719E+01  0.10197475816E+01 0.  0.
     999903    2    3    3    0    0  0.43649243055E-01 -0.72397237829E-01  0.95261770494E-01  0.12909428299E+00  0.21069231539E-01 0.  0.
         14    1    1    2    0    0 -0.14236033908E-01 -0.18172072209E-01  0.61993884119E-02  0.23902328056E-01  0.00000000000E+00 0.  1.
     999901    1    3    3    0    0 -0.29413209147E-01  0.90569310038E-01 -0.10146115891E+00  0.89093338896E+00  0.88000000000E+00 0.  1.
        -11    1    4    4    0    0  0.56978073815E-02 -0.28571255965E-01  0.32725989199E-01  0.43818183057E-01  0.51100000000E-03 0. -1.
         11    1    4    4    0    0  0.37951435674E-01 -0.43825981864E-01  0.62535781295E-01  0.85276099930E-01  0.51100000000E-03 0.  1.
</event>
<event>
 8    1  0.1063984E+005  0.1043930E+01  0.7957747E-01            NaN
         13   -1    0    0    0    0  0.00000000000E+00  0.00000000000E+00  0.74505805969E-08  0.10566000000E+00  0.10566000000E+00 0.  1.
     999900   -1    0    0    0    0 -0.00000000000E+00 -0.00000000000E+00 -0.74505805969E-08  0.93827000000E+00  0.93827000000E+00 0.  1.
     999902    2    1    2    0    0  0.14530955425E-01  0.16925078930E-01  0.23181863355E-02  0.10215027632E+01  0.10212565370E+01 0.  0.
     999903    2    3    3    0    0 -0.11158360548E+00  0.12777557232E-01  0.63092192478E-01  0.13042725337E+00  0.20407760503E-01 0.  0.
         14    1    1    2    0    0 -0.14530955425E-01 -0.16925078930E-01 -0.23181863355E-02  0.22427236794E-01  0.00000000000E+00 0.  1.
     999901    1    3    3    0    0  0.12611456091E+00  0.41475216976E-02 -0.60774006142E-01  0.89107550984E+00  0.88000000000E+00 0.  1.
        -11    1    4    4    0    0 -0.28925399045E-01  0.54816678197E-02  0.26952997961E-01  0.39918073752E-01  0.51100000000E-03 0. -1.
         11    1    4    4    0    0 -0.82658206436E-01  0.72958894124E-02  0.36139194517E-01  0.90509179617E-01  0.51100000000E-03 0.  1.
</event>
<event>
 8    1  0.1063984E+005  0.1043930E+01  0.7957747E-01            NaN
         13   -1    0    0    0    0  0.00000000000E+00  0.00000000000E+00  0.74505805969E-08  0.10566000000E+00  0.10566000000E+00 0. -1.
     999900   -1    0    0    0    0 -0.00000000000E+00 -0.00000000000E+00 -0.74505805969E-08  0.93827000000E+00  0.93827000000E+00 0. -1.
     999902    2    1    2    0    0  0.68551249390E-02 -0.10766612755E-01  0.19749371906E-01  0.10204151030E+01  0.10201441232E+01 0.  0.
     999903    2    3    3    0    0 -0.25696813888E-02 -0.13056007223E+00  0.36634633164E-02  0.13210318915E+00  0.19628955600E-01 0.  0.
         14    1    1    2    0    0 -0.68551249390E-02  0.10766612755E-01 -0.19749371906E-01  0.23514896955E-01  0.00000000000E+00 0.  1.
     999901    1    3    3    0    0  0.94248063279E-02  0.11979345948E+00  0.16085908589E-01  0.88831191389E+00  0.88000000000E+00 0. -1.
        -11    1    4    4    0    0  0.69383109534E-02 -0.70887855842E-01 -0.31186014385E-02  0.71296669352E-01  0.51100000000E-03 0.  1.
         11    1    4    4    0    0 -0.95079923422E-02 -0.59672216388E-01  0.67820647549E-02  0.60806519802E-01  0.51100000000E-03 0. -1.
</event>
<event>
 8    1  0.1063984E+005  0.1043930E+01  0.7957747E-01            NaN
         13   -1    0    0    0    0  0.00000000000E+00  0.00000000000E+00  0.74505805969E-08  0.10566000000E+00  0.10566000000E+00 0. -1.
     999900   -1    0    0    0    0 -0.00000000000E+00 -0.00000000000E+00 -0.74505805969E-08  0.93827000000E+00  0.93827000000E+00 0. -1.
     999902    2    1    2    0    0 -0.51888095466E-02 -0.19675224226E-01 -0.11212555120E-01  0.10206972734E+01  0.10204328319E+01 0.  0.
     999903    2    3    3    0    0 -0.10157286988E+00 -0.28843704899E-01  0.75297968250E-01  0.13117042233E+00  0.19669480541E-01 0.  0.
         14    1    1    2    0    0  0.51888095466E-02  0.19675224226E-01  0.11212555120E-01  0.23232726597E-01  0.00000000000E+00 0. -1.
     999901    1    3    3    0    0  0.96384060329E-01  0.91684806735E-02 -0.86510523370E-01  0.88952685107E+00  0.88000000000E+00 0. -1.
        -11    1    4    4    0    0 -0.89227987647E-01 -0.24259100658E-01  0.57015254946E-01  0.10863304360E+00  0.51100000000E-03 0.  1.
         11    1    4    4    0    0 -0.12344882229E-01 -0.45846042409E-02  0.18282713304E-01  0.22537378731E-01  0.51100000000E-03 0. -1.
</event>
<event>
 8    1  0.1063984E+005  0.1043930E+01  0.7957747E-01            NaN
         13   -1    0    0    0    0  0.00000000000E+00  0.00000000000E+00  0.74505805969E-08  0.10566000000E+00  0.10566000000E+00 0.  1.
     999900   -1    0    0    0    0 -0.00000000000E+00 -0.00000000000E+00 -0.74505805969E-08  0.93827000000E+00  0.93827000000E+00 0.  1.
     999902    2    1    2    0    0  0.65973203919E-04  0.88074208262E-02  0.21470156294E-01  0.10207234788E+01  0.10204596404E+01 0.  0.
     999903    2    3    3    0    0  0.61367587456E-01  0.11517710923E+00  0.37175652348E-02  0.13202355589E+00  0.19612540308E-01 0.  0.
         14    1    1    2    0    0 -0.65973203919E-04 -0.88074208262E-02 -0.21470156294E-01  0.23206521182E-01  0.00000000000E+00 0. -1.
     999901    1    3    3    0    0 -0.61301614252E-01 -0.10636968841E+00  0.17752591059E-01  0.88869992293E+00  0.88000000000E+00 0. -1.
        -11    1    4    4    0    0  0.26108078243E-01  0.34153467559E-01  0.71953160853E-02  0.43590420856E-01  0.51100000000E-03 0. -1.
         11    1    4    4    0    0  0.35259509213E-01  0.81023641674E-01 -0.34777508504E-02  0.88433135035E-01  0.51100000000E-03 0.  1.
</event>
<event>
 8    1  0.1467983E+005  0.1043930E+01  0.7957747E-01            NaN
         13   -1    0    0    0    0  0.00000000000E+00  0.00000000000E+00  0.74505805969E-08  0.10566000000E+00  0.10566000000E+00 0. -1.
     999900   -1    0    0    0    0 -0.00000000000E+00 -0.00000000000E+00 -0.74505805969E-08  0.93827000000E+00  0.93827000000E+00 0.  1.
     999902    2    1    2    0    0 -0.10498782789E-01 -0.16381112263E-01 -0.25304269123E-01  0.10120102363E+01  0.10115067212E+01 0.  0.
     999903    2    3    3    0    0 -0.83845443592E-01  0.80354229461E-01 -0.37310739657E-01  0.12359501000E+00  0.19919201759E-01 0.  0.
         14    1    1    2    0    0  0.10498782789E-01  0.16381112263E-01  0.25304269123E-01  0.31919763703E-01  0.00000000000E+00 0. -1.
     999901    1    3    3    0    0  0.73346660803E-01 -0.96735341724E-01  0.12006470535E-01  0.88841522630E+00  0.88000000000E+00 0. -1.
        -11    1    4    4    0    0 -0.38319941223E-01  0.50445076184E-01 -0.19565737732E-01  0.66303867313E-01  0.51100000000E-03 0.  1.
         11    1    4    4    0    0 -0.45525502368E-01  0.29909153276E-01 -0.17745001925E-01  0.57291142683E-01  0.51100000000E-03 0. -1.
</event>
<event>
 8    1  0.1063984E+005  0.1043930E+01  0.7957747E-01            NaN
         13   -1    0    0    0    0  0.00000000000E+00  0.00000000000E+00  0.74505805969E-08  0.10566000000E+00  0.10566000000E+00 0.  1.
     999900   -1    0    0    0    0 -0.00000000000E+00 -0.00000000000E+00 -0.74505805969E-08  0.93827000000E+00  0.93827000000E+00 0. -1.
     999902    2    1    2    0    0 -0.21443216206E-01  0.55964618278E-02 -0.10866932026E-01  0.10192475747E+01  0.10189486721E+01 0.  0.
     999903    2    3    3    0    0 -0.12448263283E-01 -0.12124002603E+00  0.36703970962E-01  0.12883677366E+00  0.19940651704E-01 0.  0.
         14    1    1    2    0    0  0.21443216206E-01 -0.55964618278E-02  0.10866932026E-01  0.24682425284E-01  0.00000000000E+00 0. -1.
     999901    1    3    3    0    0 -0.89949529235E-02  0.12683648786E+00 -0.47570902988E-01  0.89041080106E+00  0.88000000000E+00 0.  1.
        -11    1    4    4    0    0 -0.78404149131E-02 -0.11390752933E+00  0.30531563907E-01  0.11818982553E+00  0.51100000000E-03 0. -1.
         11    1    4    4    0    0 -0.46078483695E-02 -0.73324967086E-02  0.61724070545E-02  0.10646948127E-01  0.51100000000E-03 0.  1.
</event>
<event>
 8    1  0.1063984E+005  0.1043930E+01  0.7957747E-01            NaN
         13   -1    0    0    0    0  0.00000000000E+00  0.00000000000E+00  0.74505805969E-08  0.10566000000E+00  0.10566000000E+00 0. -1.
     999900   -1    0    0    0    0 -0.00000000000E+00 -0.00000000000E+00 -0.74505805969E-08  0.93827000000E+00  0.93827000000E+00 0. -1.
     999902    2    1    2    0    0 -0.79794291435E-02  0.11337487128E-01 -0.19904165079E-01  0.10196733372E+01  0.10193847796E+01 0.  0.
     999903    2    3    3    0    0  0.56520783533E-01 -0.52984455872E-01 -0.10376082903E+00  0.13100605980E+00  0.19857656689E-01 0.  0.
         14    1    1    2    0    0  0.79794291435E-02 -0.11337487128E-01  0.19904165079E-01  0.24256662823E-01  0.00000000000E+00 0. -1.
     999901    1    3    3    0    0 -0.64500212677E-01  0.64321942999E-01  0.83856663949E-01  0.88866727737E+00  0.88000000000E+00 0. -1.
        -11    1    4    4    0    0  0.48092622627E-01 -0.38304937034E-01 -0.69536141275E-01  0.92820819953E-01  0.51100000000E-03 0.  1.
         11    1    4    4    0    0  0.84281609059E-02 -0.14679518837E-01 -0.34224687753E-01  0.38185239849E-01  0.51100000000E-03 0. -1.
</event>
<event>
 8    1  0.1063984E+005  0.1043930E+01  0.7957747E-01            NaN
         13   -1    0    0    0    0  0.00000000000E+00  0.00000000000E+00  0.74505805969E-08  0.10566000000E+00  0.10566000000E+00 0.  1.
     999900   -1    0    0    0    0 -0.00000000000E+00 -0.00000000000E+00 -0.74505805969E-08  0.93827000000E+00  0.93827000000E+00 0. -1.
     999902    2    1    2    0    0 -0.22386429566E-01  0.56909362289E-02 -0.13798918344E-03  0.10208311250E+01  0.10205697565E+01 0.  0.
     999903    2    3    3    0    0 -0.26377933349E-01 -0.93624558204E-01 -0.86100149736E-01  0.13107329698E+00  0.17481994421E-01 0.  0.
         14    1    1    2    0    0  0.22386429566E-01 -0.56909362289E-02  0.13798918344E-03  0.23098874970E-01  0.00000000000E+00 0.  1.
     999901    1    3    3    0    0  0.39915037831E-02  0.99315494433E-01  0.85962160552E-01  0.88975782805E+00  0.88000000000E+00 0.  1.
        -11    1    4    4    0    0 -0.26410884408E-01 -0.72132603148E-01 -0.61498570882E-01  0.98402147302E-01  0.51100000000E-03 0.  1.
         11    1    4    4    0    0  0.32951059489E-04 -0.21491955056E-01 -0.24601578854E-01  0.32671149673E-01  0.51100000000E-03 0. -1.
</event>
<event>
 8    1  0.1063984E+005  0.1043930E+01  0.7957747E-01            NaN
         13   -1    0    0    0    0  0.00000000000E+00  0.00000000000E+00  0.74505805969E-08  0.10566000000E+00  0.10566000000E+00 0. -1.
     999900   -1    0    0    0    0 -0.00000000000E+00 -0.00000000000E+00 -0.74505805969E-08  0.93827000000E+00  0.93827000000E+00 0.  1.
     999902    2    1    2    0    0  0.18774446142E-01 -0.10883244360E-01  0.84461361442E-02  0.10206434792E+01  0.10203777975E+01 0.  0.
     999903    2    3    3    0    0  0.28616126303E-01 -0.87388246152E-02  0.12757475370E+00  0.13255953905E+00  0.20036563410E-01 0.  0.
         14    1    1    2    0    0 -0.18774446142E-01  0.10883244360E-01 -0.84461361442E-02  0.23286520812E-01  0.00000000000E+00 0. -1.
     999901    1    3    3    0    0 -0.98416801608E-02 -0.21444197452E-02 -0.11912861755E+00  0.88808394013E+00  0.88000000000E+00 0.  1.
        -11    1    4    4    0    0  0.16719014256E-01 -0.10046104299E-01  0.44021822613E-01  0.48152171669E-01  0.51100000000E-03 0. -1.
         11    1    4    4    0    0  0.11897112047E-01  0.13072796840E-02  0.83552931084E-01  0.84407367385E-01  0.51100000000E-03 0.  1.
</event>
<event>
 8    1  0.1063984E+005  0.1043930E+01  0.7957747E-01            NaN
         13   -1    0    0    0    0  0.00000000000E+00  0.00000000000E+00  0.74505805969E-08  0.10566000000E+00  0.10566000000E+00 0.  1.
     999900   -1    0    0    0    0 -0.00000000000E+00 -0.00000000000E+00 -0.74505805969E-08  0.93827000000E+00  0.93827000000E+00 0. -1.
     999902    2    1    2    0    0 -0.19730964570E-02  0.19275678934E-01  0.13198794921E-01  0.10204853184E+01  0.10202159732E+01 0.  0.
     999903    2    3    3    0    0  0.48144308927E-01  0.12153707798E+00  0.16007418049E-01  0.13314263577E+00  0.19534283220E-01 0.  0.
         14    1    1    2    0    0  0.19730964570E-02 -0.19275678934E-01 -0.13198794921E-01  0.23444681601E-01  0.00000000000E+00 0. -1.
     999901    1    3    3    0    0 -0.50117405384E-01 -0.10226139904E+00 -0.28086231277E-02  0.88734268263E+00  0.88000000000E+00 0. -1.
        -11    1    4    4    0    0  0.60280952449E-02  0.29991099164E-01  0.10020745685E-01  0.32194416076E-01  0.51100000000E-03 0. -1.
         11    1    4    4    0    0  0.42116213682E-01  0.91545978814E-01  0.59866723637E-02  0.10094821969E+00  0.51100000000E-03 0.  1.
</event>
<event>
 8    1  0.1063984E+005  0.1043930E+01  0.7957747E-01            NaN
         13   -1    0    0    0    0  0.00000000000E+00  0.00000000000E+00  0.74505805969E-08  0.10566000000E+00  0.10566000000E+00 0. -1.
     999900   -1    0    0    0    0 -0.00000000000E+00 -0.00000000000E+00 -0.74505805969E-08  0.93827000000E+00  0.93827000000E+00 0.  1.
     999902    2    1    2    0    0 -0.96502589220E-02 -0.49277656609E-02  0.14202173435E-01  0.10260662909E+01  0.10259107765E+01 0.  0.
     999903    2    3    3    0    0  0.13230006440E-01 -0.10282553508E+00 -0.84346826989E-01  0.13487642042E+00  0.18142156076E-01 0.  0.
         14    1    1    2    0    0  0.96502589220E-02  0.49277656609E-02 -0.14202173435E-01  0.17863709076E-01  0.00000000000E+00 0.  1.
     999901    1    3    3    0    0 -0.22880265362E-01  0.97897769423E-01  0.98549000424E-01  0.89118987050E+00  0.88000000000E+00 0. -1.
        -11    1    4    4    0    0  0.13576386547E-01 -0.89565522776E-01 -0.65350290193E-01  0.11170148921E+00  0.51100000000E-03 0. -1.
         11    1    4    4    0    0 -0.34638010714E-03 -0.13260012308E-01 -0.18996536796E-01  0.23174931215E-01  0.51100000000E-03 0.  1.
</event>
<event>
 8    1  0.1063984E+005  0.1043930E+01  0.7957747E-01            NaN
         13   -1    0    0    0    0  0.00000000000E+00  0.00000000000E+00  0.74505805969E-08  0.10566000000E+00  0.10566000000E+00 0.  1.
     999900   -1    0    0    0    0 -0.00000000000E+00 -0.00000000000E+00 -0.74505805969E-08  0.93827000000E+00  0.93827000000E+00 0. -1.
     999902    2    1    2    0    0  0.21339749778E-01  0.51468292828E-02 -0.44743919466E-02  0.10215269878E+01  0.10212812991E+01 0.  0.
     999903    2    3    3    0    0 -0.69735258041E-01  0.86088201474E-01 -0.66799912121E-01  0.13094816858E+00  0.20273380283E-01 0.  0.
         14    1    1    2    0    0 -0.21339749778E-01 -0.51468292828E-02  0.44743919466E-02  0.22403012198E-01  0.00000000000E+00 0.  1.
     999901    1    3    3    0    0  0.91075007819E-01 -0.80941372191E-01  0.62325520174E-01  0.89057881922E+00  0.88000000000E+00 0.  1.
        -11    1    4    4    0    0 -0.59983633396E-01  0.71045832282E-01 -0.46838178571E-01  0.10411350850E+00  0.51100000000E-03 0. -1.
         11    1    4    4    0    0 -0.97516246448E-02  0.15042369192E-01 -0.19961733550E-01  0.26834660077E-01  0.51100000000E-03 0.  1.
</event>
<event>
 8    1  0.1063984E+005  0.1043930E+01  0.7957747E-01            NaN
         13   -1    0    0    0    0  0.00000000000E+00  0.00000000000E+00  0.74505805969E-08  0.10566000000E+00  0.10566000000E+00 0.  1.
     999900   -1    0    0    0    0 -0.00000000000E+00 -0.00000000000E+00 -0.74505805969E-08  0.93827000000E+00  0.93827000000E+00 0. -1.
     999902    2    1    2    0    0  0.11512298230E-01  0.11687555125E-01  0.17019243127E-01  0.10202913327E+01  0.10200174592E+01 0.  0.
     999903    2    3    3    0    0  0.10088318689E+00 -0.51389575752E-01 -0.61583311658E-01  0.13004179363E+00  0.17322180099E-01 0.  0.
         14    1    1    2    0    0 -0.11512298230E-01 -0.11687555125E-01 -0.17019243127E-01  0.23638667305E-01  0.00000000000E+00 0. -1.
     999901    1    3    3    0    0 -0.89370888662E-01  0.63077130877E-01  0.78602554785E-01  0.89024953906E+00  0.88000000000E+00 0.  1.
        -11    1    4    4    0    0  0.88536994631E-01 -0.39703706101E-01 -0.56532374663E-01  0.11230028585E+00  0.51100000000E-03 0.  1.
         11    1    4    4    0    0  0.12346192260E-01 -0.11685869652E-01 -0.50509369954E-02  0.17741507782E-01  0.51100000000E-03 0. -1.
</event>
<event>
 8    1  0.1063984E+005  0.1043930E+01  0.7957747E-01            NaN
         13   -1    0    0    0    0  0.00000000000E+00  0.00000000000E+00  0.74505805969E-08  0.10566000000E+00  0.10566000000E+00 0. -1.
     999900   -1    0    0    0    0 -0.00000000000E+00 -0.00000000000E+00 -0.74505805969E-08  0.93827000000E+00  0.93827000000E+00 0. -1.
     999902    2    1    2    0    0  0.23881671465E-01 -0.25814173315E-03 -0.97427143409E-03  0.10200270698E+01  0.10197469652E+01 0.  0.
     999903    2    3    3    0    0  0.74102666147E-01  0.32590049102E-01  0.10225865720E+00  0.13196277620E+00  0.20100370614E-01 0.  0.
         14    1    1    2    0    0 -0.23881671465E-01  0.25814173315E-03  0.97427143409E-03  0.23902930238E-01  0.00000000000E+00 0.  1.
     999901    1    3    3    0    0 -0.50220994682E-01 -0.32848190835E-01 -0.10323292864E+00  0.88806429356E+00  0.88000000000E+00 0. -1.
        -11    1    4    4    0    0  0.44650488310E-01  0.10006092412E-01  0.48992302459E-01  0.67039501884E-01  0.51100000000E-03 0. -1.
         11    1    4    4    0    0  0.29452177837E-01  0.22583956690E-01  0.53266354742E-01  0.64923274314E-01  0.51100000000E-03 0.  1.
</event>
<event>
 8    1  0.1063984E+005  0.1043930E+01  0.7957747E-01            NaN
         13   -1    0    0    0    0  0.00000000000E+00  0.00000000000E+00  0.74505805969E-08  0.10566000000E+00  0.10566000000E+00 0. -1.
     999900   -1    0    0    0    0 -0.00000000000E+00 -0.00000000000E+00 -0.74505805969E-08  0.93827000000E+00  0.93827000000E+00 0. -1.
     999902    2    1    2    0    0 -0.36462404024E-02 -0.22296450487E-01  0.40035230664E-02  0.10209853934E+01  0.10207275438E+01 0.  0.
     999903    2    3    3    0    0  0.85505752986E-01 -0.43713063878E-01  0.88628765415E-01  0.13218385153E+00  0.19885844186E-01 0.  0.
         14    1    1    2    0    0  0.36462404024E-02  0.22296450487E-01 -0.40035230664E-02  0.22944606563E-01  0.00000000000E+00 0. -1.
     999901    1    3    3    0    0 -0.89151993388E-01  0.21416613391E-01 -0.84625242348E-01  0.88880154191E+00  0.88000000000E+00 0.  1.
        -11    1    4    4    0    0  0.45694562686E-01 -0.27738168644E-01  0.36777346341E-01  0.64886311219E-01  0.51100000000E-03 0. -1.
         11    1    4    4    0    0  0.39811190300E-01 -0.15974895234E-01  0.51851419074E-01  0.67297540310E-01  0.51100000000E-03 0.  1.
</event>
<event>
 8    1  0.1063984E+005  0.1043930E+01  0.7957747E-01            NaN
         13   -1    0    0    0    0  0.00000000000E+00  0.00000000000E+00  0.74505805969E-08  0.10566000000E+00  0.10566000000E+00 0.  1.
     999900   -1    0    0    0    0 -0.00000000000E+00 -0.00000000000E+00 -0.74505805969E-08  0.93827000000E+00  0.93827000000E+00 0.  1.
     999902    2    1    2    0    0 -0.99326412479E-02  0.21182065960E-01  0.38478576316E-02  0.10202204389E+01  0.10199449008E+01 0.  0.
     999903    2    3    3    0    0 -0.32703417152E-01 -0.10360744048E-01 -0.12388505515E+00  0.13014788334E+00  0.20349597966E-01 0.  0.
         14    1    1    2    0    0  0.99326412479E-02 -0.21182065960E-01 -0.38478576316E-02  0.23709561127E-01  0.00000000000E+00 0. -1.
     999901    1    3    3    0    0  0.22770775904E-01  0.31542810008E-01  0.12773291279E+00  0.89007255553E+00  0.88000000000E+00 0. -1.
        -11    1    4    4    0    0 -0.28336772237E-01 -0.22533522117E-02 -0.71285565177E-01  0.76745965240E-01  0.51100000000E-03 0. -1.
         11    1    4    4    0    0 -0.43666449152E-02 -0.81073918367E-02 -0.52599489978E-01  0.53401918103E-01  0.51100000000E-03 0.  1.
</event>
<event>
 8    1  0.1063984E+005  0.1043930E+01  0.7957747E-01            NaN
         13   -1    0    0    0    0  0.00000000000E+00  0.00000000000E+00  0.74505805969E-08  0.10566000000E+00  0.10566000000E+00 0. -1.
     999900   -1    0    0    0    0 -0.00000000000E+00 -0.00000000000E+00 -0.74505805969E-08  0.93827000000E+00  0.93827000000E+00 0.  1.
     999902    2    1    2    0    0 -0.21316926287E-01  0.55868608479E-02 -0.97258794869E-02  0.10198423041E+01  0.10195578003E+01 0.  0.
     999903    2    3    3    0    0 -0.13296182550E-01  0.84949356860E-01 -0.97885839297E-01  0.13184741866E+00  0.20221834045E-01 0.  0.
         14    1    1    2    0    0  0.21316926287E-01 -0.55868608479E-02  0.97258794869E-02  0.24087695869E-01  0.00000000000E+00 0. -1.
     999901    1    3    3    0    0 -0.80207437374E-02 -0.79362496012E-01  0.88159959810E-01  0.88799488547E+00  0.88000000000E+00 0. -1.
        -11    1    4    4    0    0 -0.23252617258E-02  0.27514181632E-01 -0.46089799660E-01  0.53730510762E-01  0.51100000000E-03 0. -1.
         11    1    4    4    0    0 -0.10970920824E-01  0.57435175227E-01 -0.51796039637E-01  0.78116907902E-01  0.51100000000E-03 0.  1.
</event>
<event>
 8    1  0.1063984E+005  0.1043930E+01  0.7957747E-01            NaN
         13   -1    0    0    0    0  0.00000000000E+00  0.00000000000E+00  0.74505805969E-08  0.10566000000E+00  0.10566000000E+00 0.  1.
     999900   -1    0    0    0    0 -0.00000000000E+00 -0.00000000000E+00 -0.74505805969E-08  0.93827000000E+00  0.93827000000E+00 0. -1.
     999902    2    1    2    0    0 -0.88219103937E-02 -0.16448319365E-01 -0.11428019155E-01  0.10220445497E+01  0.10218102019E+01 0.  0.
     999903    2    3    3    0    0 -0.98143876238E-01  0.43814774755E-01  0.73062072855E-01  0.13145562672E+00  0.19762600438E-01 0.  0.
         14    1    1    2    0    0  0.88219103937E-02  0.16448319365E-01  0.11428019155E-01  0.21885450297E-01  0.00000000000E+00 0.  1.
     999901    1    3    3    0    0  0.89321965844E-01 -0.60263094119E-01 -0.84490092010E-01  0.89058892298E+00  0.88000000000E+00 0. -1.
        -11    1    4    4    0    0 -0.73685010395E-01  0.38623526972E-01  0.47997591402E-01  0.96048360184E-01  0.51100000000E-03 0.  1.
         11    1    4    4    0    0 -0.24458865843E-01  0.51912477822E-02  0.25064481453E-01  0.35407266534E-01  0.51100000000E-03 0. -1.
</event>
<event>
 8    1  0.1063984E+005  0.1043930E+01  0.7957747E-01            NaN
         13   -1    0    0    0    0  0.00000000000E+00  0.00000000000E+00  0.74505805969E-08  0.10566000000E+00  0.10566000000E+00 0.  1.
     999900   -1    0    0    0    0 -0.00000000000E+00 -0.00000000000E+00 -0.74505805969E-08  0.93827000000E+00  0.93827000000E+00 0. -1.
     999902    2    1    2    0    0  0.22229575125E-01  0.12159283312E-01  0.40581107898E-03  0.10185889885E+01  0.10182737160E+01 0.  0.
     999903    2    3    3    0    0  0.99848749814E-01  0.19080075871E-01  0.80968538658E-01  0.13147964535E+00  0.19929143305E-01 0.  0.
         14    1    1    2    0    0 -0.22229575125E-01 -0.12159283312E-01 -0.40581107898E-03  0.25341011494E-01  0.00000000000E+00 0. -1.
     999901    1    3    3    0    0 -0.77619174690E-01 -0.69207925586E-02 -0.80562727579E-01  0.88710934316E+00  0.88000000000E+00 0.  1.
        -11    1    4    4    0    0  0.68438876237E-01  0.14861763852E-01  0.43681894996E-01  0.82541631173E-01  0.51100000000E-03 0.  1.
         11    1    4    4    0    0  0.31409873577E-01  0.42183120185E-02  0.37286643663E-01  0.48938014172E-01  0.51100000000E-03 0. -1.
</event>
<event>
 8    1  0.1063984E+005  0.1043930E+01  0.7957747E-01            NaN
         13   -1    0    0    0    0  0.00000000000E+00  0.00000000000E+00  0.74505805969E-08  0.10566000000E+00  0.10566000000E+00 0. -1.
     999900   -1    0    0    0    0 -0.00000000000E+00 -0.00000000000E+00 -0.74505805969E-08  0.93827000000E+00  0.93827000000E+00 0.  1.
     999902    2    1    2    0    0 -0.11996587123E-02  0.19589885195E-01  0.16657955891E-01  0.10181872286E+01  0.10178617501E+01 0.  0.
     999903    2    3    3    0    0 -0.13974669088E-01 -0.10022980127E+00 -0.71557102756E-01  0.12560566109E+00  0.20372989549E-01 0.  0.
         14    1    1    2    0    0  0.11996587123E-02 -0.19589885195E-01 -0.16657955891E-01  0.25742771363E-01  0.00000000000E+00 0.  1.
     999901    1    3    3    0    0  0.12775010376E-01  0.11981968647E+00  0.88215058648E-01  0.89258156755E+00  0.88000000000E+00 0. -1.
        -11    1    4    4    0    0  0.27344838245E-02 -0.49795246937E-01 -0.38783264188E-01  0.63177897412E-01  0.51100000000E-03 0.  1.
         11    1    4    4    0    0 -0.16709152913E-01 -0.50434554335E-01 -0.32773838568E-01  0.62427763676E-01  0.51100000000E-03 0. -1.
</event>
<event>
 8    1  0.1063984E+005  0.1043930E+01  0.7957747E-01            NaN
         13   -1    0    0    0    0  0.00000000000E+00  0.00000000000E+00  0.74505805969E-08  0.10566000000E+00  0.10566000000E+00 0. -1.
     999900   -1    0    0    0    0 -0.00000000000E+00 -0.00000000000E+00 -0.74505805969E-08  0.93827000000E+00  0.93827000000E+00 0. -1.
     999902    2    1    2    0    0 -0.92000844324E-02 -0.22455082436E-01  0.17049237543E-02  0.10196034909E+01  0.10193132490E+01 0.  0.
     999903    2    3    3    0    0 -0.11312783069E+00  0.46215023517E-01  0.39931307360E-01  0.13000930458E+00  0.19343616400E-01 0.  0.
         14    1    1    2    0    0  0.92000844324E-02  0.22455082436E-01 -0.17049237543E-02  0.24326509116E-01  0.00000000000E+00 0. -1.
     999901    1    3    3    0    0  0.10392774626E+00 -0.68670105952E-01 -0.38226383605E-01  0.88959418630E+00  0.88000000000E+00 0. -1.
        -11    1    4    4    0    0 -0.19413130624E-01  0.16287169168E-01  0.83573736195E-02  0.26687981096E-01  0.51100000000E-03 0. -1.
         11    1    4    4    0    0 -0.93714700068E-01  0.29927854349E-01  0.31573933740E-01  0.10332132349E+00  0.51100000000E-03 0.  1.
</event>
<event>
 8    1  0.1063984E+005  0.1043930E+01  0.7957747E-01            NaN
         13   -1    0    0    0    0  0.00000000000E+00  0.00000000000E+00  0.74505805969E-08  0.10566000000E+00  0.10566000000E+00 0.  1.
     999900   -1    0    0    0    0 -0.00000000000E+00 -0.00000000000E+00 -0.74505805969E-08  0.93827000000E+00  0.93827000000E+00 0.  1.
     999902    2    1    2    0    0  0.13380025437E-03 -0.23235141505E-01  0.50661716420E-02  0.10201485829E+01  0.10198713524E+01 0.  0.
     999903    2    3    3    0    0  0.11747621694E+00  0.31126220075E-01 -0.39886373097E-01  0.12956162385E+00  0.20634643004E-01 0.  0.
         14    1    1    2    0    0 -0.13380025437E-03  0.23235141505E-01 -0.50661716420E-02  0.23781417081E-01  0.00000000000E+00 0. -1.
     999901    1    3    3    0    0 -0.11734241669E+00 -0.54361361580E-01  0.44952544739E-01  0.89058695907E+00  0.88000000000E+00 0. -1.
        -11    1    4    4    0    0  0.86113341045E-01  0.14931450158E-01 -0.22701492031E-01  0.90299914569E-01  0.51100000000E-03 0. -1.
         11    1    4    4    0    0  0.31362875899E-01  0.16194769917E-01 -0.17184881066E-01  0.39261709280E-01  0.51100000000E-03 0.  1.
</event>
<event>
 8    1  0.1063984E+005  0.1043930E+01  0.7957747E-01            NaN
         13   -1    0    0    0    0  0.00000000000E+00  0.00000000000E+00  0.74505805969E-08  0.10566000000E+00  0.10566000000E+00 0. -1.
     999900   -1    0    0    0    0 -0.00000000000E+00 -0.00000000000E+00 -0.74505805969E-08  0.93827000000E+00  0.93827000000E+00 0.  1.
     999902    2    1    2    0    0 -0.21377051471E-01  0.12581960895E-01 -0.19792040719E-03  0.10191242901E+01  0.10188223572E+01 0.  0.
     999903    2    3    3    0    0 -0.80449987468E-02  0.97508643135E-01 -0.84737373690E-01  0.13090291899E+00  0.19557459205E-01 0.  0.
         14    1    1    2    0    0  0.21377051471E-01 -0.12581960895E-01  0.19792040719E-03  0.24805709867E-01  0.00000000000E+00 0. -1.
     999901    1    3    3    0    0 -0.13332052724E-01 -0.84926682240E-01  0.84539453282E-01  0.88822137114E+00  0.88000000000E+00 0. -1.
        -11    1    4    4    0    0 -0.10164435626E-01  0.77282033182E-01 -0.57288824473E-01  0.96737267559E-01  0.51100000000E-03 0.  1.
         11    1    4    4    0    0  0.21194368789E-02  0.20226609952E-01 -0.27448549217E-01  0.34165651435E-01  0.51100000000E-03 0. -1.
</event>
<event>
 8    1  0.1063984E+005  0.1043930E+01  0.7957747E-01            NaN
         13   -1    0    0    0    0  0.00000000000E+00  0.00000000000E+00  0.74505805969E-08  0.10566000000E+00  0.10566000000E+00 0.  1.
     999900   -1    0    0    0    0 -0.00000000000E+00 -0.00000000000E+00 -0.74505805969E-08  0.93827000000E+00  0.93827000000E+00 0.  1.
     999902    2    1    2    0    0  0.18691057907E-01  0.27836668641E-02  0.14899566449E-01  0.10198654716E+01  0.10195815213E+01 0.  0.
     999903    2    3    3    0    0 -0.44073643109E-01  0.94414431225E-01  0.76308740527E-01  0.13076103941E+00  0.20465940163E-01 0.  0.
         14    1    1    2    0    0 -0.18691057907E-01 -0.27836668641E-02 -0.14899566449E-01  0.24064528403E-01  0.00000000000E+00 0.  1.
     999901    1    3    3    0    0  0.62764701016E-01 -0.91630764361E-01 -0.61409174078E-01  0.88910443219E+00  0.88000000000E+00 0.  1.
        -11    1    4    4    0    0  0.12639003251E-02  0.58500675838E-02  0.12670710602E-02  0.61390003127E-02  0.51100000000E-03 0. -1.
         11    1    4    4    0    0 -0.45337543434E-01  0.88564363641E-01  0.75041669467E-01  0.12462203910E+00  0.51100000000E-03 0.  1.
</event>
<event>
 8    1  0.1063984E+005  0.1043930E+01  0.7957747E-01            NaN
         13   -1    0    0    0    0  0.00000000000E+00  0.00000000000E+00  0.74505805969E-08  0.10566000000E+00  0.10566000000E+00 0.  1.
     999900   -1    0    0    0    0 -0.00000000000E+00 -0.00000000000E+00 -0.74505805969E-08  0.93827000000E+00  0.93827000000E+00 0.  1.
     999902    2    1    2    0    0  0.21915993771E-01  0.10064173972E-02  0.65242225579E-02  0.10210413753E+01  0.10207847966E+01 0.  0.
     999903    2    3    3    0    0  0.76607868076E-01 -0.10643454465E+00  0.76922027366E-02  0.13282061133E+00  0.19623125738E-01 0.  0.
         14    1    1    2    0    0 -0.21915993771E-01 -0.10064173972E-02 -0.65242225579E-02  0.22888624662E-01  0.00000000000E+00 0.  1.
     999901    1    3    3    0    0 -0.54691874306E-01  0.10744096205E+00 -0.11679801787E-02  0.88822076401E+00  0.88000000000E+00 0.  1.
        -11    1    4    4    0    0  0.43030556065E-01 -0.48776494095E-01  0.11202004061E-01  0.66003947969E-01  0.51100000000E-03 0.  1.
         11    1    4    4    0    0  0.33577312012E-01 -0.57658050558E-01 -0.35098013244E-02  0.66816663359E-01  0.51100000000E-03 0. -1.
</event>
<event>
 8    1  0.1063984E+005  0.1043930E+01  0.7957747E-01            NaN
         13   -1    0    0    0    0  0.00000000000E+00  0.00000000000E+00  0.74505805969E-08  0.10566000000E+00  0.10566000000E+00 0.  1.
     999900   -1    0    0    0    0 -0.00000000000E+00 -0.00000000000E+00 -0.74505805969E-08  0.93827000000E+00  0.93827000000E+00 0.  1.
     999902    2    1    2    0    0 -0.90013318469E-02  0.22176076122E-01 -0.11354495203E-02  0.10199697919E+01  0.10196883273E+01 0.  0.
     999903    2    3    3    0    0 -0.50141283850E-01  0.10747020493E+00 -0.56986403249E-01  0.13312881793E+00  0.20293809741E-01 0.  0.
         14    1    1    2    0    0  0.90013318469E-02 -0.22176076122E-01  0.11354495203E-02  0.23960208113E-01  0.00000000000E+00 0. -1.
     999901    1    3    3    0    0  0.41139952004E-01 -0.85294128808E-01  0.55850953728E-01  0.88684097396E+00  0.88000000000E+00 0. -1.
        -11    1    4    4    0    0 -0.22054987235E-01  0.26141825305E-01 -0.14233213889E-01  0.37049466809E-01  0.51100000000E-03 0. -1.
         11    1    4    4    0    0 -0.28086296615E-01  0.81328379626E-01 -0.42753189360E-01  0.96079351119E-01  0.51100000000E-03 0.  1.
</event>
<event>
 8    1  0.1063984E+005  0.1043930E+01  0.7957747E-01            NaN
         13   -1    0    0    0    0  0.00000000000E+00  0.00000000000E+00  0.74505805969E-08  0.10566000000E+00  0.10566000000E+00 0.  1.
     999900   -1    0    0    0    0 -0.00000000000E+00 -0.00000000000E+00 -0.74505805969E-08  0.93827000000E+00  0.93827000000E+00 0.  1.
     999902    2    1    2    0    0  0.19358352279E-01 -0.14850550602E-01  0.61902420977E-03  0.10195236925E+01  0.10192315201E+01 0.  0.
     999903    2    3    3    0    0  0.57258216000E-01 -0.49164509585E-01  0.10626604399E+00  0.13173140807E+00  0.19106005980E-01 0.  0.
         14    1    1    2    0    0 -0.19358352279E-01  0.14850550602E-01 -0.61902420977E-03  0.24406307527E-01  0.00000000000E+00 0.  1.
     999901    1    3    3    0    0 -0.37899863721E-01  0.34313958983E-01 -0.10564701978E+00  0.88779228440E+00  0.88000000000E+00 0.  1.
        -11    1    4    4    0    0  0.20170665162E-01 -0.25705689653E-01  0.33817048526E-01  0.47026504289E-01  0.51100000000E-03 0. -1.
         11    1    4    4    0    0  0.37087550838E-01 -0.23458819932E-01  0.72448995467E-01  0.84704903783E-01  0.51100000000E-03 0.  1.
</event>
<event>
 8    1  0.1063984E+005  0.1043930E+01  0.7957747E-01            NaN
         13   -1    0    0    0    0  0.00000000000E+00  0.00000000000E+00  0.74505805969E-08  0.10566000000E+00  0.10566000000E+00 0.  1.
     999900   -1    0    0    0    0 -0.00000000000E+00 -0.00000000000E+00 -0.74505805969E-08  0.93827000000E+00  0.93827000000E+00 0. -1.
     999902    2    1    2    0    0  0.88974880893E-02 -0.21939088159E-01  0.11797106501E-02  0.10202259792E+01  0.10199505714E+01 0.  0.
     999903    2    3    3    0    0 -0.71836243094E-01  0.60170442885E-01 -0.85433997310E-01  0.12850750076E+00  0.20839429833E-01 0.  0.
         14    1    1    2    0    0 -0.88974880893E-02  0.21939088159E-01 -0.11797106501E-02  0.23704020772E-01  0.00000000000E+00 0.  1.
     999901    1    3    3    0    0  0.80733731183E-01 -0.82109531044E-01  0.86613707960E-01  0.89171847847E+00  0.88000000000E+00 0.  1.
        -11    1    4    4    0    0 -0.38991951461E-01  0.40025637252E-01 -0.38885321840E-01  0.68079022406E-01  0.51100000000E-03 0.  1.
         11    1    4    4    0    0 -0.32844291633E-01  0.20144805633E-01 -0.46548675470E-01  0.60428478351E-01  0.51100000000E-03 0. -1.
</event>
<event>
 8    1  0.1063984E+005  0.1043930E+01  0.7957747E-01            NaN
         13   -1    0    0    0    0  0.00000000000E+00  0.00000000000E+00  0.74505805969E-08  0.10566000000E+00  0.10566000000E+00 0. -1.
     999900   -1    0    0    0    0 -0.00000000000E+00 -0.00000000000E+00 -0.74505805969E-08  0.93827000000E+00  0.93827000000E+00 0. -1.
     999902    2    1    2    0    0 -0.46268822635E-02 -0.86000657562E-02  0.21854682666E-01  0.10199926584E+01  0.10197117371E+01 0.  0.
     999903    2    3    3    0    0 -0.12839851379E+00  0.10948668202E-01  0.14803669142E-01  0.13108811536E+00  0.18944489678E-01 0.  0.
         14    1    1    2    0    0  0.46268822635E-02  0.86000657562E-02 -0.21854682666E-01  0.23937341643E-01  0.00000000000E+00 0.  1.
     999901    1    3    3    0    0  0.12377163153E+00 -0.19548733959E-01  0.70510135246E-02  0.88890454300E+00  0.88000000000E+00 0.  1.
        -11    1    4    4    0    0 -0.92852935592E-01  0.40374701149E-02  0.29721981620E-02  0.92989590256E-01  0.51100000000E-03 0. -1.
         11    1    4    4    0    0 -0.35545578199E-01  0.69111980876E-02  0.11831470980E-01  0.38098525103E-01  0.51100000000E-03 0.  1.
</event>
<event>
 8    1  0.1063984E+005  0.1043930E+01  0.7957747E-01            NaN
         13   -1    0    0    0    0  0.00000000000E+00  0.00000000000E+00  0.74505805969E-08  0.10566000000E+00  0.10566000000E+00 0.  1.
     999900   -1    0    0    0    0 -0.00000000000E+00 -0.00000000000E+00 -0.74505805969E-08  0.93827000000E+00  0.93827000000E+00 0. -1.
     999902    2    1    2    0    0 -0.18147497277E-01  0.82738501034E-02 -0.13424371102E-01  0.10198883280E+01  0.10196049233E+01 0.  0.
     999903    2    3    3    0    0 -0.17357792202E-01  0.11535822072E+00  0.55794175498E-01  0.13069830711E+00  0.18980132372E-01 0.  0.
         14    1    1    2    0    0  0.18147497277E-01 -0.82738501034E-02  0.13424371102E-01  0.24041671997E-01  0.00000000000E+00 0. -1.
     999901    1    3    3    0    0 -0.78970507523E-03 -0.10708437061E+00 -0.69218546600E-01  0.88919002089E+00  0.88000000000E+00 0.  1.
        -11    1    4    4    0    0 -0.14951865919E-01  0.51381979905E-01  0.32255950307E-01  0.62484987034E-01  0.51100000000E-03 0.  1.
         11    1    4    4    0    0 -0.24059262828E-02  0.63976240810E-01  0.23538225192E-01  0.68213320075E-01  0.51100000000E-03 0. -1.
</event>
<event>
 8    1  0.1063984E+005  0.1043930E+01  0.7957747E-01            NaN
         13   -1    0    0    0    0  0.00000000000E+00  0.00000000000E+00  0.74505805969E-08  0.10566000000E+00  0.10566000000E+00 0.  1.
     999900   -1    0    0    0    0 -0.00000000000E+00 -0.00000000000E+00 -0.74505805969E-08  0.93827000000E+00  0.93827000000E+00 0.  1.
     999902    2    1    2    0    0  0.73871145278E-02  0.20340007525E-01 -0.96555243150E-02  0.10202337025E+01  0.10199584762E+01 0.  0.
     999903    2    3    3    0    0  0.52848383106E-01 -0.11480787149E+00 -0.13515948613E-01  0.12874810021E+00  0.20483981245E-01 0.  0.
         14    1    1    2    0    0 -0.73871145278E-02 -0.20340007525E-01  0.96555243150E-02  0.23696297537E-01  0.00000000000E+00 0.  1.
     999901    1    3    3    0    0 -0.45461268578E-01  0.13514787902E+00  0.38604242984E-02  0.89148560225E+00  0.88000000000E+00 0. -1.
        -11    1    4    4    0    0  0.27148581849E-01 -0.79199348976E-01 -0.40514323061E-02  0.83822774944E-01  0.51100000000E-03 0.  1.
         11    1    4    4    0    0  0.25699801257E-01 -0.35608522518E-01 -0.94645163072E-02  0.44925325269E-01  0.51100000000E-03 0. -1.
</event>
<event>
 8    1  0.1063984E+005  0.1043930E+01  0.7957747E-01            NaN
         13   -1    0    0    0    0  0.00000000000E+00  0.00000000000E+00  0.74505805969E-08  0.10566000000E+00  0.10566000000E+00 0. -1.
     999900   -1    0    0    0    0 -0.00000000000E+00 -0.00000000000E+00 -0.74505805969E-08  0.93827000000E+00  0.93827000000E+00 0.  1.
     999902    2    1    2    0    0  0.20173826880E-01 -0.10312928567E-01 -0.67743121997E-02  0.10202819326E+01  0.10200078386E+01 0.  0.
     999903    2    3    3    0    0  0.58966154088E-01 -0.80691720509E-01  0.83850097279E-01  0.13198535903E+00  0.20028357319E-01 0.  0.
         14    1    1    2    0    0 -0.20173826880E-01  0.10312928567E-01  0.67743121997E-02  0.23648067414E-01  0.00000000000E+00 0.  1.
     999901    1    3    3    0    0 -0.38792327207E-01  0.70378791942E-01 -0.90624409479E-01  0.88829657356E+00  0.88000000000E+00 0.  1.
        -11    1    4    4    0    0  0.44264011729E-01 -0.67270704176E-01  0.75519621795E-01  0.11039984045E+00  0.51100000000E-03 0. -1.
         11    1    4    4    0    0  0.14702142358E-01 -0.13421016333E-01  0.83304754847E-02  0.21585518575E-01  0.51100000000E-03 0.  1.
</event>
<event>
 8    1  0.1063984E+005  0.1043930E+01  0.7957747E-01            NaN
         13   -1    0    0    0    0  0.00000000000E+00  0.00000000000E+00  0.74505805969E-08  0.10566000000E+00  0.10566000000E+00 0.  1.
     999900   -1    0    0    0    0 -0.00000000000E+00 -0.00000000000E+00 -0.74505805969E-08  0.93827000000E+00  0.93827000000E+00 0.  1.
     999902    2    1    2    0    0  0.21405552546E-01  0.60353502226E-02 -0.80045561464E-02  0.10202932479E+01  0.10200194192E+01 0.  0.
     999903    2    3    3    0    0  0.74314709011E-01 -0.34026553908E-01  0.10062081331E+00  0.13113420367E+00  0.19777486013E-01 0.  0.
         14    1    1    2    0    0 -0.21405552546E-01 -0.60353502226E-02  0.80045561464E-02  0.23636752129E-01  0.00000000000E+00 0.  1.
     999901    1    3    3    0    0 -0.52909156465E-01  0.40061904130E-01 -0.10862536946E+00  0.88915904420E+00  0.88000000000E+00 0.  1.
        -11    1    4    4    0    0  0.55748375743E-01 -0.26283725443E-01  0.61114790604E-01  0.86798585084E-01  0.51100000000E-03 0. -1.
         11    1    4    4    0    0  0.18566333269E-01 -0.77428284646E-02  0.39506022710E-01  0.44335618582E-01  0.51100000000E-03 0.  1.
</event>
<event>
 8    1  0.1063984E+005  0.1043930E+01  0.7957747E-01            NaN
         13   -1    0    0    0    0  0.00000000000E+00  0.00000000000E+00  0.74505805969E-08  0.10566000000E+00  0.10566000000E+00 0. -1.
     999900   -1    0    0    0    0 -0.00000000000E+00 -0.00000000000E+00 -0.74505805969E-08  0.93827000000E+00  0.93827000000E+00 0.  1.
     999902    2    1    2    0    0  0.21213126205E-01  0.24222250253E-02  0.13933391400E-02  0.10225336150E+01  0.10223097322E+01 0.  0.
     999903    2    3    3    0    0 -0.97358292147E-01  0.42143910720E-01  0.75800595272E-01  0.13058438251E+00  0.71975308729E-02 0.  0.
         14    1    1    2    0    0 -0.21213126205E-01 -0.24222250253E-02 -0.13933391400E-02  0.21396385009E-01  0.00000000000E+00 0. -1.
     999901    1    3    3    0    0  0.11857141835E+00 -0.39721685694E-01 -0.74407256132E-01  0.89194923248E+00  0.88000000000E+00 0.  1.
        -11    1    4    4    0    0 -0.80572534180E-01  0.36629869868E-01  0.65673354280E-01  0.11021311725E+00  0.51100000000E-03 0. -1.
         11    1    4    4    0    0 -0.16785757967E-01  0.55140408516E-02  0.10127240992E-01  0.20371265256E-01  0.51100000000E-03 0.  1.
</event>
<event>
 8    1  0.1063984E+005  0.1043930E+01  0.7957747E-01            NaN
         13   -1    0    0    0    0  0.00000000000E+00  0.00000000000E+00  0.74505805969E-08  0.10566000000E+00  0.10566000000E+00 0.  1.
     999900   -1    0    0    0    0 -0.00000000000E+00 -0.00000000000E+00 -0.74505805969E-08  0.93827000000E+00  0.93827000000E+00 0.  1.
     999902    2    1    2    0    0 -0.90344781275E-02 -0.22691664482E-01  0.48630900974E-03  0.10195011251E+01  0.10192084057E+01 0.  0.
     999903    2    3    3    0    0 -0.41608352153E-01  0.11309789342E+00  0.37278991974E-01  0.12773122047E+00  0.20078669655E-01 0.  0.
         14    1    1    2    0    0  0.90344781275E-02  0.22691664482E-01 -0.48630900974E-03  0.24428874892E-01  0.00000000000E+00 0.  1.
     999901    1    3    3    0    0  0.32573874026E-01 -0.13578955790E+00 -0.36792682965E-01  0.89176990464E+00  0.88000000000E+00 0.  1.
        -11    1    4    4    0    0 -0.33834254795E-02  0.34397138046E-01  0.81392017951E-02  0.35512228888E-01  0.51100000000E-03 0.  1.
         11    1    4    4    0    0 -0.38224926674E-01  0.78700755371E-01  0.29139790179E-01  0.92218991579E-01  0.51100000000E-03 0. -1.
</event>
<event>
 8    1  0.1063984E+005  0.1043930E+01  0.7957747E-01            NaN
         13   -1    0    0    0    0  0.00000000000E+00  0.00000000000E+00  0.74505805969E-08  0.10566000000E+00  0.10566000000E+00 0.  1.
     999900   -1    0    0    0    0 -0.00000000000E+00 -0.00000000000E+00 -0.74505805969E-08  0.93827000000E+00  0.93827000000E+00 0. -1.
     999902    2    1    2    0    0  0.31748368200E-02 -0.13135545422E-01  0.19097346186E-01  0.10205348985E+01  0.10202667045E+01 0.  0.
     999903    2    3    3    0    0 -0.50096198158E-01 -0.39006550989E-02  0.12148966159E+00  0.13294981942E+00  0.19775551355E-01 0.  0.
         14    1    1    2    0    0 -0.31748368200E-02  0.13135545422E-01 -0.19097346186E-01  0.23395101489E-01  0.00000000000E+00 0. -1.
     999901    1    3    3    0    0  0.53271034978E-01 -0.92348903230E-02 -0.10239231540E+00  0.88758507909E+00  0.88000000000E+00 0. -1.
        -11    1    4    4    0    0 -0.46587004241E-01  0.17515740376E-02  0.97901785583E-01  0.10843633025E+00  0.51100000000E-03 0.  1.
         11    1    4    4    0    0 -0.35091939169E-02 -0.56522291364E-02  0.23587876006E-01  0.24513489177E-01  0.51100000000E-03 0. -1.
</event>
<event>
 8    1  0.1063984E+005  0.1043930E+01  0.7957747E-01            NaN
         13   -1    0    0    0    0  0.00000000000E+00  0.00000000000E+00  0.74505805969E-08  0.10566000000E+00  0.10566000000E+00 0.  1.
     999900   -1    0    0    0    0 -0.00000000000E+00 -0.00000000000E+00 -0.74505805969E-08  0.93827000000E+00  0.93827000000E+00 0.  1.
     999902    2    1    2    0    0 -0.23939029536E-02 -0.10622114769E-01  0.20995642798E-01  0.10202788455E+01  0.10200046791E+01 0.  0.
     999903    2    3    3    0    0  0.63372792406E-01  0.26483189717E-01  0.11145470780E+00  0.13242474470E+00  0.19917102242E-01 0.  0.
         14    1    1    2    0    0  0.23939029536E-02  0.10622114769E-01 -0.20995642798E-01  0.23651154518E-01  0.00000000000E+00 0. -1.
     999901    1    3    3    0    0 -0.65766695359E-01 -0.37105304486E-01 -0.90459065005E-01  0.88785410079E+00  0.88000000000E+00 0.  1.
        -11    1    4    4    0    0  0.26265367558E-01  0.78577965719E-03  0.44285209861E-01  0.51496872876E-01  0.51100000000E-03 0. -1.
         11    1    4    4    0    0  0.37107424848E-01  0.25697410060E-01  0.67169497942E-01  0.80927871821E-01  0.51100000000E-03 0.  1.
</event>
<event>
 8    1  0.1268260E+005  0.1043930E+01  0.7957747E-01            NaN
         13   -1    0    0    0    0  0.00000000000E+00  0.00000000000E+00  0.74505805969E-08  0.10566000000E+00  0.10566000000E+00 0.  1.
     999900   -1    0    0    0    0 -0.00000000000E+00 -0.00000000000E+00 -0.74505805969E-08  0.93827000000E+00  0.93827000000E+00 0. -1.
     999902    2    1    2    0    0 -0.19006249214E-01 -0.96504498951E-02  0.11806097888E-01  0.10195629600E+01  0.10192717384E+01 0.  0.
     999903    2    3    3    0    0  0.11493016894E-01  0.21313479543E-01 -0.12419604747E+00  0.12805549859E+00  0.19677364248E-01 0.  0.
         14    1    1    2    0    0  0.19006249214E-01  0.96504498951E-02 -0.11806097888E-01  0.24367040027E-01  0.00000000000E+00 0. -1.
     999901    1    3    3    0    0 -0.30499266108E-01 -0.30963929438E-01  0.13600214536E+00  0.89150746138E+00  0.88000000000E+00 0.  1.
        -11    1    4    4    0    0  0.32166514581E-02  0.21653463181E-01 -0.73775561246E-01  0.76956571341E-01  0.51100000000E-03 0.  1.
         11    1    4    4    0    0  0.82763654359E-02 -0.33998363822E-03 -0.50420486226E-01  0.51098927249E-01  0.51100000000E-03 0. -1.
</event>
<event>
 7    1  0.1413842E+005  0.1043930E+01  0.7957747E-01            NaN
         13   -1    0    0    0    0  0.00000000000E+00  0.00000000000E+00  0.74505805969E-08  0.10566000000E+00  0.10566000000E+00 0. -1.
     999900   -1    0    0    0    0 -0.00000000000E+00 -0.00000000000E+00 -0.74505805969E-08  0.93827000000E+00  0.93827000000E+00 0.  1.
     999903    2    1    2    0    0 -0.23091850238E-01 -0.59213371978E-01 -0.88988347725E-01  0.11114768351E+00  0.19885284772E-01 0.  0.
         14    1    1    2    0    0 -0.19410990359E-01 -0.35681766543E-01 -0.78951737590E-02  0.41380052913E-01  0.00000000000E+00 0. -1.
     999901    1    1    2    0    0  0.42502840597E-01  0.94895138522E-01  0.96883521484E-01  0.89140226358E+00  0.88000000000E+00 0.  1.
        -11    1    3    3    0    0 -0.22212068115E-01 -0.30044822018E-01 -0.51895224799E-01  0.63948751184E-01  0.51100000000E-03 0. -1.
         11    1    3    3    0    0 -0.87978212274E-03 -0.29168549960E-01 -0.37093122926E-01  0.47198932327E-01  0.51100000000E-03 0.  1.
</event>
<event>
 8    1  0.1063984E+005  0.1043930E+01  0.7957747E-01            NaN
         13   -1    0    0    0    0  0.00000000000E+00  0.00000000000E+00  0.74505805969E-08  0.10566000000E+00  0.10566000000E+00 0. -1.
     999900   -1    0    0    0    0 -0.00000000000E+00 -0.00000000000E+00 -0.74505805969E-08  0.93827000000E+00  0.93827000000E+00 0. -1.
     999902    2    1    2    0    0 -0.12777234142E-02 -0.93594886931E-02  0.21558033207E-01  0.10203931905E+01  0.10201216995E+01 0.  0.
     999903    2    3    3    0    0  0.27214930135E-01  0.12415707542E+00 -0.12302375811E-01  0.12922259432E+00  0.19786324395E-01 0.  0.
         14    1    1    2    0    0  0.12777234142E-02  0.93594886931E-02 -0.21558033207E-01  0.23536809501E-01  0.00000000000E+00 0.  1.
     999901    1    3    3    0    0 -0.28492653550E-01 -0.13351656411E+00  0.33860409018E-01  0.89117059618E+00  0.88000000000E+00 0.  1.
        -11    1    4    4    0    0  0.94384925635E-02  0.64458271771E-01  0.25039636349E-02  0.65195742932E-01  0.51100000000E-03 0.  1.
         11    1    4    4    0    0  0.17776437572E-01  0.59698803647E-01 -0.14806339446E-01  0.64026851386E-01  0.51100000000E-03 0. -1.
</event>
<event>
 8    1  0.1063984E+005  0.1043930E+01  0.7957747E-01            NaN
         13   -1    0    0    0    0  0.00000000000E+00  0.00000000000E+00  0.74505805969E-08  0.10566000000E+00  0.10566000000E+00 0.  1.
     999900   -1    0    0    0    0 -0.00000000000E+00 -0.00000000000E+00 -0.74505805969E-08  0.93827000000E+00  0.93827000000E+00 0.  1.
     999902    2    1    2    0    0 -0.66999761870E-02 -0.21558511407E-01  0.35775293943E-02  0.10210726639E+01  0.10208167942E+01 0.  0.
     999903    2    3    3    0    0 -0.11200399288E-01 -0.89058668792E-01  0.97184345493E-01  0.13352618005E+00  0.18098296010E-01 0.  0.
         14    1    1    2    0    0  0.66999761870E-02  0.21558511407E-01 -0.35775293943E-02  0.22857336055E-01  0.00000000000E+00 0. -1.
     999901    1    3    3    0    0  0.45004231006E-02  0.67500157385E-01 -0.93606816099E-01  0.88754648390E+00  0.88000000000E+00 0.  1.
        -11    1    4    4    0    0  0.10677836309E-02 -0.51267651507E-01  0.61927506650E-01  0.80403914418E-01  0.51100000000E-03 0.  1.
         11    1    4    4    0    0 -0.12268182919E-01 -0.37791017285E-01  0.35256838843E-01  0.53122265631E-01  0.51100000000E-03 0. -1.
</event>
<event>
 8    1  0.1063984E+005  0.1043930E+01  0.7957747E-01            NaN
         13   -1    0    0    0    0  0.00000000000E+00  0.00000000000E+00  0.74505805969E-08  0.10566000000E+00  0.10566000000E+00 0.  1.
     999900   -1    0    0    0    0 -0.00000000000E+00 -0.00000000000E+00 -0.74505805969E-08  0.93827000000E+00  0.93827000000E+00 0. -1.
     999902    2    1    2    0    0 -0.18872713618E-01 -0.12658714052E-01  0.30137242356E-02  0.10210061065E+01  0.10207487274E+01 0.  0.
     999903    2    3    3    0    0 -0.38574807345E-01  0.12096275120E+00 -0.22124805001E-01  0.13034634308E+00  0.19510489933E-01 0.  0.
         14    1    1    2    0    0  0.18872713618E-01  0.12658714052E-01 -0.30137242356E-02  0.22923893529E-01  0.00000000000E+00 0.  1.
     999901    1    3    3    0    0  0.19702093728E-01 -0.13362146525E+00  0.25138529237E-01  0.89065976339E+00  0.88000000000E+00 0. -1.
        -11    1    4    4    0    0 -0.36571260307E-01  0.10377622417E+00 -0.13057443448E-01  0.11080487234E+00  0.51100000000E-03 0.  1.
         11    1    4    4    0    0 -0.20035470384E-02  0.17186527032E-01 -0.90673615532E-02  0.19541470741E-01  0.51100000000E-03 0. -1.
</event>
<event>
 8    1  0.1063984E+005  0.1043930E+01  0.7957747E-01            NaN
         13   -1    0    0    0    0  0.00000000000E+00  0.00000000000E+00  0.74505805969E-08  0.10566000000E+00  0.10566000000E+00 0.  1.
     999900   -1    0    0    0    0 -0.00000000000E+00 -0.00000000000E+00 -0.74505805969E-08  0.93827000000E+00  0.93827000000E+00 0.  1.
     999902    2    1    2    0    0  0.22187045191E-01 -0.92506738715E-02  0.86747918949E-03  0.10198760510E+01  0.10195923533E+01 0.  0.
     999903    2    3    3    0    0 -0.30006134961E-01  0.12291031803E+00  0.87069566410E-02  0.12844343257E+00  0.20361479890E-01 0.  0.
         14    1    1    2    0    0 -0.22187045191E-01  0.92506738715E-02 -0.86747918949E-03  0.24053948980E-01  0.00000000000E+00 0.  1.
     999901    1    3    3    0    0  0.52193180152E-01 -0.13216099190E+00 -0.78394774515E-02  0.89143261845E+00  0.88000000000E+00 0.  1.
        -11    1    4    4    0    0 -0.22960045783E-01  0.54065814169E-01  0.41782032078E-03  0.58742758353E-01  0.51100000000E-03 0. -1.
         11    1    4    4    0    0 -0.70460891772E-02  0.68844503857E-01  0.82891363202E-02  0.69700674215E-01  0.51100000000E-03 0.  1.
</event>
<event>
 8    1  0.1063984E+005  0.1043930E+01  0.7957747E-01            NaN
         13   -1    0    0    0    0  0.00000000000E+00  0.00000000000E+00  0.74505805969E-08  0.10566000000E+00  0.10566000000E+00 0. -1.
     999900   -1    0    0    0    0 -0.00000000000E+00 -0.00000000000E+00 -0.74505805969E-08  0.93827000000E+00  0.93827000000E+00 0.  1.
     999902    2    1    2    0    0 -0.46859802813E-02 -0.11790776472E-01 -0.95968244180E-02  0.10280215161E+01  0.10278984180E+01 0.  0.
     999903    2    3    3    0    0 -0.48199440069E-01 -0.95289753510E-01  0.85053678820E-01  0.13795173338E+00  0.19830010472E-01 0.  0.
         14    1    1    2    0    0  0.46859802813E-02  0.11790776472E-01  0.95968244180E-02  0.15908483898E-01  0.00000000000E+00 0. -1.
     999901    1    3    3    0    0  0.43513459787E-01  0.83498977038E-01 -0.94650503237E-01  0.89006978272E+00  0.88000000000E+00 0.  1.
        -11    1    4    4    0    0 -0.11485454864E-01 -0.44364417480E-01  0.36000554718E-01  0.58278797798E-01  0.51100000000E-03 0.  1.
         11    1    4    4    0    0 -0.36713985205E-01 -0.50925336030E-01  0.49053124102E-01  0.79672935584E-01  0.51100000000E-03 0. -1.
</event>
<event>
 8    1  0.1063984E+005  0.1043930E+01  0.7957747E-01            NaN
         13   -1    0    0    0    0  0.00000000000E+00  0.00000000000E+00  0.74505805969E-08  0.10566000000E+00  0.10566000000E+00 0.  1.
     999900   -1    0    0    0    0 -0.00000000000E+00 -0.00000000000E+00 -0.74505805969E-08  0.93827000000E+00  0.93827000000E+00 0. -1.
     999902    2    1    2    0    0  0.12833478031E-01  0.13348507581E-01 -0.14361312560E-01  0.10204965173E+01  0.10202274323E+01 0.  0.
     999903    2    3    3    0    0 -0.98048987480E-02 -0.12602573311E+00  0.15059775485E-01  0.12875480834E+00  0.19297211924E-01 0.  0.
         14    1    1    2    0    0 -0.12833478031E-01 -0.13348507581E-01  0.14361312560E-01  0.23433482700E-01  0.00000000000E+00 0.  1.
     999901    1    3    3    0    0  0.22638376779E-01  0.13937424069E+00 -0.29421088045E-01  0.89174170896E+00  0.88000000000E+00 0. -1.
        -11    1    4    4    0    0  0.31966144461E-02 -0.48303814054E-01 -0.57343189428E-03  0.48415563006E-01  0.51100000000E-03 0. -1.
         11    1    4    4    0    0 -0.13001513194E-01 -0.77721919058E-01  0.15633207380E-01  0.80339245337E-01  0.51100000000E-03 0.  1.
</event>
<event>
 8    1  0.1063984E+005  0.1043930E+01  0.7957747E-01            NaN
         13   -1    0    0    0    0  0.00000000000E+00  0.00000000000E+00  0.74505805969E-08  0.10566000000E+00  0.10566000000E+00 0.  1.
     999900   -1    0    0    0    0 -0.00000000000E+00 -0.00000000000E+00 -0.74505805969E-08  0.93827000000E+00  0.93827000000E+00 0.  1.
     999902    2    1    2    0    0 -0.73327552097E-02 -0.26784204894E-01 -0.77896881106E-02  0.10150883258E+01  0.10146785042E+01 0.  0.
     999903    2    3    3    0    0 -0.63277944651E-01 -0.10699324214E+00  0.28456297723E-01  0.12892969136E+00  0.19011898627E-01 0.  0.
         14    1    1    2    0    0  0.73327552097E-02  0.26784204894E-01  0.77896881106E-02  0.28841674217E-01  0.00000000000E+00 0.  1.
     999901    1    3    3    0    0  0.55945189441E-01  0.80209037251E-01 -0.36245985834E-01  0.88615863443E+00  0.88000000000E+00 0.  1.
        -11    1    4    4    0    0 -0.15084297858E-01 -0.39201207736E-01  0.15360400584E-01  0.44726656000E-01  0.51100000000E-03 0.  1.
         11    1    4    4    0    0 -0.48193646793E-01 -0.67792034409E-01  0.13095897139E-01  0.84203035357E-01  0.51100000000E-03 0. -1.
</event>
<event>
 8    1  0.1063984E+005  0.1043930E+01  0.7957747E-01            NaN
         13   -1    0    0    0    0  0.00000000000E+00  0.00000000000E+00  0.74505805969E-08  0.10566000000E+00  0.10566000000E+00 0. -1.
     999900   -1    0    0    0    0 -0.00000000000E+00 -0.00000000000E+00 -0.74505805969E-08  0.93827000000E+00  0.93827000000E+00 0. -1.
     999902    2    1    2    0    0 -0.11495974265E-01 -0.18645052411E-01 -0.51571393882E-02  0.10214268560E+01  0.10211789415E+01 0.  0.
     999903    2    3    3    0    0  0.28764363405E-01 -0.16727492898E-01  0.12503185539E+00  0.13093612264E+00  0.20102381156E-01 0.  0.
         14    1    1    2    0    0  0.11495974265E-01  0.18645052411E-01  0.51571393882E-02  0.22503144011E-01  0.00000000000E+00 0. -1.
     999901    1    3    3    0    0 -0.40260337671E-01 -0.19175595134E-02 -0.13018899478E+00  0.89049073335E+00  0.88000000000E+00 0. -1.
        -11    1    4    4    0    0  0.29573102525E-01 -0.87601141444E-02  0.98517102736E-01  0.10323366043E+00  0.51100000000E-03 0. -1.
         11    1    4    4    0    0 -0.80873911942E-03 -0.79673787531E-02  0.26514752654E-01  0.27702462209E-01  0.51100000000E-03 0.  1.
</event>
<event>
 8    1  0.1063984E+005  0.1043930E+01  0.7957747E-01            NaN
         13   -1    0    0    0    0  0.00000000000E+00  0.00000000000E+00  0.74505805969E-08  0.10566000000E+00  0.10566000000E+00 0.  1.
     999900   -1    0    0    0    0 -0.00000000000E+00 -0.00000000000E+00 -0.74505805969E-08  0.93827000000E+00  0.93827000000E+00 0. -1.
     999902    2    1    2    0    0 -0.18475155994E-01 -0.24241364327E-02  0.10868600355E-01  0.10223583913E+01  0.10221307872E+01 0.  0.
     999903    2    3    3    0    0  0.85068468765E-01  0.97034136449E-01  0.26939448408E-02  0.13068577470E+00  0.20475506245E-01 0.  0.
         14    1    1    2    0    0  0.18475155994E-01  0.24241364327E-02 -0.10868600355E-01  0.21571608659E-01  0.00000000000E+00 0.  1.
     999901    1    3    3    0    0 -0.10354362476E+00 -0.99458272882E-01  0.81746555145E-02  0.89167261664E+00  0.88000000000E+00 0.  1.
        -11    1    4    4    0    0  0.22849980785E-01  0.40387160046E-01 -0.15814994069E-02  0.46432817919E-01  0.51100000000E-03 0.  1.
         11    1    4    4    0    0  0.62218487980E-01  0.56646976403E-01  0.42754442477E-02  0.84252956783E-01  0.51100000000E-03 0. -1.
</event>
<event>
 8    1  0.1063984E+005  0.1043930E+01  0.7957747E-01            NaN
         13   -1    0    0    0    0  0.00000000000E+00  0.00000000000E+00  0.74505805969E-08  0.10566000000E+00  0.10566000000E+00 0. -1.
     999900   -1    0    0    0    0 -0.00000000000E+00 -0.00000000000E+00 -0.74505805969E-08  0.93827000000E+00  0.93827000000E+00 0.  1.
     999902    2    1    2    0    0 -0.93972849137E-02  0.13633894822E-01 -0.16273532874E-01  0.10207131974E+01  0.10204491224E+01 0.  0.
     999903    2    3    3    0    0 -0.10206271044E+00 -0.40312765705E-01  0.67487693984E-01  0.13025653566E+00  0.19242149107E-01 0.  0.
         14    1    1    2    0    0  0.93972849137E-02 -0.13633894822E-01  0.16273532874E-01  0.23216802621E-01  0.00000000000E+00 0. -1.
     999901    1    3    3    0    0  0.92665425527E-01  0.53946660527E-01 -0.83761226857E-01  0.89045666172E+00  0.88000000000E+00 0. -1.
        -11    1    4    4    0    0 -0.29258536576E-01 -0.18570454184E-01  0.28406313377E-01  0.44811867756E-01  0.51100000000E-03 0.  1.
         11    1    4    4    0    0 -0.72804173865E-01 -0.21742311522E-01  0.39081380607E-01  0.85444667907E-01  0.51100000000E-03 0. -1.
</event>
<event>
 8    1  0.1063984E+005  0.1043930E+01  0.7957747E-01            NaN
         13   -1    0    0    0    0  0.00000000000E+00  0.00000000000E+00  0.74505805969E-08  0.10566000000E+00  0.10566000000E+00 0. -1.
     999900   -1    0    0    0    0 -0.00000000000E+00 -0.00000000000E+00 -0.74505805969E-08  0.93827000000E+00  0.93827000000E+00 0. -1.
     999902    2    1    2    0    0 -0.12449082743E-01 -0.13511607000E-01  0.13521593212E-01  0.10211182340E+01  0.10208633949E+01 0.  0.
     999903    2    3    3    0    0 -0.77607094089E-01  0.56162580198E-01  0.89681606482E-01  0.13269243157E+00  0.19682336956E-01 0.  0.
         14    1    1    2    0    0  0.12449082743E-01  0.13511607000E-01 -0.13521593212E-01  0.22811765996E-01  0.00000000000E+00 0.  1.
     999901    1    3    3    0    0  0.65158011346E-01 -0.69674187198E-01 -0.76160013270E-01  0.88842580243E+00  0.88000000000E+00 0. -1.
        -11    1    4    4    0    0 -0.44521408969E-01  0.25721209474E-01  0.58984079086E-01  0.78250362172E-01  0.51100000000E-03 0.  1.
         11    1    4    4    0    0 -0.33085685120E-01  0.30441370724E-01  0.30697527396E-01  0.54442069401E-01  0.51100000000E-03 0. -1.
</event>
<event>
 8    1  0.1063984E+005  0.1043930E+01  0.7957747E-01            NaN
         13   -1    0    0    0    0  0.00000000000E+00  0.00000000000E+00  0.74505805969E-08  0.10566000000E+00  0.10566000000E+00 0.  1.
     999900   -1    0    0    0    0 -0.00000000000E+00 -0.00000000000E+00 -0.74505805969E-08  0.93827000000E+00  0.93827000000E+00 0.  1.
     999902    2    1    2    0    0  0.11032306986E-02  0.19694252764E-01  0.10340501659E-01  0.10216587925E+01  0.10214160179E+01 0.  0.
     999903    2    3    3    0    0 -0.94554088217E-01  0.18267976002E-01 -0.86696944034E-01  0.13117093585E+00  0.20377923410E-01 0.  0.
         14    1    1    2    0    0 -0.11032306986E-02 -0.19694252764E-01 -0.10340501659E-01  0.22271207522E-01  0.00000000000E+00 0. -1.
     999901    1    3    3    0    0  0.95657318915E-01  0.14262767619E-02  0.97037445694E-01  0.89048785662E+00  0.88000000000E+00 0. -1.
        -11    1    4    4    0    0 -0.19890890059E-01  0.11012029161E-01 -0.13979993743E-01  0.26694824211E-01  0.51100000000E-03 0. -1.
         11    1    4    4    0    0 -0.74663198157E-01  0.72559468410E-02 -0.72716950291E-01  0.10447611164E+00  0.51100000000E-03 0.  1.
</event>
<event>
 8    1  0.1063984E+005  0.1043930E+01  0.7957747E-01            NaN
         13   -1    0    0    0    0  0.00000000000E+00  0.00000000000E+00  0.74505805969E-08  0.10566000000E+00  0.10566000000E+00 0. -1.
     999900   -1    0    0    0    0 -0.00000000000E+00 -0.00000000000E+00 -0.74505805969E-08  0.93827000000E+00  0.93827000000E+00 0.  1.
     999902    2    1    2    0    0 -0.12986833487E-01 -0.36914739958E-03  0.21583228690E-01  0.10187381387E+01  0.10184266127E+01 0.  0.
     999903    2    3    3    0    0 -0.48722723605E-01  0.31974679861E-01 -0.11173943744E+00  0.12739190392E+00  0.18620186812E-01 0.  0.
         14    1    1    2    0    0  0.12986833487E-01  0.36914739958E-03 -0.21583228690E-01  0.25191861275E-01  0.00000000000E+00 0.  1.
     999901    1    3    3    0    0  0.35735890118E-01 -0.32343827261E-01  0.13332266613E+00  0.89134623481E+00  0.88000000000E+00 0. -1.
        -11    1    4    4    0    0 -0.40300780669E-01  0.29879670614E-01 -0.79557492483E-01  0.94056383992E-01  0.51100000000E-03 0.  1.
         11    1    4    4    0    0 -0.84219429366E-02  0.20950092468E-02 -0.32181944955E-01  0.33335519924E-01  0.51100000000E-03 0. -1.
</event>
<event>
 8    1  0.1063984E+005  0.1043930E+01  0.7957747E-01            NaN
         13   -1    0    0    0    0  0.00000000000E+00  0.00000000000E+00  0.74505805969E-08  0.10566000000E+00  0.10566000000E+00 0.  1.
     999900   -1    0    0    0    0 -0.00000000000E+00 -0.00000000000E+00 -0.74505805969E-08  0.93827000000E+00  0.93827000000E+00 0. -1.
     999902    2    1    2    0    0 -0.11603236041E-01 -0.77169735131E-02 -0.25729287426E-01  0.10146693951E+01  0.10142474049E+01 0.  0.
     999903    2    3    3    0    0  0.19657580132E-01 -0.79366262209E-01 -0.96840767769E-01  0.12834682300E+00  0.20232366125E-01 0.  0.
         14    1    1    2    0    0  0.11603236041E-01  0.77169735131E-02  0.25729287426E-01  0.29260604886E-01  0.00000000000E+00 0.  1.
     999901    1    3    3    0    0 -0.31260816173E-01  0.71649288696E-01  0.71111480342E-01  0.88632257211E+00  0.88000000000E+00 0.  1.
        -11    1    4    4    0    0  0.13228199204E-01 -0.74627965814E-01 -0.83325651967E-01  0.11263988606E+00  0.51100000000E-03 0.  1.
         11    1    4    4    0    0  0.64293809284E-02 -0.47382963946E-02 -0.13515115802E-01  0.15706936938E-01  0.51100000000E-03 0. -1.
</event>
<event>
 8    1  0.1493912E+005  0.1043930E+01  0.7957747E-01            NaN
         13   -1    0    0    0    0  0.00000000000E+00  0.00000000000E+00  0.74505805969E-08  0.10566000000E+00  0.10566000000E+00 0.  1.
     999900   -1    0    0    0    0 -0.00000000000E+00 -0.00000000000E+00 -0.74505805969E-08  0.93827000000E+00  0.93827000000E+00 0. -1.
     999902    2    1    2    0    0  0.54718066585E-02 -0.31791535758E-03 -0.23454173841E-01  0.10198439042E+01  0.10195594387E+01 0.  0.
     999903    2    3    3    0    0 -0.12762799915E+00  0.83694524595E-02 -0.93068599041E-02  0.12968033772E+00  0.19272219643E-01 0.  0.
         14    1    1    2    0    0 -0.54718066585E-02  0.31791535758E-03  0.23454173841E-01  0.24086095758E-01  0.00000000000E+00 0.  1.
     999901    1    3    3    0    0  0.13309980581E+00 -0.86873678171E-02 -0.14147313937E-01  0.89016356652E+00  0.88000000000E+00 0.  1.
        -11    1    4    4    0    0 -0.72381512379E-01  0.10250193658E-01  0.25184178171E-02  0.73148843829E-01  0.51100000000E-03 0.  1.
         11    1    4    4    0    0 -0.55246486769E-01 -0.18807411981E-02 -0.11825277721E-01  0.56531493894E-01  0.51100000000E-03 0. -1.
</event>
<event>
 8    1  0.1063984E+005  0.1043930E+01  0.7957747E-01            NaN
         13   -1    0    0    0    0  0.00000000000E+00  0.00000000000E+00  0.74505805969E-08  0.10566000000E+00  0.10566000000E+00 0.  1.
     999900   -1    0    0    0    0 -0.00000000000E+00 -0.00000000000E+00 -0.74505805969E-08  0.93827000000E+00  0.93827000000E+00 0.  1.
     999902    2    1    2    0    0 -0.58260034595E-02  0.20915450226E-01 -0.99130865704E-02  0.10200622883E+01  0.10197830183E+01 0.  0.
     999903    2    3    3    0    0  0.87742373956E-01  0.33999604379E-01 -0.88898211545E-01  0.13148765090E+00  0.23052397644E-01 0.  0.
         14    1    1    2    0    0  0.58260034595E-02 -0.20915450226E-01  0.99130865704E-02  0.23867711658E-01  0.00000000000E+00 0.  1.
     999901    1    3    3    0    0 -0.93568377416E-01 -0.13084154153E-01  0.78985124975E-01  0.88857463744E+00  0.88000000000E+00 0.  1.
        -11    1    4    4    0    0  0.31944843603E-01  0.68887637635E-02 -0.44442766414E-01  0.55166554238E-01  0.51100000000E-03 0. -1.
         11    1    4    4    0    0  0.55797530354E-01  0.27110840615E-01 -0.44455445131E-01  0.76321096659E-01  0.51100000000E-03 0.  1.
</event>
<event>
 8    1  0.1184667E+005  0.1043930E+01  0.7957747E-01            NaN
         13   -1    0    0    0    0  0.00000000000E+00  0.00000000000E+00  0.74505805969E-08  0.10566000000E+00  0.10566000000E+00 0.  1.
     999900   -1    0    0    0    0 -0.00000000000E+00 -0.00000000000E+00 -0.74505805969E-08  0.93827000000E+00  0.93827000000E+00 0.  1.
     999902    2    1    2    0    0 -0.47679508778E-02  0.16335731892E-01  0.16341071997E-01  0.10203372018E+01  0.10200644025E+01 0.  0.
     999903    2    3    3    0    0 -0.40372220956E-01 -0.38133768051E-01  0.11817583759E+00  0.13207771836E+00  0.19871955296E-01 0.  0.
         14    1    1    2    0    0  0.47679508778E-02 -0.16335731892E-01 -0.16341071997E-01  0.23592798182E-01  0.00000000000E+00 0. -1.
     999901    1    3    3    0    0  0.35604270078E-01  0.54469499943E-01 -0.10183476559E+00  0.88825948346E+00  0.88000000000E+00 0.  1.
        -11    1    4    4    0    0 -0.22701223750E-01 -0.80632585748E-02  0.47456042143E-01  0.53223103587E-01  0.51100000000E-03 0.  1.
         11    1    4    4    0    0 -0.17670997206E-01 -0.30070509476E-01  0.70719795443E-01  0.78854614772E-01  0.51100000000E-03 0. -1.
</event>
<event>
 8    1  0.1063984E+005  0.1043930E+01  0.7957747E-01            NaN
         13   -1    0    0    0    0  0.00000000000E+00  0.00000000000E+00  0.74505805969E-08  0.10566000000E+00  0.10566000000E+00 0. -1.
     999900   -1    0    0    0    0 -0.00000000000E+00 -0.00000000000E+00 -0.74505805969E-08  0.93827000000E+00  0.93827000000E+00 0.  1.
     999902    2    1    2    0    0 -0.17219950685E-02  0.23672332785E-01  0.48652980412E-03  0.10201901323E+01  0.10199138810E+01 0.  0.
     999903    2    3    3    0    0 -0.67477221124E-01  0.10295972629E+00 -0.44821642167E-01  0.13302438063E+00  0.23078683377E-01 0.  0.
         14    1    1    2    0    0  0.17219950685E-02 -0.23672332785E-01 -0.48652980412E-03  0.23739867686E-01  0.00000000000E+00 0. -1.
     999901    1    3    3    0    0  0.65755226055E-01 -0.79287393502E-01  0.45308171971E-01  0.88716575169E+00  0.88000000000E+00 0.  1.
        -11    1    4    4    0    0 -0.50013717275E-01  0.58226166101E-01 -0.21973780705E-01  0.79842134828E-01  0.51100000000E-03 0.  1.
         11    1    4    4    0    0 -0.17463503849E-01  0.44733560186E-01 -0.22847861462E-01  0.53182245797E-01  0.51100000000E-03 0. -1.
</event>
<event>
 8    1  0.1228145E+005  0.1043930E+01  0.7957747E-01            NaN
         13   -1    0    0    0    0  0.00000000000E+00  0.00000000000E+00  0.74505805969E-08  0.10566000000E+00  0.10566000000E+00 0.  1.
     999900   -1    0    0    0    0 -0.00000000000E+00 -0.00000000000E+00 -0.74505805969E-08  0.93827000000E+00  0.93827000000E+00 0. -1.
     999902    2    1    2    0    0  0.11894715242E-01  0.19282455286E-01 -0.57666925729E-02  0.10205515468E+01  0.10202837387E+01 0.  0.
     999903    2    3    3    0    0 -0.10878588575E+00  0.69228941007E-01 -0.10742571074E-01  0.13089812084E+00  0.19796464176E-01 0.  0.
         14    1    1    2    0    0 -0.11894715242E-01 -0.19282455286E-01  0.57666925729E-02  0.23378453238E-01  0.00000000000E+00 0. -1.
     999901    1    3    3    0    0  0.12068060099E+00 -0.49946485720E-01  0.49758785014E-02  0.88965342592E+00  0.88000000000E+00 0.  1.
        -11    1    4    4    0    0 -0.61359811005E-01  0.49989375999E-01 -0.93432616393E-02  0.79696435168E-01  0.51100000000E-03 0. -1.
         11    1    4    4    0    0 -0.47426074747E-01  0.19239565007E-01 -0.13993094350E-02  0.51201685670E-01  0.51100000000E-03 0.  1.
</event>
<event>
 8    1  0.1063984E+005  0.1043930E+01  0.7957747E-01            NaN
         13   -1    0    0    0    0  0.00000000000E+00  0.00000000000E+00  0.74505805969E-08  0.10566000000E+00  0.10566000000E+00 0. -1.
     999900   -1    0    0    0    0 -0.00000000000E+00 -0.00000000000E+00 -0.74505805969E-08  0.93827000000E+00  0.93827000000E+00 0. -1.
     999902    2    1    2    0    0  0.65672618001E-02  0.14631835482E-02 -0.22696575566E-01  0.10202571384E+01  0.10199824626E+01 0.  0.
     999903    2    3    3    0    0  0.11683763021E+00 -0.10714665106E-01  0.54078611814E-01  0.12997500136E+00  0.14253730738E-01 0.  0.
         14    1    1    2    0    0 -0.65672618001E-02 -0.14631835482E-02  0.22696575566E-01  0.23672861594E-01  0.00000000000E+00 0. -1.
     999901    1    3    3    0    0 -0.11027036841E+00  0.12177848654E-01 -0.76775187380E-01  0.89028213705E+00  0.88000000000E+00 0. -1.
        -11    1    4    4    0    0  0.70627649220E-01 -0.14380576087E-02  0.37710398558E-01  0.80079136637E-01  0.51100000000E-03 0.  1.
         11    1    4    4    0    0  0.46209980994E-01 -0.92766074976E-02  0.16368213256E-01  0.49895864722E-01  0.51100000000E-03 0. -1.
</event>
<event>
 8    1  0.1063984E+005  0.1043930E+01  0.7957747E-01            NaN
         13   -1    0    0    0    0  0.00000000000E+00  0.00000000000E+00  0.74505805969E-08  0.10566000000E+00  0.10566000000E+00 0.  1.
     999900   -1    0    0    0    0 -0.00000000000E+00 -0.00000000000E+00 -0.74505805969E-08  0.93827000000E+00  0.93827000000E+00 0.  1.
     999902    2    1    2    0    0  0.21124488510E-01  0.37792177689E-02 -0.98079299343E-02  0.10203350431E+01  0.10200621933E+01 0.  0.
     999903    2    3    3    0    0 -0.12003058091E+00 -0.39586349246E-01 -0.65823043366E-02  0.12802583061E+00  0.19309768844E-01 0.  0.
         14    1    1    2    0    0 -0.21124488510E-01 -0.37792177689E-02  0.98079299343E-02  0.23594956905E-01  0.00000000000E+00 0.  1.
     999901    1    3    3    0    0  0.14115506942E+00  0.43365567015E-01 -0.32256255977E-02  0.89230921249E+00  0.88000000000E+00 0.  1.
        -11    1    4    4    0    0 -0.67564227343E-01 -0.15071493053E-01 -0.10321311544E-01  0.69991894618E-01  0.51100000000E-03 0. -1.
         11    1    4    4    0    0 -0.52466353566E-01 -0.24514856193E-01  0.37390072077E-02  0.58033935991E-01  0.51100000000E-03 0.  1.
</event>
<event>
 8    1  0.1063984E+005  0.1043930E+01  0.7957747E-01            NaN
         13   -1    0    0    0    0  0.00000000000E+00  0.00000000000E+00  0.74505805969E-08  0.10566000000E+00  0.10566000000E+00 0.  1.
     999900   -1    0    0    0    0 -0.00000000000E+00 -0.00000000000E+00 -0.74505805969E-08  0.93827000000E+00  0.93827000000E+00 0. -1.
     999902    2    1    2    0    0 -0.16178020547E-01  0.19857730318E-02 -0.17218662138E-01  0.10202202136E+01  0.10199446702E+01 0.  0.
     999903    2    3    3    0    0  0.94988357875E-01  0.70252870416E-01 -0.50346891024E-01  0.12998662642E+00  0.20086305721E-01 0.  0.
         14    1    1    2    0    0  0.16178020547E-01 -0.19857730318E-02  0.17218662138E-01  0.23709786359E-01  0.00000000000E+00 0.  1.
     999901    1    3    3    0    0 -0.11116637842E+00 -0.68267097384E-01  0.33128228886E-01  0.89023358723E+00  0.88000000000E+00 0. -1.
        -11    1    4    4    0    0  0.52647948914E-01  0.47398076898E-01 -0.22191499811E-01  0.74236837240E-01  0.51100000000E-03 0. -1.
         11    1    4    4    0    0  0.42340408962E-01  0.22854793517E-01 -0.28155391213E-01  0.55749789175E-01  0.51100000000E-03 0.  1.
</event>
<event>
 8    1  0.1063984E+005  0.1043930E+01  0.7957747E-01            NaN
         13   -1    0    0    0    0  0.00000000000E+00  0.00000000000E+00  0.74505805969E-08  0.10566000000E+00  0.10566000000E+00 0. -1.
     999900   -1    0    0    0    0 -0.00000000000E+00 -0.00000000000E+00 -0.74505805969E-08  0.93827000000E+00  0.93827000000E+00 0. -1.
     999902    2    1    2    0    0  0.15887900506E-01  0.76476932922E-02  0.16140740313E-01  0.10200252705E+01  0.10197451232E+01 0.  0.
     999903    2    3    3    0    0 -0.11216388765E+00 -0.51830602509E-01  0.27683817428E-01  0.12869583041E+00  0.23001607927E-01 0.  0.
         14    1    1    2    0    0 -0.15887900506E-01 -0.76476932922E-02 -0.16140740313E-01  0.23904729512E-01  0.00000000000E+00 0.  1.
     999901    1    3    3    0    0  0.12805178816E+00  0.59478295801E-01 -0.11543077116E-01  0.89132944008E+00  0.88000000000E+00 0.  1.
        -11    1    4    4    0    0 -0.40699630271E-01 -0.76018120530E-02  0.12824929931E-01  0.43347288259E-01  0.51100000000E-03 0. -1.
         11    1    4    4    0    0 -0.71464257383E-01 -0.44228790456E-01  0.14858887497E-01  0.85348542150E-01  0.51100000000E-03 0.  1.
</event>
<event>
 8    1  0.1063984E+005  0.1043930E+01  0.7957747E-01            NaN
         13   -1    0    0    0    0  0.00000000000E+00  0.00000000000E+00  0.74505805969E-08  0.10566000000E+00  0.10566000000E+00 0. -1.
     999900   -1    0    0    0    0 -0.00000000000E+00 -0.00000000000E+00 -0.74505805969E-08  0.93827000000E+00  0.93827000000E+00 0. -1.
     999902    2    1    2    0    0 -0.46104917817E-02  0.16450653035E-01 -0.17788268157E-01  0.10192661985E+01  0.10189677523E+01 0.  0.
     999903    2    3    3    0    0 -0.81118578828E-01 -0.85727586455E-02  0.96490347803E-01  0.12823350518E+00  0.21902707840E-01 0.  0.
         14    1    1    2    0    0  0.46104917817E-02 -0.16450653035E-01  0.17788268157E-01  0.24663801487E-01  0.00000000000E+00 0. -1.
     999901    1    3    3    0    0  0.76508087047E-01  0.25023411680E-01 -0.11427861596E+00  0.89103269333E+00  0.88000000000E+00 0. -1.
        -11    1    4    4    0    0 -0.13158141475E-01 -0.81000554544E-02  0.26462943980E-01  0.30647938112E-01  0.51100000000E-03 0. -1.
         11    1    4    4    0    0 -0.67960437353E-01 -0.47270319111E-03  0.70027403823E-01  0.97585567072E-01  0.51100000000E-03 0.  1.
</event>
<event>
 7    1  0.1239854E+005  0.1043930E+01  0.7957747E-01            NaN
         13   -1    0    0    0    0  0.00000000000E+00  0.00000000000E+00  0.74505805969E-08  0.10566000000E+00  0.10566000000E+00 0. -1.
     999900   -1    0    0    0    0 -0.00000000000E+00 -0.00000000000E+00 -0.74505805969E-08  0.93827000000E+00  0.93827000000E+00 0. -1.
     999903    2    1    2    0    0  0.62767543083E-01 -0.26172914535E-01 -0.70335472771E-01  0.99896306895E-01  0.20184337529E-01 0.  0.
         14    1    1    2    0    0 -0.59171808946E-01 -0.18971392164E-02 -0.95283124644E-02  0.59964079661E-01  0.00000000000E+00 0. -1.
     999901    1    1    2    0    0 -0.35957341363E-02  0.28070053752E-01  0.79863785236E-01  0.88406961344E+00  0.88000000000E+00 0.  1.
        -11    1    3    3    0    0  0.25912700776E-01 -0.76340966042E-02 -0.15096555439E-01  0.30950195469E-01  0.51100000000E-03 0. -1.
         11    1    3    3    0    0  0.36854842307E-01 -0.18538817931E-01 -0.55238917333E-01  0.68946111427E-01  0.51100000000E-03 0.  1.
</event>
<event>
 8    1  0.1063984E+005  0.1043930E+01  0.7957747E-01            NaN
         13   -1    0    0    0    0  0.00000000000E+00  0.00000000000E+00  0.74505805969E-08  0.10566000000E+00  0.10566000000E+00 0.  1.
     999900   -1    0    0    0    0 -0.00000000000E+00 -0.00000000000E+00 -0.74505805969E-08  0.93827000000E+00  0.93827000000E+00 0. -1.
     999902    2    1    2    0    0  0.20242801276E-01 -0.77589375215E-02  0.10161028742E-01  0.10199880155E+01  0.10197069840E+01 0.  0.
     999903    2    3    3    0    0 -0.11334143365E+00  0.16601260755E-01  0.54096844862E-01  0.12849010583E+00  0.21479204614E-01 0.  0.
         14    1    1    2    0    0 -0.20242801276E-01  0.77589375215E-02 -0.10161028742E-01  0.23941984463E-01  0.00000000000E+00 0. -1.
     999901    1    3    3    0    0  0.13358423493E+00 -0.24360198276E-01 -0.43935816120E-01  0.89149790971E+00  0.88000000000E+00 0. -1.
        -11    1    4    4    0    0 -0.77185184271E-01  0.21056332121E-01  0.39698531373E-01  0.89314927686E-01  0.51100000000E-03 0.  1.
         11    1    4    4    0    0 -0.36156249379E-01 -0.44550713665E-02  0.14398313488E-01  0.39175178140E-01  0.51100000000E-03 0. -1.
</event>
<event>
 8    1  0.1063984E+005  0.1043930E+01  0.7957747E-01            NaN
         13   -1    0    0    0    0  0.00000000000E+00  0.00000000000E+00  0.74505805969E-08  0.10566000000E+00  0.10566000000E+00 0.  1.
     999900   -1    0    0    0    0 -0.00000000000E+00 -0.00000000000E+00 -0.74505805969E-08  0.93827000000E+00  0.93827000000E+00 0.  1.
     999902    2    1    2    0    0  0.31740573076E-01 -0.11024409236E-01  0.17388210319E-02  0.10102844197E+01  0.10097240135E+01 0.  0.
     999903    2    3    3    0    0 -0.97391128832E-01 -0.24365695999E-01  0.59405580798E-01  0.11889312423E+00  0.22974613024E-01 0.  0.
         14    1    1    2    0    0 -0.31740573076E-01  0.11024409236E-01 -0.17388210319E-02  0.33645580345E-01  0.00000000000E+00 0. -1.
     999901    1    3    3    0    0  0.12913170191E+00  0.13341286763E-01 -0.57666759766E-01  0.89139129542E+00  0.88000000000E+00 0.  1.
        -11    1    4    4    0    0 -0.34001901691E-01 -0.13291746142E-01  0.10270790023E-01  0.37928222774E-01  0.51100000000E-03 0. -1.
         11    1    4    4    0    0 -0.63389227141E-01 -0.11073949856E-01  0.49134790776E-01  0.80964901460E-01  0.51100000000E-03 0.  1.
</event>
<event>
 8    1  0.1063984E+005  0.1043930E+01  0.7957747E-01            NaN
         13   -1    0    0    0    0  0.00000000000E+00  0.00000000000E+00  0.74505805969E-08  0.10566000000E+00  0.10566000000E+00 0. -1.
     999900   -1    0    0    0    0 -0.00000000000E+00 -0.00000000000E+00 -0.74505805969E-08  0.93827000000E+00  0.93827000000E+00 0.  1.
     999902    2    1    2    0    0 -0.27555900671E-02  0.24125378001E-01  0.40458301271E-02  0.10193130164E+01  0.10190157160E+01 0.  0.
     999903    2    3    3    0    0  0.42975332527E-01  0.53867130162E-01  0.10995356764E+00  0.13128579949E+00  0.19940591564E-01 0.  0.
         14    1    1    2    0    0  0.27555900671E-02 -0.24125378001E-01 -0.40458301271E-02  0.24616983604E-01  0.00000000000E+00 0.  1.
     999901    1    3    3    0    0 -0.45730922594E-01 -0.29741752161E-01 -0.10590773752E+00  0.88802721691E+00  0.88000000000E+00 0.  1.
        -11    1    4    4    0    0  0.38190179959E-02  0.10698101714E-01  0.81902807501E-02  0.14013425652E-01  0.51100000000E-03 0. -1.
         11    1    4    4    0    0  0.39156314531E-01  0.43169028449E-01  0.10176328689E+00  0.11727237384E+00  0.51100000000E-03 0.  1.
</event>
<event>
 7    1  0.1063984E+005  0.1043930E+01  0.7957747E-01            NaN
         13   -1    0    0    0    0  0.00000000000E+00  0.00000000000E+00  0.74505805969E-08  0.10566000000E+00  0.10566000000E+00 0. -1.
     999900   -1    0    0    0    0 -0.00000000000E+00 -0.00000000000E+00 -0.74505805969E-08  0.93827000000E+00  0.93827000000E+00 0. -1.
     999903    2    1    2    0    0 -0.88825214434E-01  0.28007559075E-01 -0.31922410183E-01  0.10036356263E+00  0.19479793332E-01 0.  0.
         14    1    1    2    0    0  0.49765825727E-01  0.26784852732E-01 -0.18747035535E-01  0.59544244789E-01  0.00000000000E+00 0. -1.
     999901    1    1    2    0    0  0.39059388707E-01 -0.54792411806E-01  0.50669445718E-01  0.88402219258E+00  0.88000000000E+00 0.  1.
        -11    1    3    3    0    0 -0.22522707636E-01  0.34736190847E-02 -0.16126605748E-01  0.27922516412E-01  0.51100000000E-03 0. -1.
         11    1    3    3    0    0 -0.66302506798E-01  0.24533939990E-01 -0.15795804434E-01  0.72441046223E-01  0.51100000000E-03 0.  1.
</event>
<event>
 8    1  0.1063984E+005  0.1043930E+01  0.7957747E-01            NaN
         13   -1    0    0    0    0  0.00000000000E+00  0.00000000000E+00  0.74505805969E-08  0.10566000000E+00  0.10566000000E+00 0.  1.
     999900   -1    0    0    0    0 -0.00000000000E+00 -0.00000000000E+00 -0.74505805969E-08  0.93827000000E+00  0.93827000000E+00 0. -1.
     999902    2    1    2    0    0  0.19639646089E-01  0.53477391187E-02 -0.11151082384E-01  0.10207209360E+01  0.10204570391E+01 0.  0.
     999903    2    3    3    0    0 -0.65907995368E-01  0.10882095274E+00  0.18027166237E-01  0.13006024020E+00  0.20120232364E-01 0.  0.
         14    1    1    2    0    0 -0.19639646089E-01 -0.53477391187E-02  0.11151082384E-01  0.23209063973E-01  0.00000000000E+00 0.  1.
     999901    1    3    3    0    0  0.85547641457E-01 -0.10347321362E+00 -0.29178248622E-01  0.89066069583E+00  0.88000000000E+00 0. -1.
        -11    1    4    4    0    0 -0.61375103842E-01  0.86970384355E-01  0.13735133230E-01  0.10732970759E+00  0.51100000000E-03 0.  1.
         11    1    4    4    0    0 -0.45328915263E-02  0.21850568383E-01  0.42920330070E-02  0.22730532607E-01  0.51100000000E-03 0. -1.
</event>
<event>
 8    1  0.1063984E+005  0.1043930E+01  0.7957747E-01            NaN
         13   -1    0    0    0    0  0.00000000000E+00  0.00000000000E+00  0.74505805969E-08  0.10566000000E+00  0.10566000000E+00 0. -1.
     999900   -1    0    0    0    0 -0.00000000000E+00 -0.00000000000E+00 -0.74505805969E-08  0.93827000000E+00  0.93827000000E+00 0. -1.
     999902    2    1    2    0    0 -0.14439070880E-01  0.77929486081E-02  0.16058905967E-01  0.10209712266E+01  0.10207130548E+01 0.  0.
     999903    2    3    3    0    0  0.21516436978E-01 -0.80882906572E-01 -0.95787897803E-01  0.12874596727E+00  0.19879665197E-01 0.  0.
         14    1    1    2    0    0  0.14439070880E-01 -0.77929486081E-02 -0.16058905967E-01  0.22958773415E-01  0.00000000000E+00 0.  1.
     999901    1    3    3    0    0 -0.35955507857E-01  0.88675855180E-01  0.11184680377E+00  0.89222525931E+00  0.88000000000E+00 0. -1.
        -11    1    4    4    0    0  0.18040181050E-02 -0.45100322022E-01 -0.48611565096E-01  0.66337311597E-01  0.51100000000E-03 0.  1.
         11    1    4    4    0    0  0.19712418873E-01 -0.35782584549E-01 -0.47176332707E-01  0.62408655678E-01  0.51100000000E-03 0. -1.
</event>
<event>
 8    1  0.1063984E+005  0.1043930E+01  0.7957747E-01            NaN
         13   -1    0    0    0    0  0.00000000000E+00  0.00000000000E+00  0.74505805969E-08  0.10566000000E+00  0.10566000000E+00 0. -1.
     999900   -1    0    0    0    0 -0.00000000000E+00 -0.00000000000E+00 -0.74505805969E-08  0.93827000000E+00  0.93827000000E+00 0. -1.
     999902    2    1    2    0    0  0.16989626584E-01 -0.12807735184E-01  0.87274668507E-02  0.10209331704E+01  0.10206741323E+01 0.  0.
     999903    2    3    3    0    0 -0.10410669853E+00 -0.63741385863E-01 -0.40167305385E-01  0.12983875598E+00  0.18534324459E-01 0.  0.
         14    1    1    2    0    0 -0.16989626584E-01  0.12807735184E-01 -0.87274668507E-02  0.22996829556E-01  0.00000000000E+00 0. -1.
     999901    1    3    3    0    0  0.12109632511E+00  0.50933650679E-01  0.48894772236E-01  0.89109441446E+00  0.88000000000E+00 0.  1.
        -11    1    4    4    0    0 -0.95164136405E-01 -0.51772662490E-01 -0.37564297989E-01  0.11466455007E+00  0.51100000000E-03 0.  1.
         11    1    4    4    0    0 -0.89425621254E-02 -0.11968723373E-01 -0.26030073953E-02  0.15174205912E-01  0.51100000000E-03 0. -1.
</event>
<event>
 8    1  0.1063984E+005  0.1043930E+01  0.7957747E-01            NaN
         13   -1    0    0    0    0  0.00000000000E+00  0.00000000000E+00  0.74505805969E-08  0.10566000000E+00  0.10566000000E+00 0.  1.
     999900   -1    0    0    0    0 -0.00000000000E+00 -0.00000000000E+00 -0.74505805969E-08  0.93827000000E+00  0.93827000000E+00 0.  1.
     999902    2    1    2    0    0  0.10022011243E-01 -0.13472828332E-01 -0.17371276395E-01  0.10197697215E+01  0.10194834799E+01 0.  0.
     999903    2    3    3    0    0 -0.85563299629E-01 -0.61539248669E-01  0.71669999200E-01  0.12882904943E+00  0.18766401427E-01 0.  0.
         14    1    1    2    0    0 -0.10022011243E-01  0.13472828332E-01  0.17371276395E-01  0.24160278480E-01  0.00000000000E+00 0.  1.
     999901    1    3    3    0    0  0.95585310872E-01  0.48066420337E-01 -0.89041275595E-01  0.89094067209E+00  0.88000000000E+00 0.  1.
        -11    1    4    4    0    0 -0.47862029415E-01 -0.30849768163E-01  0.27899575488E-01  0.63412376464E-01  0.51100000000E-03 0.  1.
         11    1    4    4    0    0 -0.37701270215E-01 -0.30689480506E-01  0.43770423712E-01  0.65416672970E-01  0.51100000000E-03 0. -1.
</event>
<event>
 8    1  0.1063984E+005  0.1043930E+01  0.7957747E-01            NaN
         13   -1    0    0    0    0  0.00000000000E+00  0.00000000000E+00  0.74505805969E-08  0.10566000000E+00  0.10566000000E+00 0.  1.
     999900   -1    0    0    0    0 -0.00000000000E+00 -0.00000000000E+00 -0.74505805969E-08  0.93827000000E+00  0.93827000000E+00 0. -1.
     999902    2    1    2    0    0 -0.72050766283E-02  0.19136379932E-01  0.97776585611E-02  0.10212646791E+01  0.10210131380E+01 0.  0.
     999903    2    3    3    0    0  0.56763083698E-01  0.45263415199E-01 -0.10629647517E+00  0.13095700639E+00  0.24082617446E-01 0.  0.
         14    1    1    2    0    0  0.72050766283E-02 -0.19136379932E-01 -0.97776585611E-02  0.22665320935E-01  0.00000000000E+00 0. -1.
     999901    1    3    3    0    0 -0.63968160326E-01 -0.26127035266E-01  0.11607413373E+00  0.89030767268E+00  0.88000000000E+00 0.  1.
        -11    1    4    4    0    0  0.46107679188E-02  0.15348971473E-01 -0.27617374894E-01  0.31934787037E-01  0.51100000000E-03 0.  1.
         11    1    4    4    0    0  0.52152315779E-01  0.29914443726E-01 -0.78679100272E-01  0.99022219351E-01  0.51100000000E-03 0. -1.
</event>
<event>
 8    1  0.1063984E+005  0.1043930E+01  0.7957747E-01            NaN
         13   -1    0    0    0    0  0.00000000000E+00  0.00000000000E+00  0.74505805969E-08  0.10566000000E+00  0.10566000000E+00 0.  1.
     999900   -1    0    0    0    0 -0.00000000000E+00 -0.00000000000E+00 -0.74505805969E-08  0.93827000000E+00  0.93827000000E+00 0. -1.
     999902    2    1    2    0    0 -0.80192963796E-02  0.18647189006E-01 -0.22566647701E-01  0.10135773994E+01  0.10131228278E+01 0.  0.
     999903    2    3    3    0    0  0.69794423042E-01  0.63684060158E-02  0.97820216579E-01  0.12189430521E+00  0.19432158621E-01 0.  0.
         14    1    1    2    0    0  0.80192963796E-02 -0.18647189006E-01  0.22566647701E-01  0.30352600559E-01  0.00000000000E+00 0.  1.
     999901    1    3    3    0    0 -0.77813719422E-01  0.12278782991E-01 -0.12038686428E+00  0.89168309423E+00  0.88000000000E+00 0. -1.
        -11    1    4    4    0    0  0.18186619644E-01  0.40785591687E-02  0.41344090361E-01  0.45353971246E-01  0.51100000000E-03 0. -1.
         11    1    4    4    0    0  0.51607803398E-01  0.22898468471E-02  0.56476126217E-01  0.76540333966E-01  0.51100000000E-03 0.  1.
</event>
<event>
 8    1  0.1063984E+005  0.1043930E+01  0.7957747E-01            NaN
         13   -1    0    0    0    0  0.00000000000E+00  0.00000000000E+00  0.74505805969E-08  0.10566000000E+00  0.10566000000E+00 0.  1.
     999900   -1    0    0    0    0 -0.00000000000E+00 -0.00000000000E+00 -0.74505805969E-08  0.93827000000E+00  0.93827000000E+00 0.  1.
     999902    2    1    2    0    0 -0.16253507259E-01 -0.10794920596E-01 -0.27718727270E-02  0.10242223850E+01  0.10240327651E+01 0.  0.
     999903    2    3    3    0    0 -0.94042943802E-01 -0.97026104798E-01  0.34326406769E-02  0.13657070248E+00  0.19535441205E-01 0.  0.
         14    1    1    2    0    0  0.16253507259E-01  0.10794920596E-01  0.27718727270E-02  0.19707614957E-01  0.00000000000E+00 0.  1.
     999901    1    3    3    0    0  0.77789436543E-01  0.86231184202E-01 -0.62045134039E-02  0.88765168256E+00  0.88000000000E+00 0. -1.
        -11    1    4    4    0    0 -0.32645472553E-01 -0.21259641616E-01  0.25626028372E-02  0.39045195532E-01  0.51100000000E-03 0.  1.
         11    1    4    4    0    0 -0.61397471249E-01 -0.75766463183E-01  0.87003783972E-03  0.97525506950E-01  0.51100000000E-03 0. -1.
</event>
<event>
 8    1  0.1519441E+005  0.1043930E+01  0.7957747E-01            NaN
         13   -1    0    0    0    0  0.00000000000E+00  0.00000000000E+00  0.74505805969E-08  0.10566000000E+00  0.10566000000E+00 0.  1.
     999900   -1    0    0    0    0 -0.00000000000E+00 -0.00000000000E+00 -0.74505805969E-08  0.93827000000E+00  0.93827000000E+00 0. -1.
     999902    2    1    2    0    0 -0.14535146753E-01 -0.64083415917E-02 -0.18364959911E-01  0.10196481326E+01  0.10193589678E+01 0.  0.
     999903    2    3    3    0    0  0.53714256329E-01 -0.37903169399E-01 -0.11203135972E+00  0.13149088318E+00  0.20419481259E-01 0.  0.
         14    1    1    2    0    0  0.14535146753E-01  0.64083415917E-02  0.18364959911E-01  0.24281867425E-01  0.00000000000E+00 0.  1.
     999901    1    3    3    0    0 -0.68249403082E-01  0.31494827807E-01  0.93666399811E-01  0.88815724940E+00  0.88000000000E+00 0.  1.
        -11    1    4    4    0    0  0.28961532533E-01 -0.97350996398E-02 -0.60241529871E-01  0.67548838434E-01  0.51100000000E-03 0. -1.
         11    1    4    4    0    0  0.24752723795E-01 -0.28168069759E-01 -0.51789829851E-01  0.63942044746E-01  0.51100000000E-03 0.  1.
</event>
<event>
 8    1  0.1063984E+005  0.1043930E+01  0.7957747E-01            NaN
         13   -1    0    0    0    0  0.00000000000E+00  0.00000000000E+00  0.74505805969E-08  0.10566000000E+00  0.10566000000E+00 0. -1.
     999900   -1    0    0    0    0 -0.00000000000E+00 -0.00000000000E+00 -0.74505805969E-08  0.93827000000E+00  0.93827000000E+00 0. -1.
     999902    2    1    2    0    0  0.95148305773E-02 -0.21655170487E-01 -0.41742230420E-02  0.10199112043E+01  0.10196283451E+01 0.  0.
     999903    2    3    3    0    0 -0.96549675869E-01 -0.78162850709E-01 -0.37053373755E-01  0.13113460918E+00  0.19800557483E-01 0.  0.
         14    1    1    2    0    0 -0.95148305773E-02  0.21655170487E-01  0.41742230420E-02  0.24018795718E-01  0.00000000000E+00 0. -1.
     999901    1    3    3    0    0  0.10606450645E+00  0.56507680222E-01  0.32879150713E-01  0.88877659510E+00  0.88000000000E+00 0. -1.
        -11    1    4    4    0    0 -0.25882909435E-01 -0.32922345777E-01 -0.12291400748E-01  0.43647972526E-01  0.51100000000E-03 0.  1.
         11    1    4    4    0    0 -0.70666766434E-01 -0.45240504932E-01 -0.24761973008E-01  0.87486636653E-01  0.51100000000E-03 0. -1.
</event>
<event>
 8    1  0.1063984E+005  0.1043930E+01  0.7957747E-01            NaN
         13   -1    0    0    0    0  0.00000000000E+00  0.00000000000E+00  0.74505805969E-08  0.10566000000E+00  0.10566000000E+00 0. -1.
     999900   -1    0    0    0    0 -0.00000000000E+00 -0.00000000000E+00 -0.74505805969E-08  0.93827000000E+00  0.93827000000E+00 0.  1.
     999902    2    1    2    0    0  0.33254109426E-02 -0.17543162213E-01 -0.16442774404E-01  0.10196568517E+01  0.10193678970E+01 0.  0.
     999903    2    3    3    0    0 -0.94213487331E-01 -0.87722888079E-01 -0.17851496078E-01  0.13148962921E+00  0.19984003370E-01 0.  0.
         14    1    1    2    0    0 -0.33254109426E-02  0.17543162213E-01  0.16442774404E-01  0.24273148301E-01  0.00000000000E+00 0.  1.
     999901    1    3    3    0    0  0.97538898274E-01  0.70179725866E-01  0.14087216743E-02  0.88816722248E+00  0.88000000000E+00 0. -1.
        -11    1    4    4    0    0 -0.19645226298E-01 -0.16296549632E-01 -0.11599956153E-01  0.28041621742E-01  0.51100000000E-03 0. -1.
         11    1    4    4    0    0 -0.74568261034E-01 -0.71426338447E-01 -0.62515399252E-02  0.10344800747E+00  0.51100000000E-03 0.  1.
</event>
<event>
 8    1  0.1063984E+005  0.1043930E+01  0.7957747E-01            NaN
         13   -1    0    0    0    0  0.00000000000E+00  0.00000000000E+00  0.74505805969E-08  0.10566000000E+00  0.10566000000E+00 0.  1.
     999900   -1    0    0    0    0 -0.00000000000E+00 -0.00000000000E+00 -0.74505805969E-08  0.93827000000E+00  0.93827000000E+00 0. -1.
     999902    2    1    2    0    0  0.64414767810E-04 -0.12691758976E-01  0.19459026313E-01  0.10206977250E+01  0.10204332939E+01 0.  0.
     999903    2    3    3    0    0 -0.14144022805E-01 -0.30864828621E-01 -0.12277601465E+00  0.12897862855E+00  0.20219936244E-01 0.  0.
         14    1    1    2    0    0 -0.64414767810E-04  0.12691758976E-01 -0.19459026313E-01  0.23232274969E-01  0.00000000000E+00 0. -1.
     999901    1    3    3    0    0  0.14208437573E-01  0.18173069645E-01  0.14223504096E+00  0.89171909648E+00  0.88000000000E+00 0.  1.
        -11    1    4    4    0    0 -0.18448953017E-01 -0.22875640201E-01 -0.10467760030E+00  0.10872589345E+00  0.51100000000E-03 0.  1.
         11    1    4    4    0    0  0.43049302119E-02 -0.79891884207E-02 -0.18098414353E-01  0.20252735095E-01  0.51100000000E-03 0. -1.
</event>
<event>
 8    1  0.1063984E+005  0.1043930E+01  0.7957747E-01            NaN
         13   -1    0    0    0    0  0.00000000000E+00  0.00000000000E+00  0.74505805969E-08  0.10566000000E+00  0.10566000000E+00 0. -1.
     999900   -1    0    0    0    0 -0.00000000000E+00 -0.00000000000E+00 -0.74505805969E-08  0.93827000000E+00  0.93827000000E+00 0.  1.
     999902    2    1    2    0    0  0.19567362560E-01 -0.12239515310E-01  0.52890905988E-02  0.10202517000E+01  0.10199768965E+01 0.  0.
     999903    2    3    3    0    0  0.10139296369E+00 -0.78992040588E-01  0.31606116564E-01  0.13354773896E+00  0.17770098915E-01 0.  0.
         14    1    1    2    0    0 -0.19567362560E-01  0.12239515310E-01 -0.52890905988E-02  0.23678300022E-01  0.00000000000E+00 0.  1.
     999901    1    3    3    0    0 -0.81825601126E-01  0.66752525279E-01 -0.26317025965E-01  0.88670396102E+00  0.88000000000E+00 0.  1.
        -11    1    4    4    0    0  0.97269121258E-01 -0.70117929300E-01  0.30153503993E-01  0.12364182498E+00  0.51100000000E-03 0. -1.
         11    1    4    4    0    0  0.41238424278E-02 -0.88741112887E-02  0.14526125708E-02  0.99059139817E-02  0.51100000000E-03 0.  1.
</event>
<event>
 8    1  0.1063984E+005  0.1043930E+01  0.7957747E-01            NaN
         13   -1    0    0    0    0  0.00000000000E+00  0.00000000000E+00  0.74505805969E-08  0.10566000000E+00  0.10566000000E+00 0. -1.
     999900   -1    0    0    0    0 -0.00000000000E+00 -0.00000000000E+00 -0.74505805969E-08  0.93827000000E+00  0.93827000000E+00 0.  1.
     999902    2    1    2    0    0 -0.89340621424E-02 -0.97248868157E-02  0.18945250842E-01  0.10208364204E+01  0.10205751730E+01 0.  0.
     999903    2    3    3    0    0  0.75758168524E-01 -0.72057216618E-01 -0.73780872493E-01  0.12973809404E+00  0.21373191938E-01 0.  0.
         14    1    1    2    0    0  0.89340621424E-02  0.97248868157E-02 -0.18945250842E-01  0.23093579614E-01  0.00000000000E+00 0.  1.
     999901    1    3    3    0    0 -0.84692230666E-01  0.62332329802E-01  0.92726123335E-01  0.89109832635E+00  0.88000000000E+00 0.  1.
        -11    1    4    4    0    0  0.31100240316E-01 -0.27154271767E-01 -0.41935566424E-01  0.58850932662E-01  0.51100000000E-03 0.  1.
         11    1    4    4    0    0  0.44657928208E-01 -0.44902944851E-01 -0.31845306069E-01  0.70887161374E-01  0.51100000000E-03 0. -1.
</event>
<event>
 7    1  0.1063984E+005  0.1043930E+01  0.7957747E-01            NaN
         13   -1    0    0    0    0  0.00000000000E+00  0.00000000000E+00  0.74505805969E-08  0.10566000000E+00  0.10566000000E+00 0. -1.
     999900   -1    0    0    0    0 -0.00000000000E+00 -0.00000000000E+00 -0.74505805969E-08  0.93827000000E+00  0.93827000000E+00 0.  1.
     999903    2    1    2    0    0 -0.60054069465E-02  0.80221074744E-01  0.22866813681E-01  0.86218203680E-01  0.20957140362E-01 0.  0.
         14    1    1    2    0    0 -0.39515011840E-01  0.50982883019E-01  0.14208510704E-01  0.66049771370E-01  0.00000000000E+00 0. -1.
     999901    1    1    2    0    0  0.45520418786E-01 -0.13120395776E+00 -0.37075324385E-01  0.89166202495E+00  0.88000000000E+00 0. -1.
        -11    1    3    3    0    0  0.63232472112E-02  0.10240482343E-01  0.25869770616E-02  0.12320897096E-01  0.51100000000E-03 0.  1.
         11    1    3    3    0    0 -0.12328654158E-01  0.69980592401E-01  0.20279836620E-01  0.73897306584E-01  0.51100000000E-03 0. -1.
</event>
<event>
 8    1  0.1063984E+005  0.1043930E+01  0.7957747E-01            NaN
         13   -1    0    0    0    0  0.00000000000E+00  0.00000000000E+00  0.74505805969E-08  0.10566000000E+00  0.10566000000E+00 0. -1.
     999900   -1    0    0    0    0 -0.00000000000E+00 -0.00000000000E+00 -0.74505805969E-08  0.93827000000E+00  0.93827000000E+00 0.  1.
     999902    2    1    2    0    0  0.15593277397E-01  0.69154778363E-02  0.16197747454E-01  0.10204067954E+01  0.10201356218E+01 0.  0.
     999903    2    3    3    0    0  0.10415320546E+00  0.69553535228E-01  0.41400292107E-01  0.13338844417E+00  0.19821916693E-01 0.  0.
         14    1    1    2    0    0 -0.15593277397E-01 -0.69154778363E-02 -0.16197747454E-01  0.23523204635E-01  0.00000000000E+00 0. -1.
     999901    1    3    3    0    0 -0.88559928068E-01 -0.62638057392E-01 -0.25202544652E-01  0.88701835119E+00  0.88000000000E+00 0.  1.
        -11    1    4    4    0    0  0.64507316863E-01  0.53367027880E-01  0.23382471574E-01  0.86926605200E-01  0.51100000000E-03 0. -1.
         11    1    4    4    0    0  0.39645888601E-01  0.16186507348E-01  0.18017820533E-01  0.46461838974E-01  0.51100000000E-03 0.  1.
</event>
<event>
 8    1  0.1063984E+005  0.1043930E+01  0.7957747E-01            NaN
         13   -1    0    0    0    0  0.00000000000E+00  0.00000000000E+00  0.74505805969E-08  0.10566000000E+00  0.10566000000E+00 0. -1.
     999900   -1    0    0    0    0 -0.00000000000E+00 -0.00000000000E+00 -0.74505805969E-08  0.93827000000E+00  0.93827000000E+00 0. -1.
     999902    2    1    2    0    0  0.21249804106E-01 -0.86009856193E-02  0.85882453101E-02  0.10194496184E+01  0.10191556482E+01 0.  0.
     999903    2    3    3    0    0  0.58103663754E-01 -0.80620134398E-01  0.85201939477E-01  0.13242390120E+00  0.20026914520E-01 0.  0.
         14    1    1    2    0    0 -0.21249804106E-01  0.86009856193E-02 -0.85882453101E-02  0.24480381649E-01  0.00000000000E+00 0.  1.
     999901    1    3    3    0    0 -0.36853859649E-01  0.72019148779E-01 -0.76613694167E-01  0.88702571716E+00  0.88000000000E+00 0. -1.
        -11    1    4    4    0    0  0.20114739253E-01 -0.25320867535E-01  0.40385366638E-01  0.51739617581E-01  0.51100000000E-03 0. -1.
         11    1    4    4    0    0  0.37988924502E-01 -0.55299266863E-01  0.44816572838E-01  0.80684283614E-01  0.51100000000E-03 0.  1.
</event>
<event>
 8    1  0.1063984E+005  0.1043930E+01  0.7957747E-01            NaN
         13   -1    0    0    0    0  0.00000000000E+00  0.00000000000E+00  0.74505805969E-08  0.10566000000E+00  0.10566000000E+00 0. -1.
     999900   -1    0    0    0    0 -0.00000000000E+00 -0.00000000000E+00 -0.74505805969E-08  0.93827000000E+00  0.93827000000E+00 0.  1.
     999902    2    1    2    0    0 -0.23477026943E-01  0.72855163710E-02 -0.16938365323E-02  0.10192902227E+01  0.10189923648E+01 0.  0.
     999903    2    3    3    0    0  0.12515649178E-01  0.99890910303E-01  0.79886687672E-01  0.12994967283E+00  0.19240560458E-01 0.  0.
         14    1    1    2    0    0  0.23477026943E-01 -0.72855163710E-02  0.16938365323E-02  0.24639777294E-01  0.00000000000E+00 0.  1.
     999901    1    3    3    0    0 -0.35992676121E-01 -0.92605393932E-01 -0.81580524204E-01  0.88934054987E+00  0.88000000000E+00 0.  1.
        -11    1    4    4    0    0  0.85410762831E-02  0.78805175405E-01  0.71991266719E-01  0.10708038690E+00  0.51100000000E-03 0.  1.
         11    1    4    4    0    0  0.39745728945E-02  0.21085734898E-01  0.78954209528E-02  0.22869285929E-01  0.51100000000E-03 0. -1.
</event>
<event>
 8    1  0.1063984E+005  0.1043930E+01  0.7957747E-01            NaN
         13   -1    0    0    0    0  0.00000000000E+00  0.00000000000E+00  0.74505805969E-08  0.10566000000E+00  0.10566000000E+00 0. -1.
     999900   -1    0    0    0    0 -0.00000000000E+00 -0.00000000000E+00 -0.74505805969E-08  0.93827000000E+00  0.93827000000E+00 0.  1.
     999902    2    1    2    0    0  0.19890435957E-01  0.54591998452E-02 -0.11137451405E-01  0.10204891142E+01  0.10202198572E+01 0.  0.
     999903    2    3    3    0    0  0.25838239277E-01 -0.10998253822E+00 -0.64066764244E-01  0.13135263227E+00  0.19626268183E-01 0.  0.
         14    1    1    2    0    0 -0.19890435957E-01 -0.54591998452E-02  0.11137451405E-01  0.23440885847E-01  0.00000000000E+00 0. -1.
     999901    1    3    3    0    0 -0.59478033203E-02  0.11544173806E+00  0.52929312838E-01  0.88913648188E+00  0.88000000000E+00 0. -1.
        -11    1    4    4    0    0  0.17988739571E-01 -0.63134775856E-01 -0.26525949133E-01  0.70805944469E-01  0.51100000000E-03 0. -1.
         11    1    4    4    0    0  0.78494997063E-02 -0.46847762362E-01 -0.37540815111E-01  0.60546687805E-01  0.51100000000E-03 0.  1.
</event>
<event>
 8    1  0.1063984E+005  0.1043930E+01  0.7957747E-01            NaN
         13   -1    0    0    0    0  0.00000000000E+00  0.00000000000E+00  0.74505805969E-08  0.10566000000E+00  0.10566000000E+00 0. -1.
     999900   -1    0    0    0    0 -0.00000000000E+00 -0.00000000000E+00 -0.74505805969E-08  0.93827000000E+00  0.93827000000E+00 0.  1.
     999902    2    1    2    0    0  0.95031101628E-02  0.96295577233E-02  0.23483195844E-01  0.10168283770E+01  0.10164671417E+01 0.  0.
     999903    2    3    3    0    0  0.10746713087E+00 -0.54728979723E-01  0.40743708467E-01  0.12888868531E+00  0.20194008573E-01 0.  0.
         14    1    1    2    0    0 -0.95031101628E-02 -0.96295577233E-02 -0.23483195844E-01  0.27101623046E-01  0.00000000000E+00 0.  1.
     999901    1    3    3    0    0 -0.97964020711E-01  0.64358537446E-01 -0.17260512623E-01  0.88793969164E+00  0.88000000000E+00 0.  1.
        -11    1    4    4    0    0  0.24850424917E-01 -0.75028969334E-02  0.16741018678E-02  0.26017317675E-01  0.51100000000E-03 0.  1.
         11    1    4    4    0    0  0.82616705957E-01 -0.47226082790E-01  0.39069606599E-01  0.10287136764E+00  0.51100000000E-03 0. -1.
</event>
<event>
 7    1  0.1063984E+005  0.1043930E+01  0.7957747E-01            NaN
         13   -1    0    0    0    0  0.00000000000E+00  0.00000000000E+00  0.74505805969E-08  0.10566000000E+00  0.10566000000E+00 0.  1.
     999900   -1    0    0    0    0 -0.00000000000E+00 -0.00000000000E+00 -0.74505805969E-08  0.93827000000E+00  0.93827000000E+00 0. -1.
     999902    2    1    2    0    0  0.98942165405E-02 -0.43978297935E-02 -0.30763959824E-01  0.10113162352E+01  0.10107902206E+01 0.  0.
         14    1    1    2    0    0 -0.98942165405E-02  0.43978297935E-02  0.30763959824E-01  0.32613764761E-01  0.00000000000E+00 0.  1.
     999901    1    3    3    0    0 -0.20623428811E-01 -0.10859652736E+00 -0.63182803206E-01  0.88916286370E+00  0.88000000000E+00 0.  1.
        -11    1    3    3    0    0  0.23683234435E-01  0.72623852831E-01  0.43608328188E-01  0.87960599143E-01  0.51100000000E-03 0. -1.
         11    1    3    3    0    0  0.68344109171E-02  0.31574844735E-01 -0.11189484805E-01  0.34192772392E-01  0.51100000000E-03 0.  1.
</event>
<event>
 8    1  0.1063984E+005  0.1043930E+01  0.7957747E-01            NaN
         13   -1    0    0    0    0  0.00000000000E+00  0.00000000000E+00  0.74505805969E-08  0.10566000000E+00  0.10566000000E+00 0. -1.
     999900   -1    0    0    0    0 -0.00000000000E+00 -0.00000000000E+00 -0.74505805969E-08  0.93827000000E+00  0.93827000000E+00 0. -1.
     999902    2    1    2    0    0 -0.13610268864E-01  0.18187362606E-01  0.71783296309E-02  0.10201067342E+01  0.10198285156E+01 0.  0.
     999903    2    3    3    0    0  0.37990626643E-01  0.10492279645E+00  0.68500399944E-01  0.13221818026E+00  0.18364680033E-01 0.  0.
         14    1    1    2    0    0  0.13610268864E-01 -0.18187362606E-01 -0.71783296309E-02  0.23823265800E-01  0.00000000000E+00 0.  1.
     999901    1    3    3    0    0 -0.51600895506E-01 -0.86735433843E-01 -0.61322070313E-01  0.88788855393E+00  0.88000000000E+00 0. -1.
        -11    1    4    4    0    0  0.28034708356E-01  0.76699163365E-01  0.59233635487E-01  0.10088404843E+00  0.51100000000E-03 0. -1.
         11    1    4    4    0    0  0.99559182863E-02  0.28223633084E-01  0.92667644569E-02  0.31334131835E-01  0.51100000000E-03 0.  1.
</event>
<event>
 8    1  0.1063984E+005  0.1043930E+01  0.7957747E-01            NaN
         13   -1    0    0    0    0  0.00000000000E+00  0.00000000000E+00  0.74505805969E-08  0.10566000000E+00  0.10566000000E+00 0.  1.
     999900   -1    0    0    0    0 -0.00000000000E+00 -0.00000000000E+00 -0.74505805969E-08  0.93827000000E+00  0.93827000000E+00 0.  1.
     999902    2    1    2    0    0 -0.25576772907E-01  0.18035570077E-02 -0.22670914949E-03  0.10182887144E+01  0.10179658297E+01 0.  0.
     999903    2    3    3    0    0  0.91133756635E-01  0.65168840643E-01  0.55269055424E-01  0.12659578140E+00  0.20481308347E-01 0.  0.
         14    1    1    2    0    0  0.25576772907E-01 -0.18035570077E-02  0.22670914949E-03  0.25641285600E-01  0.00000000000E+00 0. -1.
     999901    1    3    3    0    0 -0.11671052954E+00 -0.63365283635E-01 -0.55495764573E-01  0.89169293300E+00  0.88000000000E+00 0. -1.
        -11    1    4    4    0    0  0.13937961836E-01  0.81943496150E-02  0.16519632122E-01  0.23120845836E-01  0.51100000000E-03 0.  1.
         11    1    4    4    0    0  0.77195794800E-01  0.56974491028E-01  0.38749423302E-01  0.10347493556E+00  0.51100000000E-03 0. -1.
</event>
<event>
 8    1  0.1063984E+005  0.1043930E+01  0.7957747E-01            NaN
         13   -1    0    0    0    0  0.00000000000E+00  0.00000000000E+00  0.74505805969E-08  0.10566000000E+00  0.10566000000E+00 0.  1.
     999900   -1    0    0    0    0 -0.00000000000E+00 -0.00000000000E+00 -0.74505805969E-08  0.93827000000E+00  0.93827000000E+00 0. -1.
     999902    2    1    2    0    0 -0.21479509432E-01 -0.11763673176E-02 -0.11691903188E-01  0.10194462551E+01  0.10191522032E+01 0.  0.
     999903    2    3    3    0    0 -0.14249534854E-01 -0.10077748733E+00  0.76540648398E-01  0.12941387431E+00  0.23028869094E-01 0.  0.
         14    1    1    2    0    0  0.21479509432E-01  0.11763673176E-02  0.11691903188E-01  0.24483744927E-01  0.00000000000E+00 0.  1.
     999901    1    3    3    0    0 -0.72299745775E-02  0.99601120012E-01 -0.88232551586E-01  0.89003238076E+00  0.88000000000E+00 0. -1.
        -11    1    4    4    0    0 -0.12808942262E-01 -0.58142201507E-01  0.57231182241E-01  0.82584828750E-01  0.51100000000E-03 0.  1.
         11    1    4    4    0    0 -0.14405925924E-02 -0.42635285822E-01  0.19309466157E-01  0.46829045564E-01  0.51100000000E-03 0. -1.
</event>
<event>
 7    1  0.1063984E+005  0.1043930E+01  0.7957747E-01            NaN
         13   -1    0    0    0    0  0.00000000000E+00  0.00000000000E+00  0.74505805969E-08  0.10566000000E+00  0.10566000000E+00 0. -1.
     999900   -1    0    0    0    0 -0.00000000000E+00 -0.00000000000E+00 -0.74505805969E-08  0.93827000000E+00  0.93827000000E+00 0. -1.
     999903    2    1    2    0    0 -0.96996243423E-01  0.21403742362E-01 -0.59961753656E-01  0.11732074727E+00  0.17388341323E-01 0.  0.
         14    1    1    2    0    0  0.68743067837E-02 -0.20880712856E-01  0.35394016888E-01  0.41665293646E-01  0.00000000000E+00 0. -1.
     999901    1    1    2    0    0  0.90121936640E-01 -0.52302950623E-03  0.24567736768E-01  0.88494395908E+00  0.88000000000E+00 0.  1.
        -11    1    3    3    0    0 -0.11587595307E-01  0.77198521576E-02 -0.48340873566E-02  0.14747813529E-01  0.51100000000E-03 0. -1.
         11    1    3    3    0    0 -0.85408648117E-01  0.13683890205E-01 -0.55127666300E-01  0.10257293374E+00  0.51100000000E-03 0.  1.
</event>
<event>
 8    1  0.1063984E+005  0.1043930E+01  0.7957747E-01            NaN
         13   -1    0    0    0    0  0.00000000000E+00  0.00000000000E+00  0.74505805969E-08  0.10566000000E+00  0.10566000000E+00 0. -1.
     999900   -1    0    0    0    0 -0.00000000000E+00 -0.00000000000E+00 -0.74505805969E-08  0.93827000000E+00  0.93827000000E+00 0.  1.
     999902    2    1    2    0    0 -0.23165315328E-01  0.15642037626E-02  0.42583749690E-02  0.10203246547E+01  0.10200515618E+01 0.  0.
     999903    2    3    3    0    0  0.13303400728E-01 -0.10867472007E+00  0.68041082693E-01  0.13040846689E+00  0.19738390293E-01 0.  0.
         14    1    1    2    0    0  0.23165315328E-01 -0.15642037626E-02 -0.42583749690E-02  0.23605345264E-01  0.00000000000E+00 0. -1.
     999901    1    3    3    0    0 -0.36468716056E-01  0.11023892383E+00 -0.63782707724E-01  0.88991618784E+00  0.88000000000E+00 0.  1.
        -11    1    4    4    0    0  0.18040188393E-01 -0.81211198965E-01  0.47648475138E-01  0.95871505353E-01  0.51100000000E-03 0. -1.
         11    1    4    4    0    0 -0.47367876652E-02 -0.27463521101E-01  0.20392607555E-01  0.34536961541E-01  0.51100000000E-03 0.  1.
</event>
<event>
 8    1  0.1063984E+005  0.1043930E+01  0.7957747E-01            NaN
         13   -1    0    0    0    0  0.00000000000E+00  0.00000000000E+00  0.74505805969E-08  0.10566000000E+00  0.10566000000E+00 0. -1.
     999900   -1    0    0    0    0 -0.00000000000E+00 -0.00000000000E+00 -0.74505805969E-08  0.93827000000E+00  0.93827000000E+00 0.  1.
     999902    2    1    2    0    0  0.11455001385E-01 -0.16418053435E-01  0.16499179675E-01  0.10179879017E+01  0.10176572977E+01 0.  0.
     999903    2    3    3    0    0  0.80030103139E-01 -0.60352338341E-01 -0.79122317436E-01  0.12906932460E+00  0.18743726526E-01 0.  0.
         14    1    1    2    0    0 -0.11455001385E-01  0.16418053435E-01 -0.16499179675E-01  0.25942098320E-01  0.00000000000E+00 0.  1.
     999901    1    3    3    0    0 -0.68575101755E-01  0.43934284906E-01  0.95621497111E-01  0.88891857708E+00  0.88000000000E+00 0. -1.
        -11    1    4    4    0    0  0.48477006492E-01 -0.42740897086E-01 -0.40989637892E-01  0.76532450488E-01  0.51100000000E-03 0. -1.
         11    1    4    4    0    0  0.31553096647E-01 -0.17611441255E-01 -0.38132679543E-01  0.52536874110E-01  0.51100000000E-03 0.  1.
</event>
<event>
 8    1  0.1063984E+005  0.1043930E+01  0.7957747E-01            NaN
         13   -1    0    0    0    0  0.00000000000E+00  0.00000000000E+00  0.74505805969E-08  0.10566000000E+00  0.10566000000E+00 0.  1.
     999900   -1    0    0    0    0 -0.00000000000E+00 -0.00000000000E+00 -0.74505805969E-08  0.93827000000E+00  0.93827000000E+00 0.  1.
     999902    2    1    2    0    0 -0.15274890573E-01  0.16319675449E-01 -0.28667576069E-02  0.10213939758E+01  0.10211453282E+01 0.  0.
     999903    2    3    3    0    0  0.60797724819E-01  0.12236002653E-01 -0.11318249629E+00  0.13124046014E+00  0.23826409852E-01 0.  0.
         14    1    1    2    0    0  0.15274890573E-01 -0.16319675449E-01  0.28667576069E-02  0.22536024227E-01  0.00000000000E+00 0.  1.
     999901    1    3    3    0    0 -0.76072615392E-01  0.40836727968E-02  0.11031573868E+00  0.89015351564E+00  0.88000000000E+00 0. -1.
        -11    1    4    4    0    0  0.11340144942E-01  0.12176701013E-01 -0.23109816204E-01  0.28481496816E-01  0.51100000000E-03 0.  1.
         11    1    4    4    0    0  0.49457579877E-01  0.59301639165E-04 -0.90072680087E-01  0.10275896332E+00  0.51100000000E-03 0. -1.
</event>
<event>
 8    1  0.1063984E+005  0.1043930E+01  0.7957747E-01            NaN
         13   -1    0    0    0    0  0.00000000000E+00  0.00000000000E+00  0.74505805969E-08  0.10566000000E+00  0.10566000000E+00 0.  1.
     999900   -1    0    0    0    0 -0.00000000000E+00 -0.00000000000E+00 -0.74505805969E-08  0.93827000000E+00  0.93827000000E+00 0.  1.
     999902    2    1    2    0    0  0.68318352913E-02 -0.21854473892E-01  0.19394820165E-03  0.10210317551E+01  0.10207749582E+01 0.  0.
     999903    2    3    3    0    0 -0.73163738895E-01  0.71123179721E-01  0.76712061682E-01  0.12923628661E+00  0.20145421011E-01 0.  0.
         14    1    1    2    0    0 -0.68318352913E-02  0.21854473892E-01 -0.19394820165E-03  0.22898244877E-01  0.00000000000E+00 0.  1.
     999901    1    3    3    0    0  0.79995574186E-01 -0.92977653613E-01 -0.76518113481E-01  0.89179546851E+00  0.88000000000E+00 0. -1.
        -11    1    4    4    0    0 -0.64875146789E-01  0.65841754725E-01  0.61175718461E-01  0.11084516673E+00  0.51100000000E-03 0.  1.
         11    1    4    4    0    0 -0.82885921061E-02  0.52814249958E-02  0.15536343222E-01  0.18391119890E-01  0.51100000000E-03 0. -1.
</event>
<event>
 8    1  0.1063984E+005  0.1043930E+01  0.7957747E-01            NaN
         13   -1    0    0    0    0  0.00000000000E+00  0.00000000000E+00  0.74505805969E-08  0.10566000000E+00  0.10566000000E+00 0. -1.
     999900   -1    0    0    0    0 -0.00000000000E+00 -0.00000000000E+00 -0.74505805969E-08  0.93827000000E+00  0.93827000000E+00 0.  1.
     999902    2    1    2    0    0 -0.18118174450E-01  0.16421559292E-01 -0.26969996387E-02  0.10193289906E+01  0.10190320807E+01 0.  0.
     999903    2    3    3    0    0  0.32714348203E-01  0.92038472785E-01 -0.84788474446E-01  0.13082413797E+00  0.19610217378E-01 0.  0.
         14    1    1    2    0    0  0.18118174450E-01 -0.16421559292E-01  0.26969996387E-02  0.24601009370E-01  0.00000000000E+00 0.  1.
     999901    1    3    3    0    0 -0.50832522653E-01 -0.75616913493E-01  0.82091474807E-01  0.88850485266E+00  0.88000000000E+00 0. -1.
        -11    1    4    4    0    0  0.82761207185E-02  0.28462883941E-01 -0.14697627918E-01  0.33089444296E-01  0.51100000000E-03 0. -1.
         11    1    4    4    0    0  0.24438227484E-01  0.63575588844E-01 -0.70090846529E-01  0.97734693674E-01  0.51100000000E-03 0.  1.
</event>
<event>
 8    1  0.1063984E+005  0.1043930E+01  0.7957747E-01            NaN
         13   -1    0    0    0    0  0.00000000000E+00  0.00000000000E+00  0.74505805969E-08  0.10566000000E+00  0.10566000000E+00 0.  1.
     999900   -1    0    0    0    0 -0.00000000000E+00 -0.00000000000E+00 -0.74505805969E-08  0.93827000000E+00  0.93827000000E+00 0.  1.
     999902    2    1    2    0    0  0.18041564615E-01 -0.90453028238E-02  0.11935950535E-01  0.10204825594E+01  0.10202131500E+01 0.  0.
     999903    2    3    3    0    0  0.62520306971E-01 -0.33146344839E-01 -0.10835784764E+00  0.13085914656E+00  0.19370702940E-01 0.  0.
         14    1    1    2    0    0 -0.18041564615E-01  0.90453028238E-02 -0.11935950535E-01  0.23447440630E-01  0.00000000000E+00 0.  1.
     999901    1    3    3    0    0 -0.44478742356E-01  0.24101042016E-01  0.12029379817E+00  0.88962341281E+00  0.88000000000E+00 0. -1.
        -11    1    4    4    0    0  0.38467011869E-01 -0.94889586825E-02 -0.58055555573E-01  0.70288405821E-01  0.51100000000E-03 0.  1.
         11    1    4    4    0    0  0.24053295102E-01 -0.23657386157E-01 -0.50302292066E-01  0.60570740734E-01  0.51100000000E-03 0. -1.
</event>
<event>
 8    1  0.1063984E+005  0.1043930E+01  0.7957747E-01            NaN
         13   -1    0    0    0    0  0.00000000000E+00  0.00000000000E+00  0.74505805969E-08  0.10566000000E+00  0.10566000000E+00 0.  1.
     999900   -1    0    0    0    0 -0.00000000000E+00 -0.00000000000E+00 -0.74505805969E-08  0.93827000000E+00  0.93827000000E+00 0. -1.
     999902    2    1    2    0    0 -0.15669553922E-01 -0.72464116198E-02  0.16430276826E-01  0.10200972621E+01  0.10198188195E+01 0.  0.
     999903    2    3    3    0    0 -0.26737447878E-01 -0.12188712456E+00  0.39076638740E-01  0.13230345207E+00  0.20145904853E-01 0.  0.
         14    1    1    2    0    0  0.15669553922E-01  0.72464116198E-02 -0.16430276826E-01  0.23832737947E-01  0.00000000000E+00 0. -1.
     999901    1    3    3    0    0  0.11067893957E-01  0.11464071294E+00 -0.22646361913E-01  0.88779380998E+00  0.88000000000E+00 0. -1.
        -11    1    4    4    0    0 -0.79831266262E-02 -0.61898983795E-01  0.10630663174E-01  0.63312610325E-01  0.51100000000E-03 0. -1.
         11    1    4    4    0    0 -0.18754321252E-01 -0.59988140761E-01  0.28445975566E-01  0.68990841743E-01  0.51100000000E-03 0.  1.
</event>
<event>
 8    1  0.1063984E+005  0.1043930E+01  0.7957747E-01            NaN
         13   -1    0    0    0    0  0.00000000000E+00  0.00000000000E+00  0.74505805969E-08  0.10566000000E+00  0.10566000000E+00 0.  1.
     999900   -1    0    0    0    0 -0.00000000000E+00 -0.00000000000E+00 -0.74505805969E-08  0.93827000000E+00  0.93827000000E+00 0.  1.
     999902    2    1    2    0    0 -0.15667905797E-01  0.98900245794E-02 -0.14347414231E-01  0.10204961750E+01  0.10202270821E+01 0.  0.
     999903    2    3    3    0    0  0.17981601438E-02  0.82261476851E-01  0.97795615853E-01  0.13026095343E+00  0.25174382890E-01 0.  0.
         14    1    1    2    0    0  0.15667905797E-01 -0.98900245794E-02  0.14347414231E-01  0.23433824984E-01  0.00000000000E+00 0.  1.
     999901    1    3    3    0    0 -0.17466065941E-01 -0.72371452271E-01 -0.11214303008E+00  0.89023522159E+00  0.88000000000E+00 0.  1.
        -11    1    4    4    0    0  0.12253840654E-01  0.26201188341E-01  0.30173866753E-01  0.41801701366E-01  0.51100000000E-03 0.  1.
         11    1    4    4    0    0 -0.10455680510E-01  0.56060288510E-01  0.67621749100E-01  0.88459252060E-01  0.51100000000E-03 0. -1.
</event>
<event>
 8    1  0.1063984E+005  0.1043930E+01  0.7957747E-01            NaN
         13   -1    0    0    0    0  0.00000000000E+00  0.00000000000E+00  0.74505805969E-08  0.10566000000E+00  0.10566000000E+00 0. -1.
     999900   -1    0    0    0    0 -0.00000000000E+00 -0.00000000000E+00 -0.74505805969E-08  0.93827000000E+00  0.93827000000E+00 0. -1.
     999902    2    1    2    0    0 -0.81966590587E-02  0.14777212145E-01 -0.16882161624E-01  0.10200436315E+01  0.10197639195E+01 0.  0.
     999903    2    3    3    0    0  0.10721433523E+00  0.61994769059E-01  0.33444906173E-01  0.12982904556E+00  0.19968832065E-01 0.  0.
         14    1    1    2    0    0  0.81966590587E-02 -0.14777212145E-01  0.16882161624E-01  0.23886368489E-01  0.00000000000E+00 0. -1.
     999901    1    3    3    0    0 -0.11541099428E+00 -0.47217556914E-01 -0.50327067797E-01  0.89021458595E+00  0.88000000000E+00 0. -1.
        -11    1    4    4    0    0  0.29408576177E-01  0.17679749408E-01  0.21103309108E-03  0.34318268427E-01  0.51100000000E-03 0. -1.
         11    1    4    4    0    0  0.77805759049E-01  0.44315019651E-01  0.33233873082E-01  0.95510777135E-01  0.51100000000E-03 0.  1.
</event>
<event>
 8    1  0.1063984E+005  0.1043930E+01  0.7957747E-01            NaN
         13   -1    0    0    0    0  0.00000000000E+00  0.00000000000E+00  0.74505805969E-08  0.10566000000E+00  0.10566000000E+00 0. -1.
     999900   -1    0    0    0    0 -0.00000000000E+00 -0.00000000000E+00 -0.74505805969E-08  0.93827000000E+00  0.93827000000E+00 0.  1.
     999902    2    1    2    0    0  0.18457579034E-01  0.12468672253E-01  0.44896620665E-02  0.10212076085E+01  0.10209547848E+01 0.  0.
     999903    2    3    3    0    0  0.70913064037E-01  0.97352652275E-01 -0.54537699996E-01  0.13360347517E+00  0.19217864106E-01 0.  0.
         14    1    1    2    0    0 -0.18457579034E-01 -0.12468672253E-01 -0.44896620665E-02  0.22722391534E-01  0.00000000000E+00 0.  1.
     999901    1    3    3    0    0 -0.52455485004E-01 -0.84883980022E-01  0.59027362062E-01  0.88760413330E+00  0.88000000000E+00 0. -1.
        -11    1    4    4    0    0  0.35511268587E-01  0.64601354103E-01 -0.31957402584E-01  0.80348751388E-01  0.51100000000E-03 0.  1.
         11    1    4    4    0    0  0.35401795450E-01  0.32751298171E-01 -0.22580297412E-01  0.53254723783E-01  0.51100000000E-03 0. -1.
</event>
<event>
 8    1  0.1063984E+005  0.1043930E+01  0.7957747E-01            NaN
         13   -1    0    0    0    0  0.00000000000E+00  0.00000000000E+00  0.74505805969E-08  0.10566000000E+00  0.10566000000E+00 0. -1.
     999900   -1    0    0    0    0 -0.00000000000E+00 -0.00000000000E+00 -0.74505805969E-08  0.93827000000E+00  0.93827000000E+00 0. -1.
     999902    2    1    2    0    0 -0.13715668656E-01 -0.15912400865E-01  0.11500429943E-01  0.10199803871E+01  0.10196991743E+01 0.  0.
     999903    2    3    3    0    0  0.11617017564E+00 -0.53459007461E-01 -0.53446306405E-02  0.12949521808E+00  0.19674126244E-01 0.  0.
         14    1    1    2    0    0  0.13715668656E-01  0.15912400865E-01 -0.11500429943E-01  0.23949612875E-01  0.00000000000E+00 0.  1.
     999901    1    3    3    0    0 -0.12988584429E+00  0.37546606596E-01  0.16845060584E-01  0.89048516904E+00  0.88000000000E+00 0.  1.
        -11    1    4    4    0    0  0.41011290899E-01 -0.88745387947E-02 -0.38723543666E-03  0.41965396368E-01  0.51100000000E-03 0. -1.
         11    1    4    4    0    0  0.75158884739E-01 -0.44584468667E-01 -0.49573952038E-02  0.87529821717E-01  0.51100000000E-03 0.  1.
</event>
<event>
 8    1  0.1063984E+005  0.1043930E+01  0.7957747E-01            NaN
         13   -1    0    0    0    0  0.00000000000E+00  0.00000000000E+00  0.74505805969E-08  0.10566000000E+00  0.10566000000E+00 0.  1.
     999900   -1    0    0    0    0 -0.00000000000E+00 -0.00000000000E+00 -0.74505805969E-08  0.93827000000E+00  0.93827000000E+00 0.  1.
     999902    2    1    2    0    0 -0.10588319902E-02 -0.19111608522E-01 -0.15485417112E-01  0.10193094223E+01  0.10190120340E+01 0.  0.
     999903    2    3    3    0    0 -0.39424461864E-01  0.22206223862E-01 -0.12149619936E+00  0.13115551060E+00  0.19825159051E-01 0.  0.
         14    1    1    2    0    0  0.10588319902E-02  0.19111608522E-01  0.15485417112E-01  0.24620577747E-01  0.00000000000E+00 0.  1.
     999901    1    3    3    0    0  0.38365629874E-01 -0.41317832384E-01  0.10601078225E+00  0.88815391165E+00  0.88000000000E+00 0. -1.
        -11    1    4    4    0    0 -0.23462085978E-02  0.26941914136E-03 -0.29184561621E-01  0.29284416324E-01  0.51100000000E-03 0.  1.
         11    1    4    4    0    0 -0.37078253267E-01  0.21936804721E-01 -0.92311637737E-01  0.10187109428E+00  0.51100000000E-03 0. -1.
</event>
<event>
 8    1  0.1063984E+005  0.1043930E+01  0.7957747E-01            NaN
         13   -1    0    0    0    0  0.00000000000E+00  0.00000000000E+00  0.74505805969E-08  0.10566000000E+00  0.10566000000E+00 0. -1.
     999900   -1    0    0    0    0 -0.00000000000E+00 -0.00000000000E+00 -0.74505805969E-08  0.93827000000E+00  0.93827000000E+00 0. -1.
     999902    2    1    2    0    0 -0.12615004694E-01 -0.14385433278E-01  0.13234315967E-01  0.10206657323E+01  0.10204005639E+01 0.  0.
     999903    2    3    3    0    0  0.26667564187E-01 -0.79892686900E-01 -0.97886581064E-01  0.13039488907E+00  0.18084356301E-01 0.  0.
         14    1    1    2    0    0  0.12615004694E-01  0.14385433278E-01 -0.13234315967E-01  0.23264267732E-01  0.00000000000E+00 0. -1.
     999901    1    3    3    0    0 -0.39282568881E-01  0.65507253622E-01  0.11112089703E+00  0.89027084320E+00  0.88000000000E+00 0. -1.
        -11    1    4    4    0    0  0.63621557738E-02 -0.44084205821E-01 -0.44324408411E-01  0.62839545917E-01  0.51100000000E-03 0. -1.
         11    1    4    4    0    0  0.20305408414E-01 -0.35808481079E-01 -0.53562172653E-01  0.67555343151E-01  0.51100000000E-03 0.  1.
</event>
<event>
 8    1  0.1063984E+005  0.1043930E+01  0.7957747E-01            NaN
         13   -1    0    0    0    0  0.00000000000E+00  0.00000000000E+00  0.74505805969E-08  0.10566000000E+00  0.10566000000E+00 0. -1.
     999900   -1    0    0    0    0 -0.00000000000E+00 -0.00000000000E+00 -0.74505805969E-08  0.93827000000E+00  0.93827000000E+00 0. -1.
     999902    2    1    2    0    0  0.79626898499E-02  0.15742859067E-01  0.15937264606E-01  0.10201552562E+01  0.10198781830E+01 0.  0.
     999903    2    3    3    0    0 -0.55364506239E-01  0.51495027056E-01  0.10665409685E+00  0.13250775015E+00  0.21592617108E-01 0.  0.
         14    1    1    2    0    0 -0.79626898499E-02 -0.15742859067E-01 -0.15937264606E-01  0.23774743834E-01  0.00000000000E+00 0.  1.
     999901    1    3    3    0    0  0.63327196089E-01 -0.35752167988E-01 -0.90716832241E-01  0.88764750601E+00  0.88000000000E+00 0. -1.
        -11    1    4    4    0    0 -0.32563085377E-01  0.18885702778E-01  0.63385513698E-01  0.73722511938E-01  0.51100000000E-03 0. -1.
         11    1    4    4    0    0 -0.22801420862E-01  0.32609324278E-01  0.43268583149E-01  0.58785238214E-01  0.51100000000E-03 0.  1.
</event>
<event>
 8    1  0.1063984E+005  0.1043930E+01  0.7957747E-01            NaN
         13   -1    0    0    0    0  0.00000000000E+00  0.00000000000E+00  0.74505805969E-08  0.10566000000E+00  0.10566000000E+00 0.  1.
     999900   -1    0    0    0    0 -0.00000000000E+00 -0.00000000000E+00 -0.74505805969E-08  0.93827000000E+00  0.93827000000E+00 0.  1.
     999902    2    1    2    0    0 -0.22248830200E-01  0.18973100882E-01 -0.43939956444E-02  0.10143614999E+01  0.10139304494E+01 0.  0.
     999903    2    3    3    0    0 -0.38773755857E-01  0.10477505228E+00 -0.59871523655E-01  0.12829558576E+00  0.19847978657E-01 0.  0.
         14    1    1    2    0    0  0.22248830200E-01 -0.18973100882E-01  0.43939956444E-02  0.29568500132E-01  0.00000000000E+00 0.  1.
     999901    1    3    3    0    0  0.16524925658E-01 -0.85801951399E-01  0.55477528010E-01  0.88606591411E+00  0.88000000000E+00 0. -1.
        -11    1    4    4    0    0 -0.39197638543E-01  0.84153555322E-01 -0.48838457804E-01  0.10489867407E+00  0.51100000000E-03 0. -1.
         11    1    4    4    0    0  0.42388268594E-03  0.20621496958E-01 -0.11033065851E-01  0.23396911685E-01  0.51100000000E-03 0.  1.
</event>
<event>
 8    1  0.1063984E+005  0.1043930E+01  0.7957747E-01            NaN
         13   -1    0    0    0    0  0.00000000000E+00  0.00000000000E+00  0.74505805969E-08  0.10566000000E+00  0.10566000000E+00 0.  1.
     999900   -1    0    0    0    0 -0.00000000000E+00 -0.00000000000E+00 -0.74505805969E-08  0.93827000000E+00  0.93827000000E+00 0. -1.
     999902    2    1    2    0    0  0.23528872984E-02  0.62725517419E-02 -0.22898613356E-01  0.10200715114E+01  0.10197924597E+01 0.  0.
     999903    2    3    3    0    0  0.74786807878E-01 -0.37908522267E-01  0.94883698536E-01  0.12817952628E+00  0.19923654694E-01 0.  0.
         14    1    1    2    0    0 -0.23528872984E-02 -0.62725517419E-02  0.22898613356E-01  0.23858488587E-01  0.00000000000E+00 0.  1.
     999901    1    3    3    0    0 -0.72433920580E-01  0.44181074009E-01 -0.11778231189E+00  0.89189198513E+00  0.88000000000E+00 0. -1.
        -11    1    4    4    0    0  0.17617720818E-01 -0.20650191007E-02  0.28144714657E-01  0.33272127597E-01  0.51100000000E-03 0.  1.
         11    1    4    4    0    0  0.57169087060E-01 -0.35843503167E-01  0.66738983878E-01  0.94907398682E-01  0.51100000000E-03 0. -1.
</event>
<event>
 8    1  0.1063984E+005  0.1043930E+01  0.7957747E-01            NaN
         13   -1    0    0    0    0  0.00000000000E+00  0.00000000000E+00  0.74505805969E-08  0.10566000000E+00  0.10566000000E+00 0.  1.
     999900   -1    0    0    0    0 -0.00000000000E+00 -0.00000000000E+00 -0.74505805969E-08  0.93827000000E+00  0.93827000000E+00 0. -1.
     999902    2    1    2    0    0  0.86821765091E-02 -0.21237674459E-01  0.18669942733E-02  0.10209103416E+01  0.10206507830E+01 0.  0.
     999903    2    3    3    0    0  0.30954409458E-01 -0.97015148657E-01  0.84223667897E-01  0.13354294325E+00  0.19234784232E-01 0.  0.
         14    1    1    2    0    0 -0.86821765091E-02  0.21237674459E-01 -0.18669942733E-02  0.23019658403E-01  0.00000000000E+00 0.  1.
     999901    1    3    3    0    0 -0.22272232949E-01  0.75777474197E-01 -0.82356673624E-01  0.88736739835E+00  0.88000000000E+00 0. -1.
        -11    1    4    4    0    0 -0.25401996848E-02 -0.11473594640E-01  0.91431659228E-02  0.14898140572E-01  0.51100000000E-03 0.  1.
         11    1    4    4    0    0  0.33494609143E-01 -0.85541554016E-01  0.75080501974E-01  0.11864480268E+00  0.51100000000E-03 0. -1.
</event>
<event>
 8    1  0.1063984E+005  0.1043930E+01  0.7957747E-01            NaN
         13   -1    0    0    0    0  0.00000000000E+00  0.00000000000E+00  0.74505805969E-08  0.10566000000E+00  0.10566000000E+00 0. -1.
     999900   -1    0    0    0    0 -0.00000000000E+00 -0.00000000000E+00 -0.74505805969E-08  0.93827000000E+00  0.93827000000E+00 0.  1.
     999902    2    1    2    0    0  0.15227609577E-01 -0.16514559546E-01  0.76450879427E-02  0.10202011538E+01  0.10199251620E+01 0.  0.
     999903    2    3    3    0    0  0.22259157128E-01  0.12194296344E+00  0.29945693676E-01  0.12906859055E+00  0.19909798829E-01 0.  0.
         14    1    1    2    0    0 -0.15227609577E-01  0.16514559546E-01 -0.76450879427E-02  0.23728846160E-01  0.00000000000E+00 0.  1.
     999901    1    3    3    0    0 -0.70315475514E-02 -0.13845752299E+00 -0.22300605734E-01  0.89113256329E+00  0.88000000000E+00 0.  1.
        -11    1    4    4    0    0  0.11229722175E-01  0.27315731801E-01  0.13136836246E-01  0.32327905152E-01  0.51100000000E-03 0.  1.
         11    1    4    4    0    0  0.11029434953E-01  0.94627231639E-01  0.16808857430E-01  0.96740685403E-01  0.51100000000E-03 0. -1.
</event>
<event>
 8    1  0.1063984E+005  0.1043930E+01  0.7957747E-01            NaN
         13   -1    0    0    0    0  0.00000000000E+00  0.00000000000E+00  0.74505805969E-08  0.10566000000E+00  0.10566000000E+00 0.  1.
     999900   -1    0    0    0    0 -0.00000000000E+00 -0.00000000000E+00 -0.74505805969E-08  0.93827000000E+00  0.93827000000E+00 0.  1.
     999902    2    1    2    0    0  0.20283997784E-01  0.14529246974E-03 -0.11606511848E-01  0.10205596600E+01  0.10202920399E+01 0.  0.
     999903    2    3    3    0    0 -0.19819757532E-01 -0.21254077522E-01  0.12405822202E+00  0.12900418539E+00  0.20176193869E-01 0.  0.
         14    1    1    2    0    0 -0.20283997784E-01 -0.14529246974E-03  0.11606511848E-01  0.23370340034E-01  0.00000000000E+00 0.  1.
     999901    1    3    3    0    0  0.40103755316E-01  0.21399369991E-01 -0.13566473387E+00  0.89155547457E+00  0.88000000000E+00 0.  1.
        -11    1    4    4    0    0 -0.59122220127E-02  0.23238844660E-02  0.42449624385E-01  0.42925360098E-01  0.51100000000E-03 0.  1.
         11    1    4    4    0    0 -0.13907535519E-01 -0.23577961988E-01  0.81608597633E-01  0.86078825296E-01  0.51100000000E-03 0. -1.
</event>
<event>
 8    1  0.1063984E+005  0.1043930E+01  0.7957747E-01            NaN
         13   -1    0    0    0    0  0.00000000000E+00  0.00000000000E+00  0.74505805969E-08  0.10566000000E+00  0.10566000000E+00 0. -1.
     999900   -1    0    0    0    0 -0.00000000000E+00 -0.00000000000E+00 -0.74505805969E-08  0.93827000000E+00  0.93827000000E+00 0.  1.
     999902    2    1    2    0    0 -0.81084074078E-02 -0.21085108059E-01  0.56028424354E-02  0.10206551231E+01  0.10203897100E+01 0.  0.
     999903    2    3    3    0    0  0.92761236764E-01  0.52140228178E-01  0.70782287549E-01  0.12948454734E+00  0.20805415877E-01 0.  0.
         14    1    1    2    0    0  0.81084074078E-02  0.21085108059E-01 -0.56028424354E-02  0.23274876925E-01  0.00000000000E+00 0. -1.
     999901    1    3    3    0    0 -0.10086964417E+00 -0.73225336236E-01 -0.65179445114E-01  0.89117057573E+00  0.88000000000E+00 0.  1.
        -11    1    4    4    0    0  0.65120603378E-01  0.40482015688E-01  0.60818001432E-01  0.97870204851E-01  0.51100000000E-03 0. -1.
         11    1    4    4    0    0  0.27640633386E-01  0.11658212490E-01  0.99642861173E-02  0.31614342493E-01  0.51100000000E-03 0.  1.
</event>
<event>
 8    1  0.1063984E+005  0.1043930E+01  0.7957747E-01            NaN
         13   -1    0    0    0    0  0.00000000000E+00  0.00000000000E+00  0.74505805969E-08  0.10566000000E+00  0.10566000000E+00 0. -1.
     999900   -1    0    0    0    0 -0.00000000000E+00 -0.00000000000E+00 -0.74505805969E-08  0.93827000000E+00  0.93827000000E+00 0. -1.
     999902    2    1    2    0    0  0.74319319539E-02  0.11857979414E-01  0.19733057635E-01  0.10197382896E+01  0.10194512938E+01 0.  0.
     999903    2    3    3    0    0  0.42300048819E-01  0.35394729075E-01  0.12060650451E+00  0.13297720766E+00  0.97430925331E-02 0.  0.
         14    1    1    2    0    0 -0.74319319539E-02 -0.11857979414E-01 -0.19733057635E-01  0.24191710398E-01  0.00000000000E+00 0.  1.
     999901    1    3    3    0    0 -0.34868116865E-01 -0.23536749661E-01 -0.10087344687E+00  0.88676108194E+00  0.88000000000E+00 0. -1.
        -11    1    4    4    0    0  0.23768923181E-01  0.18283533726E-01  0.54278945474E-01  0.62013823923E-01  0.51100000000E-03 0. -1.
         11    1    4    4    0    0  0.18531125638E-01  0.17111195349E-01  0.66327559032E-01  0.70963383740E-01  0.51100000000E-03 0.  1.
</event>
<event>
 8    1  0.1063984E+005  0.1043930E+01  0.7957747E-01            NaN
         13   -1    0    0    0    0  0.00000000000E+00  0.00000000000E+00  0.74505805969E-08  0.10566000000E+00  0.10566000000E+00 0. -1.
     999900   -1    0    0    0    0 -0.00000000000E+00 -0.00000000000E+00 -0.74505805969E-08  0.93827000000E+00  0.93827000000E+00 0. -1.
     999902    2    1    2    0    0  0.24476389225E-01 -0.12382267090E-01  0.96747004428E-02  0.10148436803E+01  0.10144267748E+01 0.  0.
     999903    2    3    3    0    0  0.67710506563E-01  0.47594871894E-01  0.94963339310E-01  0.12763423597E+00  0.20554265963E-01 0.  0.
         14    1    1    2    0    0 -0.24476389225E-01  0.12382267090E-01 -0.96747004428E-02  0.29086319748E-01  0.00000000000E+00 0. -1.
     999901    1    3    3    0    0 -0.43234117338E-01 -0.59977138984E-01 -0.85288638867E-01  0.88720944428E+00  0.88000000000E+00 0. -1.
        -11    1    4    4    0    0  0.58063132261E-01  0.30569447114E-01  0.70730942809E-01  0.96482878360E-01  0.51100000000E-03 0.  1.
         11    1    4    4    0    0  0.96473743017E-02  0.17025424780E-01  0.24232396501E-01  0.31151357611E-01  0.51100000000E-03 0. -1.
</event>
<event>
 8    1  0.1063984E+005  0.1043930E+01  0.7957747E-01            NaN
         13   -1    0    0    0    0  0.00000000000E+00  0.00000000000E+00  0.74505805969E-08  0.10566000000E+00  0.10566000000E+00 0.  1.
     999900   -1    0    0    0    0 -0.00000000000E+00 -0.00000000000E+00 -0.74505805969E-08  0.93827000000E+00  0.93827000000E+00 0. -1.
     999902    2    1    2    0    0 -0.14684637632E-01 -0.16053191545E-02  0.19007302729E-01  0.10198573352E+01  0.10195731906E+01 0.  0.
     999903    2    3    3    0    0 -0.96896619495E-01 -0.87674677863E-01  0.77788170553E-02  0.13177354225E+00  0.15098093718E-01 0.  0.
         14    1    1    2    0    0  0.14684637632E-01  0.16053191545E-02 -0.19007302729E-01  0.24072664768E-01  0.00000000000E+00 0. -1.
     999901    1    3    3    0    0  0.82211981862E-01  0.86069358709E-01  0.11228485674E-01  0.88808379298E+00  0.88000000000E+00 0. -1.
        -11    1    4    4    0    0 -0.71705588772E-01 -0.73257560525E-01  0.64206602542E-02  0.10271245121E+00  0.51100000000E-03 0.  1.
         11    1    4    4    0    0 -0.25191030723E-01 -0.14417117339E-01  0.13581568011E-02  0.29061091035E-01  0.51100000000E-03 0. -1.
</event>
<event>
 8    1  0.1063984E+005  0.1043930E+01  0.7957747E-01            NaN
         13   -1    0    0    0    0  0.00000000000E+00  0.00000000000E+00  0.74505805969E-08  0.10566000000E+00  0.10566000000E+00 0. -1.
     999900   -1    0    0    0    0 -0.00000000000E+00 -0.00000000000E+00 -0.74505805969E-08  0.93827000000E+00  0.93827000000E+00 0.  1.
     999902    2    1    2    0    0  0.16040146546E-01  0.90375631625E-02  0.15016012737E-01  0.10201719595E+01  0.10198952802E+01 0.  0.
     999903    2    3    3    0    0 -0.25299285610E-01  0.10101493087E+00  0.78341205144E-01  0.13215232864E+00  0.21973243546E-01 0.  0.
         14    1    1    2    0    0 -0.16040146546E-01 -0.90375631625E-02 -0.15016012737E-01  0.23758040484E-01  0.00000000000E+00 0.  1.
     999901    1    3    3    0    0  0.41339432156E-01 -0.91977367705E-01 -0.63325192407E-01  0.88801963087E+00  0.88000000000E+00 0.  1.
        -11    1    4    4    0    0 -0.36583398782E-02  0.45631272314E-01  0.43935858765E-01  0.63452480409E-01  0.51100000000E-03 0.  1.
         11    1    4    4    0    0 -0.21640945732E-01  0.55383658554E-01  0.34405346379E-01  0.68699848234E-01  0.51100000000E-03 0. -1.
</event>
<event>
 8    1  0.1063984E+005  0.1043930E+01  0.7957747E-01            NaN
         13   -1    0    0    0    0  0.00000000000E+00  0.00000000000E+00  0.74505805969E-08  0.10566000000E+00  0.10566000000E+00 0.  1.
     999900   -1    0    0    0    0 -0.00000000000E+00 -0.00000000000E+00 -0.74505805969E-08  0.93827000000E+00  0.93827000000E+00 0. -1.
     999902    2    1    2    0    0  0.92263331143E-02  0.21594765339E-01  0.10615613105E-02  0.10204228516E+01  0.10201520524E+01 0.  0.
     999903    2    3    3    0    0  0.51693992995E-01  0.92140157682E-01  0.78859747070E-01  0.13316149653E+00  0.18736245114E-01 0.  0.
         14    1    1    2    0    0 -0.92263331143E-02 -0.21594765339E-01 -0.10615613105E-02  0.23507148385E-01  0.00000000000E+00 0. -1.
     999901    1    3    3    0    0 -0.42467659881E-01 -0.70545392343E-01 -0.77798185760E-01  0.88726135508E+00  0.88000000000E+00 0. -1.
        -11    1    4    4    0    0  0.18315476818E-01  0.22309262985E-01  0.29976545065E-01  0.41617475668E-01  0.51100000000E-03 0. -1.
         11    1    4    4    0    0  0.33378516177E-01  0.69830894697E-01  0.48883202006E-01  0.91544020863E-01  0.51100000000E-03 0.  1.
</event>
<event>
 8    1  0.1063984E+005  0.1043930E+01  0.7957747E-01            NaN
         13   -1    0    0    0    0  0.00000000000E+00  0.00000000000E+00  0.74505805969E-08  0.10566000000E+00  0.10566000000E+00 0.  1.
     999900   -1    0    0    0    0 -0.00000000000E+00 -0.00000000000E+00 -0.74505805969E-08  0.93827000000E+00  0.93827000000E+00 0. -1.
     999902    2    1    2    0    0  0.16207342784E-01 -0.72747587409E-02  0.10613782497E-02  0.10261331857E+01  0.10259788439E+01 0.  0.
     999903    2    3    3    0    0  0.43643240546E-01  0.53195774319E-01  0.11564558045E+00  0.13622366602E+00  0.21176969917E-01 0.  0.
         14    1    1    2    0    0 -0.16207342784E-01  0.72747587409E-02 -0.10613782497E-02  0.17796814284E-01  0.00000000000E+00 0.  1.
     999901    1    3    3    0    0 -0.27435897761E-01 -0.60470533060E-01 -0.11458420220E+00  0.88990951970E+00  0.88000000000E+00 0.  1.
        -11    1    4    4    0    0  0.15376735525E-02  0.98172012416E-02  0.28290484212E-01  0.29989239706E-01  0.51100000000E-03 0.  1.
         11    1    4    4    0    0  0.42105566993E-01  0.43378573078E-01  0.87355096239E-01  0.10623442631E+00  0.51100000000E-03 0. -1.
</event>
<event>
 8    1  0.1063984E+005  0.1043930E+01  0.7957747E-01            NaN
         13   -1    0    0    0    0  0.00000000000E+00  0.00000000000E+00  0.74505805969E-08  0.10566000000E+00  0.10566000000E+00 0. -1.
     999900   -1    0    0    0    0 -0.00000000000E+00 -0.00000000000E+00 -0.74505805969E-08  0.93827000000E+00  0.93827000000E+00 0. -1.
     999902    2    1    2    0    0  0.66998511592E-03 -0.23615483060E-01 -0.29781221483E-02  0.10201180465E+01  0.10198400951E+01 0.  0.
     999903    2    3    3    0    0  0.11706926376E+00 -0.36365969666E-01 -0.42831381031E-01  0.13146758130E+00  0.20530500850E-01 0.  0.
         14    1    1    2    0    0 -0.66998511592E-03  0.23615483060E-01  0.29781221483E-02  0.23811953548E-01  0.00000000000E+00 0. -1.
     999901    1    3    3    0    0 -0.11639927864E+00  0.12750486606E-01  0.39853258883E-01  0.88865046515E+00  0.88000000000E+00 0. -1.
        -11    1    4    4    0    0  0.28146968376E-01 -0.15923513809E-01 -0.51533751078E-02  0.32751007874E-01  0.51100000000E-03 0. -1.
         11    1    4    4    0    0  0.88922295380E-01 -0.20442455857E-01 -0.37678005923E-01  0.98716573423E-01  0.51100000000E-03 0.  1.
</event>
<event>
 8    1  0.1063984E+005  0.1043930E+01  0.7957747E-01            NaN
         13   -1    0    0    0    0  0.00000000000E+00  0.00000000000E+00  0.74505805969E-08  0.10566000000E+00  0.10566000000E+00 0. -1.
     999900   -1    0    0    0    0 -0.00000000000E+00 -0.00000000000E+00 -0.74505805969E-08  0.93827000000E+00  0.93827000000E+00 0.  1.
     999902    2    1    2    0    0 -0.47767213162E-02 -0.11365702079E-01 -0.20827739486E-01  0.10197268807E+01  0.10194396109E+01 0.  0.
     999903    2    3    3    0    0 -0.90531536624E-01 -0.85693283067E-01 -0.39782584089E-01  0.13223729556E+00  0.19098441176E-01 0.  0.
         14    1    1    2    0    0  0.47767213162E-02  0.11365702079E-01  0.20827739486E-01  0.24203119269E-01  0.00000000000E+00 0. -1.
     999901    1    3    3    0    0  0.85754815307E-01  0.74327580988E-01  0.18954844603E-01  0.88748958517E+00  0.88000000000E+00 0. -1.
        -11    1    4    4    0    0 -0.40599918674E-01 -0.49376514749E-01 -0.25753124868E-01  0.68919359882E-01  0.51100000000E-03 0. -1.
         11    1    4    4    0    0 -0.49931617950E-01 -0.36316768318E-01 -0.14029459221E-01  0.63317935683E-01  0.51100000000E-03 0.  1.
</event>
<event>
 8    1  0.1063984E+005  0.1043930E+01  0.7957747E-01            NaN
         13   -1    0    0    0    0  0.00000000000E+00  0.00000000000E+00  0.74505805969E-08  0.10566000000E+00  0.10566000000E+00 0.  1.
     999900   -1    0    0    0    0 -0.00000000000E+00 -0.00000000000E+00 -0.74505805969E-08  0.93827000000E+00  0.93827000000E+00 0.  1.
     999902    2    1    2    0    0  0.22976875056E-02 -0.23079488794E-01 -0.57383142701E-02  0.10200371052E+01  0.10197572386E+01 0.  0.
     999903    2    3    3    0    0 -0.27803762852E-01 -0.58486443440E-01 -0.11355553282E+00  0.13223966076E+00  0.19968864473E-01 0.  0.
         14    1    1    2    0    0 -0.22976875056E-02  0.23079488794E-01  0.57383142701E-02  0.23892894792E-01  0.00000000000E+00 0. -1.
     999901    1    3    3    0    0  0.30101450358E-01  0.35406954646E-01  0.10781721855E+00  0.88779744445E+00  0.88000000000E+00 0. -1.
        -11    1    4    4    0    0 -0.24503346252E-01 -0.30137618166E-01 -0.72249394909E-01  0.82030032256E-01  0.51100000000E-03 0. -1.
         11    1    4    4    0    0 -0.33004166003E-02 -0.28348825275E-01 -0.41306137914E-01  0.50209628505E-01  0.51100000000E-03 0.  1.
</event>
<event>
 8    1  0.1063984E+005  0.1043930E+01  0.7957747E-01            NaN
         13   -1    0    0    0    0  0.00000000000E+00  0.00000000000E+00  0.74505805969E-08  0.10566000000E+00  0.10566000000E+00 0. -1.
     999900   -1    0    0    0    0 -0.00000000000E+00 -0.00000000000E+00 -0.74505805969E-08  0.93827000000E+00  0.93827000000E+00 0.  1.
     999902    2    1    2    0    0 -0.16747297180E-01 -0.13092905646E-01  0.11434167588E-01  0.10197921391E+01  0.10195064348E+01 0.  0.
     999903    2    3    3    0    0 -0.98353770855E-01  0.56977754067E-01 -0.60621045652E-01  0.13031956073E+00  0.19706547951E-01 0.  0.
         14    1    1    2    0    0  0.16747297180E-01  0.13092905646E-01 -0.11434167588E-01  0.24137860914E-01  0.00000000000E+00 0.  1.
     999901    1    3    3    0    0  0.81606473675E-01 -0.70070659713E-01  0.72055213240E-01  0.88947257836E+00  0.88000000000E+00 0. -1.
        -11    1    4    4    0    0 -0.94726736697E-01  0.57540052494E-01 -0.55378078274E-01  0.12389917256E+00  0.51100000000E-03 0. -1.
         11    1    4    4    0    0 -0.36270341580E-02 -0.56229842741E-03 -0.52429673781E-02  0.64203881684E-02  0.51100000000E-03 0.  1.
</event>
<event>
 8    1  0.1063984E+005  0.1043930E+01  0.7957747E-01            NaN
         13   -1    0    0    0    0  0.00000000000E+00  0.00000000000E+00  0.74505805969E-08  0.10566000000E+00  0.10566000000E+00 0. -1.
     999900   -1    0    0    0    0 -0.00000000000E+00 -0.00000000000E+00 -0.74505805969E-08  0.93827000000E+00  0.93827000000E+00 0. -1.
     999902    2    1    2    0    0  0.17586744430E-01  0.11689728482E-01 -0.96045371178E-02  0.10207310676E+01  0.10204674036E+01 0.  0.
     999903    2    3    3    0    0 -0.76888819637E-01  0.30711133480E-01 -0.96089616768E-01  0.13125531466E+00  0.33759130181E-01 0.  0.
         14    1    1    2    0    0 -0.17586744430E-01 -0.11689728482E-01  0.96045371178E-02  0.23198932408E-01  0.00000000000E+00 0. -1.
     999901    1    3    3    0    0  0.94475564067E-01 -0.19021404997E-01  0.86485079651E-01  0.88947575293E+00  0.88000000000E+00 0.  1.
        -11    1    4    4    0    0 -0.58908352281E-01  0.31840934642E-01 -0.55976638423E-01  0.87279346110E-01  0.51100000000E-03 0. -1.
         11    1    4    4    0    0 -0.17980467357E-01 -0.11298011619E-02 -0.40112978345E-01  0.43975968548E-01  0.51100000000E-03 0.  1.
</event>
<event>
 8    1  0.1063984E+005  0.1043930E+01  0.7957747E-01            NaN
         13   -1    0    0    0    0  0.00000000000E+00  0.00000000000E+00  0.74505805969E-08  0.10566000000E+00  0.10566000000E+00 0. -1.
     999900   -1    0    0    0    0 -0.00000000000E+00 -0.00000000000E+00 -0.74505805969E-08  0.93827000000E+00  0.93827000000E+00 0. -1.
     999902    2    1    2    0    0  0.90127792969E-02 -0.17331800316E-01  0.14560383822E-01  0.10195655532E+01  0.10192743943E+01 0.  0.
     999903    2    3    3    0    0 -0.34972078147E-01 -0.11987255369E+00 -0.34575873365E-01  0.13116043973E+00  0.20373869371E-01 0.  0.
         14    1    1    2    0    0 -0.90127792969E-02  0.17331800316E-01 -0.14560383822E-01  0.24364446842E-01  0.00000000000E+00 0.  1.
     999901    1    3    3    0    0  0.43984857444E-01  0.10254075338E+00  0.49136257187E-01  0.88840511342E+00  0.88000000000E+00 0. -1.
        -11    1    4    4    0    0 -0.30810804710E-01 -0.96816234781E-01 -0.19966727908E-01  0.10354525749E+00  0.51100000000E-03 0. -1.
         11    1    4    4    0    0 -0.41612734361E-02 -0.23056318913E-01 -0.14609145457E-01  0.27615182245E-01  0.51100000000E-03 0.  1.
</event>
<event>
 8    1  0.1063984E+005  0.1043930E+01  0.7957747E-01            NaN
         13   -1    0    0    0    0  0.00000000000E+00  0.00000000000E+00  0.74505805969E-08  0.10566000000E+00  0.10566000000E+00 0.  1.
     999900   -1    0    0    0    0 -0.00000000000E+00 -0.00000000000E+00 -0.74505805969E-08  0.93827000000E+00  0.93827000000E+00 0. -1.
     999902    2    1    2    0    0  0.17368564165E-01  0.40672544750E-02 -0.15192445110E-01  0.10204988249E+01  0.10202297935E+01 0.  0.
     999903    2    3    3    0    0 -0.18651431612E-01 -0.66459409283E-01 -0.11046758039E+00  0.13182070439E+00  0.20220850781E-01 0.  0.
         14    1    1    2    0    0 -0.17368564165E-01 -0.40672544750E-02  0.15192445110E-01  0.23431175142E-01  0.00000000000E+00 0.  1.
     999901    1    3    3    0    0  0.36019995777E-01  0.70526663758E-01  0.95275135276E-01  0.88867812047E+00  0.88000000000E+00 0.  1.
        -11    1    4    4    0    0 -0.19012788893E-01 -0.40148142412E-01 -0.57384691148E-01  0.72571505288E-01  0.51100000000E-03 0. -1.
         11    1    4    4    0    0  0.36135728114E-03 -0.26311266871E-01 -0.53082889237E-01  0.59249199102E-01  0.51100000000E-03 0.  1.
</event>
<event>
 8    1  0.1063984E+005  0.1043930E+01  0.7957747E-01            NaN
         13   -1    0    0    0    0  0.00000000000E+00  0.00000000000E+00  0.74505805969E-08  0.10566000000E+00  0.10566000000E+00 0. -1.
     999900   -1    0    0    0    0 -0.00000000000E+00 -0.00000000000E+00 -0.74505805969E-08  0.93827000000E+00  0.93827000000E+00 0.  1.
     999902    2    1    2    0    0  0.14549429682E-01  0.17735223970E-01 -0.31217600840E-02  0.10207789858E+01  0.10205164224E+01 0.  0.
     999903    2    3    3    0    0 -0.10742070659E+00 -0.16218707778E-01  0.66440583813E-01  0.12900070430E+00  0.20605238328E-01 0.  0.
         14    1    1    2    0    0 -0.14549429682E-01 -0.17735223970E-01  0.31217600840E-02  0.23151014219E-01  0.00000000000E+00 0.  1.
     999901    1    3    3    0    0  0.12197013628E+00  0.33953931749E-01 -0.69562343897E-01  0.89177828148E+00  0.88000000000E+00 0.  1.
        -11    1    4    4    0    0 -0.19933580079E-01 -0.80160186865E-02  0.58802453880E-02  0.22280991386E-01  0.51100000000E-03 0. -1.
         11    1    4    4    0    0 -0.87487126515E-01 -0.82026890920E-02  0.60560338425E-01  0.10671971292E+00  0.51100000000E-03 0.  1.
</event>
<event>
 8    1  0.1063984E+005  0.1043930E+01  0.7957747E-01            NaN
         13   -1    0    0    0    0  0.00000000000E+00  0.00000000000E+00  0.74505805969E-08  0.10566000000E+00  0.10566000000E+00 0.  1.
     999900   -1    0    0    0    0 -0.00000000000E+00 -0.00000000000E+00 -0.74505805969E-08  0.93827000000E+00  0.93827000000E+00 0.  1.
     999902    2    1    2    0    0  0.86240227796E-02 -0.21367864358E-01 -0.75604825825E-02  0.10196788084E+01  0.10193903826E+01 0.  0.
     999903    2    3    3    0    0  0.12715342351E+00  0.20026722329E-01 -0.11724938143E-01  0.13075807330E+00  0.19777179808E-01 0.  0.
         14    1    1    2    0    0 -0.86240227796E-02  0.21367864358E-01  0.75604825825E-02  0.24251191580E-01  0.00000000000E+00 0.  1.
     999901    1    3    3    0    0 -0.11852940073E+00 -0.41394586687E-01  0.41644555607E-02  0.88892073512E+00  0.88000000000E+00 0.  1.
        -11    1    4    4    0    0  0.36981574423E-01  0.13222330657E-01  0.18195453419E-02  0.39319699147E-01  0.51100000000E-03 0.  1.
         11    1    4    4    0    0  0.90171849083E-01  0.68043916721E-02 -0.13544483485E-01  0.91438374149E-01  0.51100000000E-03 0. -1.
</event>
<event>
 8    1  0.1063984E+005  0.1043930E+01  0.7957747E-01            NaN
         13   -1    0    0    0    0  0.00000000000E+00  0.00000000000E+00  0.74505805969E-08  0.10566000000E+00  0.10566000000E+00 0.  1.
     999900   -1    0    0    0    0 -0.00000000000E+00 -0.00000000000E+00 -0.74505805969E-08  0.93827000000E+00  0.93827000000E+00 0. -1.
     999902    2    1    2    0    0 -0.19820503869E-01  0.50471074657E-02 -0.18277396116E-01  0.10165002921E+01  0.10161301368E+01 0.  0.
     999903    2    3    3    0    0 -0.60058575759E-02  0.16431273933E-01  0.12223730330E+00  0.12517272915E+00  0.20498700372E-01 0.  0.
         14    1    1    2    0    0  0.19820503869E-01 -0.50471074657E-02  0.18277396116E-01  0.27429707913E-01  0.00000000000E+00 0.  1.
     999901    1    3    3    0    0 -0.13814646294E-01 -0.11384166468E-01 -0.14051469941E+00  0.89132756294E+00  0.88000000000E+00 0. -1.
        -11    1    4    4    0    0 -0.17476722630E-02  0.28643820050E-02  0.88405369177E-01  0.88470500524E-01  0.51100000000E-03 0.  1.
         11    1    4    4    0    0 -0.42581853128E-02  0.13566891928E-01  0.33831934122E-01  0.36702228627E-01  0.51100000000E-03 0. -1.
</event>
<event>
 8    1  0.1063984E+005  0.1043930E+01  0.7957747E-01            NaN
         13   -1    0    0    0    0  0.00000000000E+00  0.00000000000E+00  0.74505805969E-08  0.10566000000E+00  0.10566000000E+00 0. -1.
     999900   -1    0    0    0    0 -0.00000000000E+00 -0.00000000000E+00 -0.74505805969E-08  0.93827000000E+00  0.93827000000E+00 0. -1.
     999902    2    1    2    0    0 -0.22326005693E-01 -0.22382610494E-04 -0.37784844427E-02  0.10212865026E+01  0.10210354511E+01 0.  0.
     999903    2    3    3    0    0 -0.42123395873E-01  0.10301034469E+00  0.68235004632E-01  0.13213318499E+00  0.20436514507E-01 0.  0.
         14    1    1    2    0    0  0.22326005693E-01  0.22382610494E-04  0.37784844427E-02  0.22643497430E-01  0.00000000000E+00 0. -1.
     999901    1    3    3    0    0  0.19797390181E-01 -0.10303272730E+00 -0.72013489075E-01  0.88915331758E+00  0.88000000000E+00 0. -1.
        -11    1    4    4    0    0 -0.93335133472E-02  0.49008254282E-01  0.32576168351E-01  0.59585160271E-01  0.51100000000E-03 0. -1.
         11    1    4    4    0    0 -0.32789882526E-01  0.54002090411E-01  0.35658836281E-01  0.72548024720E-01  0.51100000000E-03 0.  1.
</event>
<event>
 8    1  0.1063984E+005  0.1043930E+01  0.7957747E-01            NaN
         13   -1    0    0    0    0  0.00000000000E+00  0.00000000000E+00  0.74505805969E-08  0.10566000000E+00  0.10566000000E+00 0.  1.
     999900   -1    0    0    0    0 -0.00000000000E+00 -0.00000000000E+00 -0.74505805969E-08  0.93827000000E+00  0.93827000000E+00 0.  1.
     999902    2    1    2    0    0 -0.93343670169E-02  0.22354870564E-01  0.17666883192E-03  0.10197039426E+01  0.10194161215E+01 0.  0.
     999903    2    3    3    0    0  0.92469280195E-01  0.32192971557E-02  0.88170872116E-01  0.12926970439E+00  0.19380973384E-01 0.  0.
         14    1    1    2    0    0  0.93343670169E-02 -0.22354870564E-01 -0.17666883192E-03  0.24226057406E-01  0.00000000000E+00 0. -1.
     999901    1    3    3    0    0 -0.10180364721E+00  0.19135573409E-01 -0.87994203284E-01  0.89043423820E+00  0.88000000000E+00 0.  1.
        -11    1    4    4    0    0  0.16251751983E-01 -0.30732764921E-02  0.25472483022E-01  0.30375532641E-01  0.51100000000E-03 0.  1.
         11    1    4    4    0    0  0.76217528213E-01  0.62925736478E-02  0.62698389094E-01  0.98894171749E-01  0.51100000000E-03 0. -1.
</event>
<event>
 8    1  0.1063984E+005  0.1043930E+01  0.7957747E-01            NaN
         13   -1    0    0    0    0  0.00000000000E+00  0.00000000000E+00  0.74505805969E-08  0.10566000000E+00  0.10566000000E+00 0. -1.
     999900   -1    0    0    0    0 -0.00000000000E+00 -0.00000000000E+00 -0.74505805969E-08  0.93827000000E+00  0.93827000000E+00 0. -1.
     999902    2    1    2    0    0 -0.12758472911E-01 -0.10725171936E-01 -0.17095875703E-01  0.10200537166E+01  0.10197742435E+01 0.  0.
     999903    2    3    3    0    0 -0.70226299410E-01 -0.95141225649E-01  0.53313788497E-01  0.13135458750E+00  0.20690134530E-01 0.  0.
         14    1    1    2    0    0  0.12758472911E-01  0.10725171936E-01  0.17095875703E-01  0.23876283424E-01  0.00000000000E+00 0. -1.
     999901    1    3    3    0    0  0.57467826499E-01  0.84416053713E-01 -0.70409664199E-01  0.88869912908E+00  0.88000000000E+00 0. -1.
        -11    1    4    4    0    0 -0.23050138082E-01 -0.31424342687E-01  0.28486920663E-01  0.48275914789E-01  0.51100000000E-03 0.  1.
         11    1    4    4    0    0 -0.47176161328E-01 -0.63716882962E-01  0.24826867833E-01  0.83078672711E-01  0.51100000000E-03 0. -1.
</event>
<event>
 8    1  0.1063984E+005  0.1043930E+01  0.7957747E-01            NaN
         13   -1    0    0    0    0  0.00000000000E+00  0.00000000000E+00  0.74505805969E-08  0.10566000000E+00  0.10566000000E+00 0.  1.
     999900   -1    0    0    0    0 -0.00000000000E+00 -0.00000000000E+00 -0.74505805969E-08  0.93827000000E+00  0.93827000000E+00 0.  1.
     999902    2    1    2    0    0  0.10883125725E-01 -0.26445543614E-02  0.20464699430E-01  0.10206010477E+01  0.10203343856E+01 0.  0.
     999903    2    3    3    0    0  0.10390806778E+00 -0.24821896396E-01 -0.72917045127E-01  0.13050800504E+00  0.17390538226E-01 0.  0.
         14    1    1    2    0    0 -0.10883125725E-01  0.26445543614E-02 -0.20464699430E-01  0.23328952314E-01  0.00000000000E+00 0. -1.
     999901    1    3    3    0    0 -0.93024942056E-01  0.22177342035E-01  0.93381744557E-01  0.89009304264E+00  0.88000000000E+00 0. -1.
        -11    1    4    4    0    0  0.35993885260E-01 -0.20767573654E-03 -0.24000198838E-01  0.43265154230E-01  0.51100000000E-03 0.  1.
         11    1    4    4    0    0  0.67914182521E-01 -0.24614220660E-01 -0.48916846289E-01  0.87242850813E-01  0.51100000000E-03 0. -1.
</event>
<event>
 8    1  0.1063984E+005  0.1043930E+01  0.7957747E-01            NaN
         13   -1    0    0    0    0  0.00000000000E+00  0.00000000000E+00  0.74505805969E-08  0.10566000000E+00  0.10566000000E+00 0. -1.
     999900   -1    0    0    0    0 -0.00000000000E+00 -0.00000000000E+00 -0.74505805969E-08  0.93827000000E+00  0.93827000000E+00 0. -1.
     999902    2    1    2    0    0 -0.29645595313E-02  0.16408262039E-01 -0.18561470491E-01  0.10189790909E+01  0.10186735689E+01 0.  0.
     999903    2    3    3    0    0  0.51231254292E-01 -0.47428331782E-01 -0.10672695524E+00  0.13061798775E+00  0.28219278495E-01 0.  0.
         14    1    1    2    0    0  0.29645595313E-02 -0.16408262039E-01  0.18561470491E-01  0.24950909064E-01  0.00000000000E+00 0. -1.
     999901    1    3    3    0    0 -0.54195813823E-01  0.63836593821E-01  0.88165484745E-01  0.88836110318E+00  0.88000000000E+00 0.  1.
        -11    1    4    4    0    0  0.48359990021E-01 -0.43409860987E-01 -0.78277743400E-01  0.10173873844E+00  0.51100000000E-03 0. -1.
         11    1    4    4    0    0  0.28712642712E-02 -0.40184707950E-02 -0.28449211836E-01  0.28879249317E-01  0.51100000000E-03 0.  1.
</event>
<event>
 8    1  0.1063984E+005  0.1043930E+01  0.7957747E-01            NaN
         13   -1    0    0    0    0  0.00000000000E+00  0.00000000000E+00  0.74505805969E-08  0.10566000000E+00  0.10566000000E+00 0. -1.
     999900   -1    0    0    0    0 -0.00000000000E+00 -0.00000000000E+00 -0.74505805969E-08  0.93827000000E+00  0.93827000000E+00 0.  1.
     999902    2    1    2    0    0  0.16391331763E-01  0.16895658462E-01 -0.88795370829E-02  0.10187708027E+01  0.10184600940E+01 0.  0.
     999903    2    3    3    0    0  0.99337579086E-01  0.73696384656E-01 -0.42908597756E-01  0.13239369363E+00  0.19693415712E-01 0.  0.
         14    1    1    2    0    0 -0.16391331763E-01 -0.16895658462E-01  0.88795370829E-02  0.25159197337E-01  0.00000000000E+00 0.  1.
     999901    1    3    3    0    0 -0.82946247323E-01 -0.56800726194E-01  0.34029060674E-01  0.88637710903E+00  0.88000000000E+00 0. -1.
        -11    1    4    4    0    0  0.66565622956E-01  0.52311172294E-01 -0.38518249173E-01  0.93012674118E-01  0.51100000000E-03 0. -1.
         11    1    4    4    0    0  0.32771956130E-01  0.21385212362E-01 -0.43903485836E-02  0.39381019515E-01  0.51100000000E-03 0.  1.
</event>
<event>
 8    1  0.1063984E+005  0.1043930E+01  0.7957747E-01            NaN
         13   -1    0    0    0    0  0.00000000000E+00  0.00000000000E+00  0.74505805969E-08  0.10566000000E+00  0.10566000000E+00 0. -1.
     999900   -1    0    0    0    0 -0.00000000000E+00 -0.00000000000E+00 -0.74505805969E-08  0.93827000000E+00  0.93827000000E+00 0.  1.
     999902    2    1    2    0    0 -0.13985070341E-01 -0.14745763065E-01  0.10235987678E-01  0.10211748871E+01  0.10209213265E+01 0.  0.
     999903    2    3    3    0    0  0.91303449236E-01 -0.53331063944E-01 -0.73275619239E-01  0.13013690455E+00  0.19641164102E-01 0.  0.
         14    1    1    2    0    0  0.13985070341E-01  0.14745763065E-01 -0.10235987678E-01  0.22755112932E-01  0.00000000000E+00 0.  1.
     999901    1    3    3    0    0 -0.10528851958E+00  0.38585300879E-01  0.83511606917E-01  0.89103798252E+00  0.88000000000E+00 0. -1.
        -11    1    4    4    0    0  0.66518766242E-02 -0.95504855195E-03 -0.10413090042E-01  0.12403755301E-01  0.51100000000E-03 0. -1.
         11    1    4    4    0    0  0.84651572612E-01 -0.52376015392E-01 -0.62862529198E-01  0.11773314925E+00  0.51100000000E-03 0.  1.
</event>
<event>
 8    1  0.1063984E+005  0.1043930E+01  0.7957747E-01            NaN
         13   -1    0    0    0    0  0.00000000000E+00  0.00000000000E+00  0.74505805969E-08  0.10566000000E+00  0.10566000000E+00 0. -1.
     999900   -1    0    0    0    0 -0.00000000000E+00 -0.00000000000E+00 -0.74505805969E-08  0.93827000000E+00  0.93827000000E+00 0. -1.
     999902    2    1    2    0    0  0.19410038655E-02  0.23039956423E-01  0.31198518146E-04  0.10208084070E+01  0.10205465182E+01 0.  0.
     999903    2    3    3    0    0 -0.96988708838E-01 -0.47912627752E-02  0.81651177890E-01  0.13107615188E+00  0.32928360134E-01 0.  0.
         14    1    1    2    0    0 -0.19410038655E-02 -0.23039956423E-01 -0.31198518146E-04  0.23121592967E-01  0.00000000000E+00 0. -1.
     999901    1    3    3    0    0  0.98929712703E-01  0.27831219199E-01 -0.81619979372E-01  0.88973225515E+00  0.88000000000E+00 0. -1.
        -11    1    4    4    0    0 -0.53866479974E-01 -0.95492399865E-02  0.26173104448E-01  0.60647161241E-01  0.51100000000E-03 0.  1.
         11    1    4    4    0    0 -0.43122228864E-01  0.47579772112E-02  0.55478073442E-01  0.70428990644E-01  0.51100000000E-03 0. -1.
</event>
<event>
 8    1  0.1063984E+005  0.1043930E+01  0.7957747E-01            NaN
         13   -1    0    0    0    0  0.00000000000E+00  0.00000000000E+00  0.74505805969E-08  0.10566000000E+00  0.10566000000E+00 0.  1.
     999900   -1    0    0    0    0 -0.00000000000E+00 -0.00000000000E+00 -0.74505805969E-08  0.93827000000E+00  0.93827000000E+00 0.  1.
     999902    2    1    2    0    0 -0.14066138935E-01  0.35543485543E-02 -0.19379437885E-01  0.10197214835E+01  0.10194340840E+01 0.  0.
     999903    2    3    3    0    0 -0.81179739383E-01 -0.90884439044E-01  0.40901744049E-01  0.13008293844E+00  0.19962135665E-01 0.  0.
         14    1    1    2    0    0  0.14066138935E-01 -0.35543485543E-02  0.19379437885E-01  0.24208516496E-01  0.00000000000E+00 0.  1.
     999901    1    3    3    0    0  0.67113600448E-01  0.94438787599E-01 -0.60281181934E-01  0.88963854506E+00  0.88000000000E+00 0. -1.
        -11    1    4    4    0    0 -0.39670237618E-01 -0.56903950855E-01  0.17423851793E-01  0.71523696129E-01  0.51100000000E-03 0. -1.
         11    1    4    4    0    0 -0.41509501764E-01 -0.33980488190E-01  0.23477892256E-01  0.58559242312E-01  0.51100000000E-03 0.  1.
</event>
<event>
 8    1  0.1063984E+005  0.1043930E+01  0.7957747E-01            NaN
         13   -1    0    0    0    0  0.00000000000E+00  0.00000000000E+00  0.74505805969E-08  0.10566000000E+00  0.10566000000E+00 0. -1.
     999900   -1    0    0    0    0 -0.00000000000E+00 -0.00000000000E+00 -0.74505805969E-08  0.93827000000E+00  0.93827000000E+00 0.  1.
     999902    2    1    2    0    0  0.14343665733E-01 -0.18903250266E-01  0.27173432623E-02  0.10200457464E+01  0.10197660845E+01 0.  0.
     999903    2    3    3    0    0  0.92605765615E-01 -0.39185782844E-01 -0.83721851492E-01  0.13212228581E+00  0.18319295550E-01 0.  0.
         14    1    1    2    0    0 -0.14343665733E-01  0.18903250266E-01 -0.27173432623E-02  0.23884253635E-01  0.00000000000E+00 0.  1.
     999901    1    3    3    0    0 -0.78262099883E-01  0.20282532577E-01  0.86439194754E-01  0.88792346055E+00  0.88000000000E+00 0. -1.
        -11    1    4    4    0    0  0.37317796966E-01 -0.11570013810E-01 -0.22303634234E-01  0.44991070348E-01  0.51100000000E-03 0.  1.
         11    1    4    4    0    0  0.55287968649E-01 -0.27615769034E-01 -0.61418217258E-01  0.87131215467E-01  0.51100000000E-03 0. -1.
</event>
<event>
 8    1  0.1063984E+005  0.1043930E+01  0.7957747E-01            NaN
         13   -1    0    0    0    0  0.00000000000E+00  0.00000000000E+00  0.74505805969E-08  0.10566000000E+00  0.10566000000E+00 0. -1.
     999900   -1    0    0    0    0 -0.00000000000E+00 -0.00000000000E+00 -0.74505805969E-08  0.93827000000E+00  0.93827000000E+00 0.  1.
     999902    2    1    2    0    0  0.15829688799E-01 -0.60471160434E-02 -0.79703582932E-02  0.10252037278E+01  0.10250326874E+01 0.  0.
     999903    2    3    3    0    0 -0.63289564249E-01 -0.59479609997E-01 -0.10149056899E+00  0.13511332933E+00  0.20294906235E-01 0.  0.
         14    1    1    2    0    0 -0.15829688799E-01  0.60471160434E-02  0.79703582932E-02  0.18726272220E-01  0.00000000000E+00 0.  1.
     999901    1    3    3    0    0  0.79119253048E-01  0.53432493954E-01  0.93520210697E-01  0.89009039846E+00  0.88000000000E+00 0.  1.
        -11    1    4    4    0    0 -0.19647260974E-01 -0.71539710360E-02 -0.20730347070E-01  0.29448303449E-01  0.51100000000E-03 0.  1.
         11    1    4    4    0    0 -0.43642303275E-01 -0.52325638961E-01 -0.80760221920E-01  0.10566502588E+00  0.51100000000E-03 0. -1.
</event>
<event>
 8    1  0.1063984E+005  0.1043930E+01  0.7957747E-01            NaN
         13   -1    0    0    0    0  0.00000000000E+00  0.00000000000E+00  0.74505805969E-08  0.10566000000E+00  0.10566000000E+00 0.  1.
     999900   -1    0    0    0    0 -0.00000000000E+00 -0.00000000000E+00 -0.74505805969E-08  0.93827000000E+00  0.93827000000E+00 0.  1.
     999902    2    1    2    0    0 -0.17320395741E-01 -0.98535443168E-02  0.14732997853E-01  0.10191479567E+01  0.10188466067E+01 0.  0.
     999903    2    3    3    0    0  0.47198749471E-02 -0.11426584906E+00 -0.57825867156E-01  0.12973663914E+00  0.20218880875E-01 0.  0.
         14    1    1    2    0    0  0.17320395741E-01  0.98535443168E-02 -0.14732997853E-01  0.24782043297E-01  0.00000000000E+00 0. -1.
     999901    1    3    3    0    0 -0.22040270688E-01  0.10441230474E+00  0.72558865009E-01  0.88941131756E+00  0.88000000000E+00 0. -1.
        -11    1    4    4    0    0 -0.36484934553E-02 -0.11204036461E-01 -0.12275695003E-02  0.11857908137E-01  0.51100000000E-03 0.  1.
         11    1    4    4    0    0  0.83683684024E-02 -0.10306181259E+00 -0.56598297656E-01  0.11787873101E+00  0.51100000000E-03 0. -1.
</event>
<event>
 8    1  0.1063984E+005  0.1043930E+01  0.7957747E-01            NaN
         13   -1    0    0    0    0  0.00000000000E+00  0.00000000000E+00  0.74505805969E-08  0.10566000000E+00  0.10566000000E+00 0.  1.
     999900   -1    0    0    0    0 -0.00000000000E+00 -0.00000000000E+00 -0.74505805969E-08  0.93827000000E+00  0.93827000000E+00 0.  1.
     999902    2    1    2    0    0  0.15750958291E-01  0.38243753598E-02  0.16621322948E-01  0.10207139084E+01  0.10204498497E+01 0.  0.
     999903    2    3    3    0    0  0.11299524066E+00  0.49215117055E-01  0.47825229008E-01  0.13364544786E+00  0.19590840869E-01 0.  0.
         14    1    1    2    0    0 -0.15750958291E-01 -0.38243753598E-02 -0.16621322948E-01  0.23216091628E-01  0.00000000000E+00 0. -1.
     999901    1    3    3    0    0 -0.97244282364E-01 -0.45390741696E-01 -0.31203906061E-01  0.88706846051E+00  0.88000000000E+00 0.  1.
        -11    1    4    4    0    0  0.39295123637E-01  0.25699229353E-01  0.12446286450E-01  0.48577034681E-01  0.51100000000E-03 0.  1.
         11    1    4    4    0    0  0.73700117018E-01  0.23515887702E-01  0.35378942559E-01  0.85068413177E-01  0.51100000000E-03 0. -1.
</event>
<event>
 8    1  0.1063984E+005  0.1043930E+01  0.7957747E-01            NaN
         13   -1    0    0    0    0  0.00000000000E+00  0.00000000000E+00  0.74505805969E-08  0.10566000000E+00  0.10566000000E+00 0.  1.
     999900   -1    0    0    0    0 -0.00000000000E+00 -0.00000000000E+00 -0.74505805969E-08  0.93827000000E+00  0.93827000000E+00 0. -1.
     999902    2    1    2    0    0 -0.28953788488E-02  0.17819997775E-01 -0.14827740439E-01  0.10205676922E+01  0.10203002582E+01 0.  0.
     999903    2    3    3    0    0  0.29298346331E-01 -0.84421217478E-01 -0.92039106376E-01  0.13070742391E+00  0.25057903058E-01 0.  0.
         14    1    1    2    0    0  0.28953788488E-02 -0.17819997775E-01  0.14827740439E-01  0.23362307803E-01  0.00000000000E+00 0.  1.
     999901    1    3    3    0    0 -0.32193725180E-01  0.10224121525E+00  0.77211365936E-01  0.88986026828E+00  0.88000000000E+00 0. -1.
        -11    1    4    4    0    0  0.18467832192E-01 -0.73697400492E-01 -0.66539965021E-01  0.10099601839E+00  0.51100000000E-03 0. -1.
         11    1    4    4    0    0  0.10830514139E-01 -0.10723816987E-01 -0.25499141354E-01  0.29711405522E-01  0.51100000000E-03 0.  1.
</event>
<event>
 8    1  0.1063984E+005  0.1043930E+01  0.7957747E-01            NaN
         13   -1    0    0    0    0  0.00000000000E+00  0.00000000000E+00  0.74505805969E-08  0.10566000000E+00  0.10566000000E+00 0. -1.
     999900   -1    0    0    0    0 -0.00000000000E+00 -0.00000000000E+00 -0.74505805969E-08  0.93827000000E+00  0.93827000000E+00 0. -1.
     999902    2    1    2    0    0 -0.18282974795E-01  0.17731986105E-01 -0.42197176874E-02  0.10181134062E+01  0.10177860342E+01 0.  0.
     999903    2    3    3    0    0 -0.86495971462E-01  0.43138565134E-01 -0.86676091963E-01  0.13126642907E+00  0.19381475730E-01 0.  0.
         14    1    1    2    0    0  0.18282974795E-01 -0.17731986105E-01  0.42197176874E-02  0.25816593810E-01  0.00000000000E+00 0.  1.
     999901    1    3    3    0    0  0.68212996666E-01 -0.25406579030E-01  0.82456374275E-01  0.88684697712E+00  0.88000000000E+00 0.  1.
        -11    1    4    4    0    0 -0.11275251246E-01  0.62029815485E-02 -0.38526526234E-02  0.13442928401E-01  0.51100000000E-03 0.  1.
         11    1    4    4    0    0 -0.75220720216E-01  0.36935583586E-01 -0.82823439339E-01  0.11782350067E+00  0.51100000000E-03 0. -1.
</event>
<event>
 8    1  0.1063984E+005  0.1043930E+01  0.7957747E-01            NaN
         13   -1    0    0    0    0  0.00000000000E+00  0.00000000000E+00  0.74505805969E-08  0.10566000000E+00  0.10566000000E+00 0. -1.
     999900   -1    0    0    0    0 -0.00000000000E+00 -0.00000000000E+00 -0.74505805969E-08  0.93827000000E+00  0.93827000000E+00 0.  1.
     999902    2    1    2    0    0 -0.14095919637E-01  0.85188296702E-02 -0.19551550309E-02  0.10273442217E+01  0.10272103299E+01 0.  0.
     999903    2    3    3    0    0  0.10377477591E+00  0.39183962147E-02  0.84407050672E-01  0.13528307169E+00  0.19809122564E-01 0.  0.
         14    1    1    2    0    0  0.14095919637E-01 -0.85188296702E-02  0.19551550309E-02  0.16585778262E-01  0.00000000000E+00 0. -1.
     999901    1    3    3    0    0 -0.11787069555E+00  0.46004334555E-02 -0.86362205703E-01  0.89206115005E+00  0.88000000000E+00 0.  1.
        -11    1    4    4    0    0  0.31216381919E-01 -0.65177907033E-02  0.31921745169E-01  0.45124306437E-01  0.51100000000E-03 0. -1.
         11    1    4    4    0    0  0.72558393995E-01  0.10436186918E-01  0.52485305504E-01  0.90158765250E-01  0.51100000000E-03 0.  1.
</event>
<event>
 8    1  0.1063984E+005  0.1043930E+01  0.7957747E-01            NaN
         13   -1    0    0    0    0  0.00000000000E+00  0.00000000000E+00  0.74505805969E-08  0.10566000000E+00  0.10566000000E+00 0. -1.
     999900   -1    0    0    0    0 -0.00000000000E+00 -0.00000000000E+00 -0.74505805969E-08  0.93827000000E+00  0.93827000000E+00 0.  1.
     999902    2    1    2    0    0  0.16311786774E-02 -0.12461452225E-01  0.17010143870E-01  0.10227806849E+01  0.10225619961E+01 0.  0.
     999903    2    3    3    0    0  0.67593387557E-01 -0.97339414331E-01 -0.57053132549E-01  0.13315118314E+00  0.20744879250E-01 0.  0.
         14    1    1    2    0    0 -0.16311786774E-02  0.12461452225E-01 -0.17010143870E-01  0.21149315117E-01  0.00000000000E+00 0.  1.
     999901    1    3    3    0    0 -0.65962208880E-01  0.84877962105E-01  0.74063276419E-01  0.88962950174E+00  0.88000000000E+00 0. -1.
        -11    1    4    4    0    0  0.65367497694E-01 -0.96236856269E-01 -0.51864464654E-01  0.12737592423E+00  0.51100000000E-03 0. -1.
         11    1    4    4    0    0  0.22258898633E-02 -0.11025580619E-02 -0.51886678946E-02  0.57752589105E-02  0.51100000000E-03 0.  1.
</event>
<event>
 8    1  0.1063984E+005  0.1043930E+01  0.7957747E-01            NaN
         13   -1    0    0    0    0  0.00000000000E+00  0.00000000000E+00  0.74505805969E-08  0.10566000000E+00  0.10566000000E+00 0. -1.
     999900   -1    0    0    0    0 -0.00000000000E+00 -0.00000000000E+00 -0.74505805969E-08  0.93827000000E+00  0.93827000000E+00 0.  1.
     999902    2    1    2    0    0 -0.99496349061E-02 -0.20971860401E-01 -0.22802791350E-02  0.10206058958E+01  0.10203393459E+01 0.  0.
     999903    2    3    3    0    0  0.11357784703E+00  0.34058280172E-02  0.58849678562E-01  0.12954462843E+00  0.20174218450E-01 0.  0.
         14    1    1    2    0    0  0.99496349061E-02  0.20971860401E-01  0.22802791350E-02  0.23324104192E-01  0.00000000000E+00 0.  1.
     999901    1    3    3    0    0 -0.12352748193E+00 -0.24377688418E-01 -0.61129957697E-01  0.89106126737E+00  0.88000000000E+00 0. -1.
        -11    1    4    4    0    0  0.29482523808E-01 -0.10777377749E-02  0.59747386892E-02  0.30105470470E-01  0.51100000000E-03 0. -1.
         11    1    4    4    0    0  0.84095323217E-01  0.44835657921E-02  0.52874939873E-01  0.99439157965E-01  0.51100000000E-03 0.  1.
</event>
<event>
 8    1  0.1063984E+005  0.1043930E+01  0.7957747E-01            NaN
         13   -1    0    0    0    0  0.00000000000E+00  0.00000000000E+00  0.74505805969E-08  0.10566000000E+00  0.10566000000E+00 0. -1.
     999900   -1    0    0    0    0 -0.00000000000E+00 -0.00000000000E+00 -0.74505805969E-08  0.93827000000E+00  0.93827000000E+00 0. -1.
     999902    2    1    2    0    0 -0.14500292058E-01  0.17666755848E-01 -0.45668053555E-02  0.10206227384E+01  0.10203565777E+01 0.  0.
     999903    2    3    3    0    0  0.25485723175E-01  0.82365958035E-01 -0.98598084730E-01  0.13235096148E+00  0.19013720402E-01 0.  0.
         14    1    1    2    0    0  0.14500292058E-01 -0.17666755848E-01  0.45668053555E-02  0.23307261596E-01  0.00000000000E+00 0. -1.
     999901    1    3    3    0    0 -0.39986015233E-01 -0.64699202187E-01  0.94031279375E-01  0.88827177692E+00  0.88000000000E+00 0. -1.
        -11    1    4    4    0    0  0.15323619614E-01  0.29296612815E-01 -0.48258848890E-01  0.58500277416E-01  0.51100000000E-03 0.  1.
         11    1    4    4    0    0  0.10162103561E-01  0.53069345220E-01 -0.50339235840E-01  0.73850684064E-01  0.51100000000E-03 0. -1.
</event>
<event>
 8    1  0.1063984E+005  0.1043930E+01  0.7957747E-01            NaN
         13   -1    0    0    0    0  0.00000000000E+00  0.00000000000E+00  0.74505805969E-08  0.10566000000E+00  0.10566000000E+00 0.  1.
     999900   -1    0    0    0    0 -0.00000000000E+00 -0.00000000000E+00 -0.74505805969E-08  0.93827000000E+00  0.93827000000E+00 0.  1.
     999902    2    1    2    0    0  0.21517217973E-02  0.24448170841E-01 -0.10020804118E-02  0.10193668746E+01  0.10190708895E+01 0.  0.
     999903    2    3    3    0    0 -0.33504142808E-01 -0.11111927854E+00 -0.47959037366E-01  0.12703575343E+00  0.19183110689E-01 0.  0.
         14    1    1    2    0    0 -0.21517217973E-02 -0.24448170841E-01  0.10020804118E-02  0.24563125398E-01  0.00000000000E+00 0. -1.
     999901    1    3    3    0    0  0.35655864606E-01  0.13556744938E+00  0.46956956954E-01  0.89233112118E+00  0.88000000000E+00 0. -1.
        -11    1    4    4    0    0 -0.21469695670E-01 -0.81064046552E-01 -0.43120202612E-01  0.94297086221E-01  0.51100000000E-03 0.  1.
         11    1    4    4    0    0 -0.12034447139E-01 -0.30055231986E-01 -0.48388347542E-02  0.32738667206E-01  0.51100000000E-03 0. -1.
</event>
<event>
 8    1  0.1063984E+005  0.1043930E+01  0.7957747E-01            NaN
         13   -1    0    0    0    0  0.00000000000E+00  0.00000000000E+00  0.74505805969E-08  0.10566000000E+00  0.10566000000E+00 0.  1.
     999900   -1    0    0    0    0 -0.00000000000E+00 -0.00000000000E+00 -0.74505805969E-08  0.93827000000E+00  0.93827000000E+00 0. -1.
     999902    2    1    2    0    0 -0.11393190192E-01 -0.21038678814E-01  0.51684881761E-02  0.10194525806E+01  0.10191586825E+01 0.  0.
     999903    2    3    3    0    0  0.11997859696E+00  0.27070332981E-01 -0.28013415150E-01  0.12778332458E+00  0.20399998947E-01 0.  0.
         14    1    1    2    0    0  0.11393190192E-01  0.21038678814E-01 -0.51684881761E-02  0.24477419370E-01  0.00000000000E+00 0.  1.
     999901    1    3    3    0    0 -0.13137178715E+00 -0.48109011795E-01  0.33181903326E-01  0.89166925605E+00  0.88000000000E+00 0. -1.
        -11    1    4    4    0    0  0.11160515416E+00  0.19746683086E-01 -0.27537487326E-01  0.11663711355E+00  0.51100000000E-03 0.  1.
         11    1    4    4    0    0  0.83734428002E-02  0.73236498954E-02 -0.47592782331E-03  0.11146211034E-01  0.51100000000E-03 0. -1.
</event>
<event>
 8    1  0.1063984E+005  0.1043930E+01  0.7957747E-01            NaN
         13   -1    0    0    0    0  0.00000000000E+00  0.00000000000E+00  0.74505805969E-08  0.10566000000E+00  0.10566000000E+00 0. -1.
     999900   -1    0    0    0    0 -0.00000000000E+00 -0.00000000000E+00 -0.74505805969E-08  0.93827000000E+00  0.93827000000E+00 0. -1.
     999902    2    1    2    0    0  0.42307482911E-02 -0.22504940611E-01  0.61390002483E-02  0.10202222184E+01  0.10199467222E+01 0.  0.
     999903    2    3    3    0    0  0.83587254411E-01 -0.12922372644E-01 -0.97409235298E-01  0.13055288786E+00  0.20041970764E-01 0.  0.
         14    1    1    2    0    0 -0.42307482911E-02  0.22504940611E-01 -0.61390002483E-02  0.23707781572E-01  0.00000000000E+00 0.  1.
     999901    1    3    3    0    0 -0.79356506120E-01 -0.95825679667E-02  0.10354823555E+00  0.88966933057E+00  0.88000000000E+00 0.  1.
        -11    1    4    4    0    0  0.43531067455E-01 -0.16647435410E-01 -0.55094183773E-01  0.72164542166E-01  0.51100000000E-03 0.  1.
         11    1    4    4    0    0  0.40056186956E-01  0.37250627659E-02 -0.42315051525E-01  0.58388345692E-01  0.51100000000E-03 0. -1.
</event>
<event>
 8    1  0.1063984E+005  0.1043930E+01  0.7957747E-01            NaN
         13   -1    0    0    0    0  0.00000000000E+00  0.00000000000E+00  0.74505805969E-08  0.10566000000E+00  0.10566000000E+00 0. -1.
     999900   -1    0    0    0    0 -0.00000000000E+00 -0.00000000000E+00 -0.74505805969E-08  0.93827000000E+00  0.93827000000E+00 0. -1.
     999902    2    1    2    0    0 -0.10556354732E-01 -0.84138863091E-02  0.17094853616E-01  0.10221478025E+01  0.10219156844E+01 0.  0.
     999903    2    3    3    0    0  0.56175279746E-01 -0.11807067506E+00  0.12496815326E-01  0.13282285383E+00  0.19733062146E-01 0.  0.
         14    1    1    2    0    0  0.10556354732E-01  0.84138863091E-02 -0.17094853616E-01  0.21782197506E-01  0.00000000000E+00 0.  1.
     999901    1    3    3    0    0 -0.66731634478E-01  0.10965678875E+00  0.45980382902E-02  0.88932494866E+00  0.88000000000E+00 0.  1.
        -11    1    4    4    0    0  0.25924396675E-01 -0.33725672112E-01  0.62532329723E-02  0.42998364457E-01  0.51100000000E-03 0.  1.
         11    1    4    4    0    0  0.30250883071E-01 -0.84345002952E-01  0.62435823537E-02  0.89824489373E-01  0.51100000000E-03 0. -1.
</event>
<event>
 8    1  0.1063984E+005  0.1043930E+01  0.7957747E-01            NaN
         13   -1    0    0    0    0  0.00000000000E+00  0.00000000000E+00  0.74505805969E-08  0.10566000000E+00  0.10566000000E+00 0. -1.
     999900   -1    0    0    0    0 -0.00000000000E+00 -0.00000000000E+00 -0.74505805969E-08  0.93827000000E+00  0.93827000000E+00 0. -1.
     999902    2    1    2    0    0  0.14315044986E-01 -0.12168691432E-01 -0.14216630775E-01  0.10203692242E+01  0.10200971736E+01 0.  0.
     999903    2    3    3    0    0  0.11664740741E+00  0.27698957995E-01  0.48051822554E-01  0.13135926807E+00  0.23925503710E-01 0.  0.
         14    1    1    2    0    0 -0.14315044986E-01  0.12168691432E-01  0.14216630775E-01  0.23560775766E-01  0.00000000000E+00 0. -1.
     999901    1    3    3    0    0 -0.10233236243E+00 -0.39867649426E-01 -0.62268453329E-01  0.88900995616E+00  0.88000000000E+00 0. -1.
        -11    1    4    4    0    0  0.44378847238E-01  0.36158665368E-03  0.23874328860E-01  0.50396999182E-01  0.51100000000E-03 0.  1.
         11    1    4    4    0    0  0.72268560177E-01  0.27337371341E-01  0.24177493694E-01  0.80962268892E-01  0.51100000000E-03 0. -1.
</event>
<event>
 8    1  0.1063984E+005  0.1043930E+01  0.7957747E-01            NaN
         13   -1    0    0    0    0  0.00000000000E+00  0.00000000000E+00  0.74505805969E-08  0.10566000000E+00  0.10566000000E+00 0.  1.
     999900   -1    0    0    0    0 -0.00000000000E+00 -0.00000000000E+00 -0.74505805969E-08  0.93827000000E+00  0.93827000000E+00 0. -1.
     999902    2    1    2    0    0  0.42243112045E-02 -0.55647937180E-02  0.21152424252E-01  0.10216536272E+01  0.10214107387E+01 0.  0.
     999903    2    3    3    0    0 -0.40122387310E-01  0.11684766943E+00  0.41374109152E-01  0.13184445812E+00  0.20198029952E-01 0.  0.
         14    1    1    2    0    0 -0.42243112045E-02  0.55647937180E-02 -0.21152424252E-01  0.22276372820E-01  0.00000000000E+00 0. -1.
     999901    1    3    3    0    0  0.44346698514E-01 -0.12241246315E+00 -0.20221684900E-01  0.88980916906E+00  0.88000000000E+00 0. -1.
        -11    1    4    4    0    0 -0.27381270109E-01  0.55755183758E-01  0.27386656204E-01  0.67887145526E-01  0.51100000000E-03 0. -1.
         11    1    4    4    0    0 -0.12741117201E-01  0.61092485674E-01  0.13987452947E-01  0.63957312594E-01  0.51100000000E-03 0.  1.
</event>
<event>
 8    1  0.1063984E+005  0.1043930E+01  0.7957747E-01            NaN
         13   -1    0    0    0    0  0.00000000000E+00  0.00000000000E+00  0.74505805969E-08  0.10566000000E+00  0.10566000000E+00 0.  1.
     999900   -1    0    0    0    0 -0.00000000000E+00 -0.00000000000E+00 -0.74505805969E-08  0.93827000000E+00  0.93827000000E+00 0.  1.
     999902    2    1    2    0    0  0.19911830594E-01  0.86202180805E-02  0.92157694034E-02  0.10203562951E+01  0.10200839423E+01 0.  0.
     999903    2    3    3    0    0 -0.53251831049E-01  0.11193921397E+00  0.37166380832E-01  0.13085701293E+00  0.19392597398E-01 0.  0.
         14    1    1    2    0    0 -0.19911830594E-01 -0.86202180805E-02 -0.92157694034E-02  0.23573704908E-01  0.00000000000E+00 0. -1.
     999901    1    3    3    0    0  0.73163661644E-01 -0.10331899589E+00 -0.27950611429E-01  0.88949928217E+00  0.88000000000E+00 0.  1.
        -11    1    4    4    0    0 -0.47593245182E-01  0.95532081818E-01  0.38449705601E-01  0.11344662457E+00  0.51100000000E-03 0.  1.
         11    1    4    4    0    0 -0.56585858667E-02  0.16407132150E-01 -0.12833247690E-02  0.17410388360E-01  0.51100000000E-03 0. -1.
</event>
<event>
 8    1  0.1063984E+005  0.1043930E+01  0.7957747E-01            NaN
         13   -1    0    0    0    0  0.00000000000E+00  0.00000000000E+00  0.74505805969E-08  0.10566000000E+00  0.10566000000E+00 0.  1.
     999900   -1    0    0    0    0 -0.00000000000E+00 -0.00000000000E+00 -0.74505805969E-08  0.93827000000E+00  0.93827000000E+00 0. -1.
     999902    2    1    2    0    0 -0.13236035202E-01 -0.43298231713E-02 -0.19587856675E-01  0.10198961879E+01  0.10196129706E+01 0.  0.
     999903    2    3    3    0    0 -0.10063127113E+00  0.77123577436E-01 -0.29536261708E-01  0.13176806958E+00  0.20389567898E-01 0.  0.
         14    1    1    2    0    0  0.13236035202E-01  0.43298231713E-02  0.19587856675E-01  0.24033812134E-01  0.00000000000E+00 0.  1.
     999901    1    3    3    0    0  0.87395235925E-01 -0.81453400607E-01  0.99484050324E-02  0.88812811829E+00  0.88000000000E+00 0.  1.
        -11    1    4    4    0    0 -0.31142121758E-01  0.12671812755E-01 -0.69839748812E-02  0.34343028583E-01  0.51100000000E-03 0. -1.
         11    1    4    4    0    0 -0.69489149370E-01  0.64451764681E-01 -0.22552286826E-01  0.97425040994E-01  0.51100000000E-03 0.  1.
</event>
<event>
 8    1  0.1063984E+005  0.1043930E+01  0.7957747E-01            NaN
         13   -1    0    0    0    0  0.00000000000E+00  0.00000000000E+00  0.74505805969E-08  0.10566000000E+00  0.10566000000E+00 0.  1.
     999900   -1    0    0    0    0 -0.00000000000E+00 -0.00000000000E+00 -0.74505805969E-08  0.93827000000E+00  0.93827000000E+00 0. -1.
     999902    2    1    2    0    0 -0.18292416162E-01  0.15561307569E-01  0.60414751306E-02  0.10191657878E+01  0.10188648767E+01 0.  0.
     999903    2    3    3    0    0 -0.11432784686E+00  0.47198129921E-01  0.44774933322E-01  0.13252946258E+00  0.16147562156E-01 0.  0.
         14    1    1    2    0    0  0.18292416162E-01 -0.15561307569E-01 -0.60414751306E-02  0.24764212163E-01  0.00000000000E+00 0. -1.
     999901    1    3    3    0    0  0.96035430695E-01 -0.31636822352E-01 -0.38733458191E-01  0.88663632525E+00  0.88000000000E+00 0.  1.
        -11    1    4    4    0    0 -0.74474564424E-01  0.25998921346E-01  0.21615439315E-01  0.81791766060E-01  0.51100000000E-03 0. -1.
         11    1    4    4    0    0 -0.39853282432E-01  0.21199208575E-01  0.23159494007E-01  0.50737696523E-01  0.51100000000E-03 0.  1.
</event>
<event>
 8    1  0.1063984E+005  0.1043930E+01  0.7957747E-01            NaN
         13   -1    0    0    0    0  0.00000000000E+00  0.00000000000E+00  0.74505805969E-08  0.10566000000E+00  0.10566000000E+00 0. -1.
     999900   -1    0    0    0    0 -0.00000000000E+00 -0.00000000000E+00 -0.74505805969E-08  0.93827000000E+00  0.93827000000E+00 0. -1.
     999902    2    1    2    0    0  0.36394054613E-02 -0.22283564540E-01  0.73323392786E-02  0.10201904608E+01  0.10199142173E+01 0.  0.
     999903    2    3    3    0    0 -0.95940422578E-01  0.74678953764E-01  0.37411261001E-01  0.12877438871E+00  0.20043201274E-01 0.  0.
         14    1    1    2    0    0 -0.36394054613E-02  0.22283564540E-01 -0.73323392786E-02  0.23739539170E-01  0.00000000000E+00 0. -1.
     999901    1    3    3    0    0  0.99579828039E-01 -0.96962518304E-01 -0.30078921722E-01  0.89141607212E+00  0.88000000000E+00 0.  1.
        -11    1    4    4    0    0 -0.68458372906E-01  0.52918915209E-01  0.16919833107E-01  0.88167467249E-01  0.51100000000E-03 0. -1.
         11    1    4    4    0    0 -0.27482049672E-01  0.21760038555E-01  0.20491427893E-01  0.40606921457E-01  0.51100000000E-03 0.  1.
</event>
<event>
 8    1  0.1063984E+005  0.1043930E+01  0.7957747E-01            NaN
         13   -1    0    0    0    0  0.00000000000E+00  0.00000000000E+00  0.74505805969E-08  0.10566000000E+00  0.10566000000E+00 0.  1.
     999900   -1    0    0    0    0 -0.00000000000E+00 -0.00000000000E+00 -0.74505805969E-08  0.93827000000E+00  0.93827000000E+00 0. -1.
     999902    2    1    2    0    0 -0.16774374192E-01  0.14400184952E-01 -0.64800323870E-02  0.10208922966E+01  0.10206323263E+01 0.  0.
     999903    2    3    3    0    0 -0.30816815926E-01 -0.12199998319E+00  0.24464915195E-01  0.12973586491E+00  0.19979752885E-01 0.  0.
         14    1    1    2    0    0  0.16774374192E-01 -0.14400184952E-01  0.64800323870E-02  0.23037703356E-01  0.00000000000E+00 0. -1.
     999901    1    3    3    0    0  0.14042441734E-01  0.13640016815E+00 -0.30944947582E-01  0.89115643173E+00  0.88000000000E+00 0.  1.
        -11    1    4    4    0    0 -0.11687324138E-01 -0.54201523361E-01  0.20701908510E-01  0.59188080025E-01  0.51100000000E-03 0.  1.
         11    1    4    4    0    0 -0.19129491788E-01 -0.67798459833E-01  0.37630066842E-02  0.70547784884E-01  0.51100000000E-03 0. -1.
</event>
<event>
 8    1  0.1063984E+005  0.1043930E+01  0.7957747E-01            NaN
         13   -1    0    0    0    0  0.00000000000E+00  0.00000000000E+00  0.74505805969E-08  0.10566000000E+00  0.10566000000E+00 0. -1.
     999900   -1    0    0    0    0 -0.00000000000E+00 -0.00000000000E+00 -0.74505805969E-08  0.93827000000E+00  0.93827000000E+00 0.  1.
     999902    2    1    2    0    0 -0.19139728560E-01  0.12882034430E-01  0.39020820853E-02  0.10205312337E+01  0.10202629547E+01 0.  0.
     999903    2    3    3    0    0 -0.75077035313E-03 -0.78060497040E-01  0.10216129909E+00  0.13021467676E+00  0.20613737104E-01 0.  0.
         14    1    1    2    0    0  0.19139728560E-01 -0.12882034430E-01 -0.39020820853E-02  0.23398766314E-01  0.00000000000E+00 0.  1.
     999901    1    3    3    0    0 -0.18388958207E-01  0.90942531470E-01 -0.98259217004E-01  0.89031655693E+00  0.88000000000E+00 0.  1.
        -11    1    4    4    0    0 -0.81852493731E-02 -0.14794199605E-01  0.24426909780E-01  0.29711978926E-01  0.51100000000E-03 0.  1.
         11    1    4    4    0    0  0.74344790200E-02 -0.63266297434E-01  0.77734389309E-01  0.10050269783E+00  0.51100000000E-03 0. -1.
</event>
<event>
 8    1  0.1063984E+005  0.1043930E+01  0.7957747E-01            NaN
         13   -1    0    0    0    0  0.00000000000E+00  0.00000000000E+00  0.74505805969E-08  0.10566000000E+00  0.10566000000E+00 0. -1.
     999900   -1    0    0    0    0 -0.00000000000E+00 -0.00000000000E+00 -0.74505805969E-08  0.93827000000E+00  0.93827000000E+00 0. -1.
     999902    2    1    2    0    0 -0.91379275311E-02  0.65442597170E-02  0.20889927699E-01  0.10202083193E+01  0.10199324961E+01 0.  0.
     999903    2    3    3    0    0 -0.48258387347E-02 -0.48744096485E-02  0.13151258861E+00  0.13319853740E+00  0.19981011354E-01 0.  0.
         14    1    1    2    0    0  0.91379275311E-02 -0.65442597170E-02 -0.20889927699E-01  0.23721680676E-01  0.00000000000E+00 0. -1.
     999901    1    3    3    0    0 -0.43120887964E-02  0.11418669365E-01 -0.11062266091E+00  0.88700978192E+00  0.88000000000E+00 0. -1.
        -11    1    4    4    0    0 -0.14255011124E-02  0.65998324079E-02  0.21633358218E-01  0.22668329229E-01  0.51100000000E-03 0.  1.
         11    1    4    4    0    0 -0.34003376224E-02 -0.11474242056E-01  0.10987923039E+00  0.11053020817E+00  0.51100000000E-03 0. -1.
</event>
<event>
 8    1  0.1063984E+005  0.1043930E+01  0.7957747E-01            NaN
         13   -1    0    0    0    0  0.00000000000E+00  0.00000000000E+00  0.74505805969E-08  0.10566000000E+00  0.10566000000E+00 0.  1.
     999900   -1    0    0    0    0 -0.00000000000E+00 -0.00000000000E+00 -0.74505805969E-08  0.93827000000E+00  0.93827000000E+00 0. -1.
     999902    2    1    2    0    0  0.12517562917E-01  0.12549457564E-01 -0.14479786727E-01  0.10210423944E+01  0.10207858388E+01 0.  0.
     999903    2    3    3    0    0 -0.10571814653E+00  0.71039834558E-01 -0.18104950593E-01  0.13120311172E+00  0.25758157728E-01 0.  0.
         14    1    1    2    0    0 -0.12517562917E-01 -0.12549457564E-01  0.14479786727E-01  0.22887605602E-01  0.00000000000E+00 0.  1.
     999901    1    3    3    0    0  0.11823570944E+00 -0.58490376994E-01  0.36251638660E-02  0.88983928268E+00  0.88000000000E+00 0.  1.
        -11    1    4    4    0    0 -0.48427136903E-01  0.17669031293E-01 -0.96465322677E-02  0.52447106319E-01  0.51100000000E-03 0.  1.
         11    1    4    4    0    0 -0.57291009623E-01  0.53370803265E-01 -0.84584183249E-02  0.78756005399E-01  0.51100000000E-03 0. -1.
</event>
<event>
 8    1  0.1063984E+005  0.1043930E+01  0.7957747E-01            NaN
         13   -1    0    0    0    0  0.00000000000E+00  0.00000000000E+00  0.74505805969E-08  0.10566000000E+00  0.10566000000E+00 0.  1.
     999900   -1    0    0    0    0 -0.00000000000E+00 -0.00000000000E+00 -0.74505805969E-08  0.93827000000E+00  0.93827000000E+00 0.  1.
     999902    2    1    2    0    0 -0.18605515540E-01  0.12816124978E-01 -0.82947296947E-02  0.10198629934E+01  0.10195789839E+01 0.  0.
     999903    2    3    3    0    0 -0.72868963364E-01 -0.83435543527E-01 -0.66998710224E-01  0.13101257693E+00  0.20102049550E-01 0.  0.
         14    1    1    2    0    0  0.18605515540E-01 -0.12816124978E-01  0.82947296947E-02  0.24067006641E-01  0.00000000000E+00 0. -1.
     999901    1    3    3    0    0  0.54263447824E-01  0.96251668505E-01  0.58703980530E-01  0.88885041643E+00  0.88000000000E+00 0. -1.
        -11    1    4    4    0    0 -0.41515160134E-01 -0.34078546810E-01 -0.37572788139E-01  0.65550220466E-01  0.51100000000E-03 0.  1.
         11    1    4    4    0    0 -0.31353803230E-01 -0.49356996717E-01 -0.29425922085E-01  0.65462356461E-01  0.51100000000E-03 0. -1.
</event>
<event>
 8    1  0.1063984E+005  0.1043930E+01  0.7957747E-01            NaN
         13   -1    0    0    0    0  0.00000000000E+00  0.00000000000E+00  0.74505805969E-08  0.10566000000E+00  0.10566000000E+00 0.  1.
     999900   -1    0    0    0    0 -0.00000000000E+00 -0.00000000000E+00 -0.74505805969E-08  0.93827000000E+00  0.93827000000E+00 0. -1.
     999902    2    1    2    0    0 -0.29961482333E-01  0.49684969700E-02  0.11964178772E-01  0.10112877274E+01  0.10107607777E+01 0.  0.
     999903    2    3    3    0    0 -0.62493323782E-01  0.74295500771E-01 -0.74084055818E-01  0.12378062725E+00  0.20198004961E-01 0.  0.
         14    1    1    2    0    0  0.29961482333E-01 -0.49684969700E-02 -0.11964178772E-01  0.32642272584E-01  0.00000000000E+00 0.  1.
     999901    1    3    3    0    0  0.32531841448E-01 -0.69327003801E-01  0.86048234590E-01  0.88750710016E+00  0.88000000000E+00 0.  1.
        -11    1    4    4    0    0 -0.25721343903E-01  0.34218963384E-01 -0.20644619895E-01  0.47528795891E-01  0.51100000000E-03 0.  1.
         11    1    4    4    0    0 -0.36771979879E-01  0.40076537387E-01 -0.53439435924E-01  0.76251831361E-01  0.51100000000E-03 0. -1.
</event>
<event>
 8    1  0.1063984E+005  0.1043930E+01  0.7957747E-01            NaN
         13   -1    0    0    0    0  0.00000000000E+00  0.00000000000E+00  0.74505805969E-08  0.10566000000E+00  0.10566000000E+00 0.  1.
     999900   -1    0    0    0    0 -0.00000000000E+00 -0.00000000000E+00 -0.74505805969E-08  0.93827000000E+00  0.93827000000E+00 0.  1.
     999902    2    1    2    0    0  0.20334987374E-01 -0.22286102077E-02  0.20577967585E-01  0.10149139499E+01  0.10144990855E+01 0.  0.
     999903    2    3    3    0    0  0.63179938337E-01  0.53839642401E-01 -0.91006045931E-01  0.12506546230E+00  0.21653123586E-01 0.  0.
         14    1    1    2    0    0 -0.20334987374E-01  0.22286102077E-02 -0.20577967585E-01  0.29016050125E-01  0.00000000000E+00 0. -1.
     999901    1    3    3    0    0 -0.42844950963E-01 -0.56068252609E-01  0.11158401352E+00  0.88984848758E+00  0.88000000000E+00 0. -1.
        -11    1    4    4    0    0  0.21358221787E-01  0.58991848610E-02 -0.23182216285E-01  0.32072578518E-01  0.51100000000E-03 0.  1.
         11    1    4    4    0    0  0.41821716551E-01  0.47940457540E-01 -0.67823829646E-01  0.92992883778E-01  0.51100000000E-03 0. -1.
</event>
<event>
 8    1  0.1063984E+005  0.1043930E+01  0.7957747E-01            NaN
         13   -1    0    0    0    0  0.00000000000E+00  0.00000000000E+00  0.74505805969E-08  0.10566000000E+00  0.10566000000E+00 0. -1.
     999900   -1    0    0    0    0 -0.00000000000E+00 -0.00000000000E+00 -0.74505805969E-08  0.93827000000E+00  0.93827000000E+00 0. -1.
     999902    2    1    2    0    0  0.13134686589E-01 -0.13389635951E-01 -0.13392732646E-01  0.10208829258E+01  0.10206227415E+01 0.  0.
     999903    2    3    3    0    0  0.49761025929E-01  0.53283474579E-02 -0.12228970442E+00  0.13321722175E+00  0.16955983447E-01 0.  0.
         14    1    1    2    0    0 -0.13134686589E-01  0.13389635951E-01  0.13392732646E-01  0.23047074227E-01  0.00000000000E+00 0. -1.
     999901    1    3    3    0    0 -0.36626339340E-01 -0.18717983409E-01  0.10889697178E+00  0.88766570402E+00  0.88000000000E+00 0.  1.
        -11    1    4    4    0    0  0.29441277286E-01 -0.49827602813E-02 -0.63801642992E-01  0.70445209048E-01  0.51100000000E-03 0.  1.
         11    1    4    4    0    0  0.20319748643E-01  0.10311107739E-01 -0.58488061431E-01  0.62772012702E-01  0.51100000000E-03 0. -1.
</event>
<event>
 8    1  0.1063984E+005  0.1043930E+01  0.7957747E-01            NaN
         13   -1    0    0    0    0  0.00000000000E+00  0.00000000000E+00  0.74505805969E-08  0.10566000000E+00  0.10566000000E+00 0. -1.
     999900   -1    0    0    0    0 -0.00000000000E+00 -0.00000000000E+00 -0.74505805969E-08  0.93827000000E+00  0.93827000000E+00 0. -1.
     999902    2    1    2    0    0  0.19842635366E-01  0.58040385168E-02  0.11694767278E-01  0.10201774291E+01  0.10199008787E+01 0.  0.
     999903    2    3    3    0    0 -0.56252831918E-01 -0.11235192274E+00  0.21356338641E-01  0.12897335750E+00  0.19766084684E-01 0.  0.
         14    1    1    2    0    0 -0.19842635366E-01 -0.58040385168E-02 -0.11694767278E-01  0.23752570873E-01  0.00000000000E+00 0.  1.
     999901    1    3    3    0    0  0.76095467284E-01  0.11815596125E+00 -0.96615713629E-02  0.89120407163E+00  0.88000000000E+00 0. -1.
        -11    1    4    4    0    0 -0.31107183391E-01 -0.81390899050E-01  0.17727597350E-01  0.88919424962E-01  0.51100000000E-03 0. -1.
         11    1    4    4    0    0 -0.25145648527E-01 -0.30961023686E-01  0.36287412904E-02  0.40053932540E-01  0.51100000000E-03 0.  1.
</event>
<event>
 8    1  0.1063984E+005  0.1043930E+01  0.7957747E-01            NaN
         13   -1    0    0    0    0  0.00000000000E+00  0.00000000000E+00  0.74505805969E-08  0.10566000000E+00  0.10566000000E+00 0.  1.
     999900   -1    0    0    0    0 -0.00000000000E+00 -0.00000000000E+00 -0.74505805969E-08  0.93827000000E+00  0.93827000000E+00 0. -1.
     999902    2    1    2    0    0 -0.11607620197E-01  0.19307766710E-01 -0.40304738216E-02  0.10210439470E+01  0.10207874266E+01 0.  0.
     999903    2    3    3    0    0 -0.70006813952E-01  0.36560337335E-01  0.10421437243E+00  0.13232292005E+00  0.20275785675E-01 0.  0.
         14    1    1    2    0    0  0.11607620197E-01 -0.19307766710E-01  0.40304738216E-02  0.22886052984E-01  0.00000000000E+00 0. -1.
     999901    1    3    3    0    0  0.58399193754E-01 -0.17252570625E-01 -0.10824484625E+00  0.88872102696E+00  0.88000000000E+00 0. -1.
        -11    1    4    4    0    0 -0.43897661495E-01  0.24948558759E-01  0.50135076637E-01  0.71156322975E-01  0.51100000000E-03 0.  1.
         11    1    4    4    0    0 -0.26109152457E-01  0.11611778576E-01  0.54079295793E-01  0.61166597079E-01  0.51100000000E-03 0. -1.
</event>
<event>
 8    1  0.1063984E+005  0.1043930E+01  0.7957747E-01            NaN
         13   -1    0    0    0    0  0.00000000000E+00  0.00000000000E+00  0.74505805969E-08  0.10566000000E+00  0.10566000000E+00 0. -1.
     999900   -1    0    0    0    0 -0.00000000000E+00 -0.00000000000E+00 -0.74505805969E-08  0.93827000000E+00  0.93827000000E+00 0.  1.
     999902    2    1    2    0    0 -0.84168134277E-02 -0.20788575686E-01  0.83164370257E-02  0.10200099090E+01  0.10197293973E+01 0.  0.
     999903    2    3    3    0    0  0.65720065286E-01 -0.87168999552E-01 -0.69506573312E-01  0.13098850411E+00  0.20230249927E-01 0.  0.
         14    1    1    2    0    0  0.84168134277E-02  0.20788575686E-01 -0.83164370257E-02  0.23920090973E-01  0.00000000000E+00 0.  1.
     999901    1    3    3    0    0 -0.74136878713E-01  0.66380423866E-01  0.77823010337E-01  0.88902140491E+00  0.88000000000E+00 0. -1.
        -11    1    4    4    0    0  0.56696691608E-01 -0.64661343533E-01 -0.60356333935E-01  0.10506546699E+00  0.51100000000E-03 0.  1.
         11    1    4    4    0    0  0.90233736775E-02 -0.22507656019E-01 -0.91502393764E-02  0.25923037123E-01  0.51100000000E-03 0. -1.
</event>
<event>
 8    1  0.1063984E+005  0.1043930E+01  0.7957747E-01            NaN
         13   -1    0    0    0    0  0.00000000000E+00  0.00000000000E+00  0.74505805969E-08  0.10566000000E+00  0.10566000000E+00 0. -1.
     999900   -1    0    0    0    0 -0.00000000000E+00 -0.00000000000E+00 -0.74505805969E-08  0.93827000000E+00  0.93827000000E+00 0.  1.
     999902    2    1    2    0    0 -0.10323928420E-02 -0.21533164137E-01 -0.90617424860E-02  0.10205450012E+01  0.10202770414E+01 0.  0.
     999903    2    3    3    0    0 -0.11961020945E+00  0.46569514113E-01 -0.79946015914E-02  0.12998348609E+00  0.18880443652E-01 0.  0.
         14    1    1    2    0    0  0.10323928420E-02  0.21533164137E-01  0.90617424860E-02  0.23384998816E-01  0.00000000000E+00 0. -1.
     999901    1    3    3    0    0  0.11857781661E+00 -0.68102678251E-01 -0.10671408947E-02  0.89056151509E+00  0.88000000000E+00 0.  1.
        -11    1    4    4    0    0 -0.68164499693E-01  0.23355335506E-01  0.44176986003E-02  0.72191743967E-01  0.51100000000E-03 0.  1.
         11    1    4    4    0    0 -0.51445709756E-01  0.23214178607E-01 -0.12412300192E-01  0.57791742124E-01  0.51100000000E-03 0. -1.
</event>
<event>
 8    1  0.1063984E+005  0.1043930E+01  0.7957747E-01            NaN
         13   -1    0    0    0    0  0.00000000000E+00  0.00000000000E+00  0.74505805969E-08  0.10566000000E+00  0.10566000000E+00 0.  1.
     999900   -1    0    0    0    0 -0.00000000000E+00 -0.00000000000E+00 -0.74505805969E-08  0.93827000000E+00  0.93827000000E+00 0.  1.
     999902    2    1    2    0    0  0.23403748647E-03  0.15306624878E-01 -0.17708599183E-01  0.10205218385E+01  0.10202533415E+01 0.  0.
     999903    2    3    3    0    0 -0.16015162790E-01 -0.11492688939E+00  0.49840469593E-01  0.12822834340E+00  0.22220717758E-01 0.  0.
         14    1    1    2    0    0 -0.23403748647E-03 -0.15306624878E-01  0.17708599183E-01  0.23408161477E-01  0.00000000000E+00 0.  1.
     999901    1    3    3    0    0  0.16249200276E-01  0.13023351427E+00 -0.67549068776E-01  0.89229349512E+00  0.88000000000E+00 0. -1.
        -11    1    4    4    0    0 -0.18837457891E-01 -0.79954812477E-01  0.27480726394E-01  0.86620282280E-01  0.51100000000E-03 0.  1.
         11    1    4    4    0    0  0.28222951012E-02 -0.34972076912E-01  0.22359743198E-01  0.41608061119E-01  0.51100000000E-03 0. -1.
</event>
<event>
 8    1  0.1063984E+005  0.1043930E+01  0.7957747E-01            NaN
         13   -1    0    0    0    0  0.00000000000E+00  0.00000000000E+00  0.74505805969E-08  0.10566000000E+00  0.10566000000E+00 0.  1.
     999900   -1    0    0    0    0 -0.00000000000E+00 -0.00000000000E+00 -0.74505805969E-08  0.93827000000E+00  0.93827000000E+00 0.  1.
     999902    2    1    2    0    0  0.88003927418E-02  0.91167482170E-02 -0.18549583244E-01  0.10214656049E+01  0.10212185529E+01 0.  0.
     999903    2    3    3    0    0 -0.32035032496E-01 -0.89759011634E-01  0.84673364909E-01  0.12899772036E+00  0.19695422214E-01 0.  0.
         14    1    1    2    0    0 -0.88003927418E-02 -0.91167482170E-02  0.18549583244E-01  0.22464395140E-01  0.00000000000E+00 0.  1.
     999901    1    3    3    0    0  0.40835425238E-01  0.98875759851E-01 -0.10322294815E+00  0.89246788450E+00  0.88000000000E+00 0.  1.
        -11    1    4    4    0    0 -0.13992268096E-02 -0.30844949774E-01  0.28424333532E-01  0.41971092671E-01  0.51100000000E-03 0.  1.
         11    1    4    4    0    0 -0.30635805686E-01 -0.58914061860E-01  0.56249031378E-01  0.87026627688E-01  0.51100000000E-03 0. -1.
</event>
<event>
 8    1  0.1063984E+005  0.1043930E+01  0.7957747E-01            NaN
         13   -1    0    0    0    0  0.00000000000E+00  0.00000000000E+00  0.74505805969E-08  0.10566000000E+00  0.10566000000E+00 0. -1.
     999900   -1    0    0    0    0 -0.00000000000E+00 -0.00000000000E+00 -0.74505805969E-08  0.93827000000E+00  0.93827000000E+00 0. -1.
     999902    2    1    2    0    0  0.11653484216E-01 -0.13639503757E-01 -0.16178203082E-01  0.10197727234E+01  0.10194865538E+01 0.  0.
     999903    2    3    3    0    0 -0.87389899485E-01  0.59104284935E-01  0.68057139831E-01  0.12724998217E+00  0.20747834820E-01 0.  0.
         14    1    1    2    0    0 -0.11653484216E-01  0.13639503757E-01  0.16178203082E-01  0.24157276586E-01  0.00000000000E+00 0. -1.
     999901    1    3    3    0    0  0.99043383701E-01 -0.72743788692E-01 -0.84235342913E-01  0.89252274125E+00  0.88000000000E+00 0. -1.
        -11    1    4    4    0    0 -0.28121429022E-01  0.80261590366E-02  0.17209234561E-01  0.33936011467E-01  0.51100000000E-03 0.  1.
         11    1    4    4    0    0 -0.59268470462E-01  0.51078125898E-01  0.50847905270E-01  0.93313970699E-01  0.51100000000E-03 0. -1.
</event>
<event>
 8    1  0.1063984E+005  0.1043930E+01  0.7957747E-01            NaN
         13   -1    0    0    0    0  0.00000000000E+00  0.00000000000E+00  0.74505805969E-08  0.10566000000E+00  0.10566000000E+00 0.  1.
     999900   -1    0    0    0    0 -0.00000000000E+00 -0.00000000000E+00 -0.74505805969E-08  0.93827000000E+00  0.93827000000E+00 0.  1.
     999902    2    1    2    0    0 -0.11340520812E-01 -0.14173327691E-02  0.20774715446E-01  0.10202191365E+01  0.10199435678E+01 0.  0.
     999903    2    3    3    0    0 -0.18507406908E-01  0.10862747461E+00 -0.64648648851E-01  0.12923183300E+00  0.19467062236E-01 0.  0.
         14    1    1    2    0    0  0.11340520812E-01  0.14173327691E-02 -0.20774715446E-01  0.23710863467E-01  0.00000000000E+00 0. -1.
     999901    1    3    3    0    0  0.71668860957E-02 -0.11004480738E+00  0.85423364297E-01  0.89098730353E+00  0.88000000000E+00 0. -1.
        -11    1    4    4    0    0 -0.19606256055E-01  0.58302479350E-01 -0.33695510896E-01  0.70137243676E-01  0.51100000000E-03 0. -1.
         11    1    4    4    0    0  0.10988491474E-02  0.50324995259E-01 -0.30953137955E-01  0.59094589325E-01  0.51100000000E-03 0.  1.
</event>
<event>
 8    1  0.1063984E+005  0.1043930E+01  0.7957747E-01            NaN
         13   -1    0    0    0    0  0.00000000000E+00  0.00000000000E+00  0.74505805969E-08  0.10566000000E+00  0.10566000000E+00 0. -1.
     999900   -1    0    0    0    0 -0.00000000000E+00 -0.00000000000E+00 -0.74505805969E-08  0.93827000000E+00  0.93827000000E+00 0. -1.
     999902    2    1    2    0    0  0.16005497874E-01  0.53547360746E-02  0.16492237416E-01  0.10203324778E+01  0.10200595679E+01 0.  0.
     999903    2    3    3    0    0 -0.56252078960E-01  0.39885418889E-01  0.11040333807E+00  0.13171961476E+00  0.20149859304E-01 0.  0.
         14    1    1    2    0    0 -0.16005497874E-01 -0.53547360746E-02 -0.16492237416E-01  0.23597522235E-01  0.00000000000E+00 0.  1.
     999901    1    3    3    0    0  0.72257576835E-01 -0.34530682814E-01 -0.93911100650E-01  0.88861286300E+00  0.88000000000E+00 0. -1.
        -11    1    4    4    0    0 -0.26112201031E-01  0.71647456121E-02  0.47406582334E-01  0.54596939401E-01  0.51100000000E-03 0. -1.
         11    1    4    4    0    0 -0.30139877930E-01  0.32720673277E-01  0.62996755733E-01  0.77122675363E-01  0.51100000000E-03 0.  1.
</event>
<event>
 8    1  0.1063984E+005  0.1043930E+01  0.7957747E-01            NaN
         13   -1    0    0    0    0  0.00000000000E+00  0.00000000000E+00  0.74505805969E-08  0.10566000000E+00  0.10566000000E+00 0. -1.
     999900   -1    0    0    0    0 -0.00000000000E+00 -0.00000000000E+00 -0.74505805969E-08  0.93827000000E+00  0.93827000000E+00 0.  1.
     999902    2    1    2    0    0  0.17368176624E-01 -0.94347837071E-02 -0.12228249165E-01  0.10206878232E+01  0.10204231641E+01 0.  0.
     999903    2    3    3    0    0 -0.72986809077E-01  0.99885700257E-01 -0.31444360249E-01  0.12912500965E+00  0.19501100235E-01 0.  0.
         14    1    1    2    0    0 -0.17368176624E-01  0.94347837071E-02  0.12228249165E-01  0.23242176759E-01  0.00000000000E+00 0. -1.
     999901    1    3    3    0    0  0.90354985701E-01 -0.10932048396E+00  0.19216111085E-01  0.89156281359E+00  0.88000000000E+00 0. -1.
        -11    1    4    4    0    0 -0.64112184492E-01  0.77014313379E-01 -0.20634801903E-01  0.10231145017E+00  0.51100000000E-03 0. -1.
         11    1    4    4    0    0 -0.88746245850E-02  0.22871386878E-01 -0.10809558346E-01  0.26813559478E-01  0.51100000000E-03 0.  1.
</event>
<event>
 8    1  0.1063984E+005  0.1043930E+01  0.7957747E-01            NaN
         13   -1    0    0    0    0  0.00000000000E+00  0.00000000000E+00  0.74505805969E-08  0.10566000000E+00  0.10566000000E+00 0. -1.
     999900   -1    0    0    0    0 -0.00000000000E+00 -0.00000000000E+00 -0.74505805969E-08  0.93827000000E+00  0.93827000000E+00 0.  1.
     999902    2    1    2    0    0  0.19601891535E-01 -0.39630190087E-02  0.13007775879E-01  0.10200733048E+01  0.10197942956E+01 0.  0.
     999903    2    3    3    0    0 -0.24904377434E-01 -0.15128847778E-01 -0.12349100407E+00  0.12836853270E+00  0.19476705322E-01 0.  0.
         14    1    1    2    0    0 -0.19601891535E-01  0.39630190087E-02 -0.13007775879E-01  0.23856695176E-01  0.00000000000E+00 0.  1.
     999901    1    3    3    0    0  0.44506268969E-01  0.11165828769E-01  0.13649877995E+00  0.89170477213E+00  0.88000000000E+00 0. -1.
        -11    1    4    4    0    0 -0.19835866385E-01 -0.85059213889E-02 -0.50774692348E-01  0.55173750986E-01  0.51100000000E-03 0. -1.
         11    1    4    4    0    0 -0.50685110489E-02 -0.66229263886E-02 -0.72716311720E-01  0.73194781709E-01  0.51100000000E-03 0.  1.
</event>
<event>
 8    1  0.1063984E+005  0.1043930E+01  0.7957747E-01            NaN
         13   -1    0    0    0    0  0.00000000000E+00  0.00000000000E+00  0.74505805969E-08  0.10566000000E+00  0.10566000000E+00 0.  1.
     999900   -1    0    0    0    0 -0.00000000000E+00 -0.00000000000E+00 -0.74505805969E-08  0.93827000000E+00  0.93827000000E+00 0. -1.
     999902    2    1    2    0    0 -0.24133722522E-01  0.68797372896E-02  0.24790481105E-02  0.10187126840E+01  0.10184005202E+01 0.  0.
     999903    2    3    3    0    0  0.84759087586E-01 -0.41461957054E-01  0.82806071427E-01  0.12705860633E+00  0.19592017928E-01 0.  0.
         14    1    1    2    0    0  0.24133722522E-01 -0.68797372896E-02 -0.24790481105E-02  0.25217316024E-01  0.00000000000E+00 0.  1.
     999901    1    3    3    0    0 -0.10889281011E+00  0.48341694344E-01 -0.80327023316E-01  0.89165407764E+00  0.88000000000E+00 0.  1.
        -11    1    4    4    0    0  0.20512746518E-01 -0.19654859172E-01  0.27211377127E-01  0.39342171076E-01  0.51100000000E-03 0. -1.
         11    1    4    4    0    0  0.64246341068E-01 -0.21807097882E-01  0.55594694299E-01  0.87716435255E-01  0.51100000000E-03 0.  1.
</event>
<event>
 8    1  0.1063984E+005  0.1043930E+01  0.7957747E-01            NaN
         13   -1    0    0    0    0  0.00000000000E+00  0.00000000000E+00  0.74505805969E-08  0.10566000000E+00  0.10566000000E+00 0. -1.
     999900   -1    0    0    0    0 -0.00000000000E+00 -0.00000000000E+00 -0.74505805969E-08  0.93827000000E+00  0.93827000000E+00 0.  1.
     999902    2    1    2    0    0 -0.26600615532E-02 -0.13016996223E-01 -0.18420008107E-01  0.10212184431E+01  0.10209658631E+01 0.  0.
     999903    2    3    3    0    0 -0.94510198446E-01 -0.48644248559E-02  0.87069609968E-01  0.13013428793E+00  0.19949327722E-01 0.  0.
         14    1    1    2    0    0  0.26600615532E-02  0.13016996223E-01  0.18420008107E-01  0.22711556900E-01  0.00000000000E+00 0. -1.
     999901    1    3    3    0    0  0.91850136893E-01 -0.81525713675E-02 -0.10548961807E+00  0.89108415517E+00  0.88000000000E+00 0.  1.
        -11    1    4    4    0    0 -0.22075896450E-01 -0.54227418764E-02  0.11600926775E-01  0.25526338487E-01  0.51100000000E-03 0.  1.
         11    1    4    4    0    0 -0.72434301996E-01  0.55831702046E-03  0.75468683192E-01  0.10460794945E+00  0.51100000000E-03 0. -1.
</event>
<event>
 8    1  0.1063984E+005  0.1043930E+01  0.7957747E-01            NaN
         13   -1    0    0    0    0  0.00000000000E+00  0.00000000000E+00  0.74505805969E-08  0.10566000000E+00  0.10566000000E+00 0.  1.
     999900   -1    0    0    0    0 -0.00000000000E+00 -0.00000000000E+00 -0.74505805969E-08  0.93827000000E+00  0.93827000000E+00 0. -1.
     999902    2    1    2    0    0  0.19940731028E-01 -0.99955262482E-03  0.12410770257E-01  0.10204212978E+01  0.10201504624E+01 0.  0.
     999903    2    3    3    0    0 -0.13006444786E-01  0.82615155300E-01  0.99491914313E-01  0.13156806955E+00  0.20422644784E-01 0.  0.
         14    1    1    2    0    0 -0.19940731028E-01  0.99955262482E-03 -0.12410770257E-01  0.23508702171E-01  0.00000000000E+00 0. -1.
     999901    1    3    3    0    0  0.32947175813E-01 -0.83614707924E-01 -0.87081144056E-01  0.88885322828E+00  0.88000000000E+00 0. -1.
        -11    1    4    4    0    0 -0.15312413158E-02  0.44144566205E-01  0.65270452251E-01  0.78813580577E-01  0.51100000000E-03 0. -1.
         11    1    4    4    0    0 -0.11475203470E-01  0.38470589095E-01  0.34221462062E-01  0.52754488971E-01  0.51100000000E-03 0.  1.
</event>
<event>
 8    1  0.1063984E+005  0.1043930E+01  0.7957747E-01            NaN
         13   -1    0    0    0    0  0.00000000000E+00  0.00000000000E+00  0.74505805969E-08  0.10566000000E+00  0.10566000000E+00 0. -1.
     999900   -1    0    0    0    0 -0.00000000000E+00 -0.00000000000E+00 -0.74505805969E-08  0.93827000000E+00  0.93827000000E+00 0. -1.
     999902    2    1    2    0    0 -0.28280550057E-02  0.17247138205E-01  0.15247465858E-01  0.10207363180E+01  0.10204727747E+01 0.  0.
     999903    2    3    3    0    0 -0.12182563499E+00  0.30379114540E-01  0.37032123457E-01  0.13236283561E+00  0.19600156655E-01 0.  0.
         14    1    1    2    0    0  0.28280550057E-02 -0.17247138205E-01 -0.15247465858E-01  0.23193682037E-01  0.00000000000E+00 0.  1.
     999901    1    3    3    0    0  0.11899757999E+00 -0.13131976335E-01 -0.21784657599E-01  0.88837348236E+00  0.88000000000E+00 0.  1.
        -11    1    4    4    0    0 -0.11491896352E-01  0.27956986731E-02  0.99208331600E-02  0.15445506286E-01  0.51100000000E-03 0.  1.
         11    1    4    4    0    0 -0.11033373864E+00  0.27583415867E-01  0.27111290297E-01  0.11691732932E+00  0.51100000000E-03 0. -1.
</event>
<event>
 7    1  0.1605908E+005  0.1043930E+01  0.7957747E-01            NaN
         13   -1    0    0    0    0  0.00000000000E+00  0.00000000000E+00  0.74505805969E-08  0.10566000000E+00  0.10566000000E+00 0. -1.
     999900   -1    0    0    0    0 -0.00000000000E+00 -0.00000000000E+00 -0.74505805969E-08  0.93827000000E+00  0.93827000000E+00 0.  1.
     999903    2    1    2    0    0 -0.10581684030E+00 -0.93457679109E-02  0.26568250652E-01  0.11131803273E+00  0.20032109241E-01 0.  0.
         14    1    1    2    0    0 -0.16204010425E-01 -0.31798151835E-01  0.21983297683E-01  0.41916080339E-01  0.00000000000E+00 0. -1.
     999901    1    1    2    0    0  0.12202085072E+00  0.41143919746E-01 -0.48551548335E-01  0.89069588693E+00  0.88000000000E+00 0. -1.
        -11    1    3    3    0    0 -0.81130052722E-01  0.78413309117E-03  0.23393863234E-01  0.84440714572E-01  0.51100000000E-03 0.  1.
         11    1    3    3    0    0 -0.24686787575E-01 -0.10129901002E-01  0.31743874179E-02  0.26877318162E-01  0.51100000000E-03 0. -1.
</event>
<event>
 8    1  0.1063984E+005  0.1043930E+01  0.7957747E-01            NaN
         13   -1    0    0    0    0  0.00000000000E+00  0.00000000000E+00  0.74505805969E-08  0.10566000000E+00  0.10566000000E+00 0. -1.
     999900   -1    0    0    0    0 -0.00000000000E+00 -0.00000000000E+00 -0.74505805969E-08  0.93827000000E+00  0.93827000000E+00 0.  1.
     999902    2    1    2    0    0  0.65890483807E-02 -0.22503571627E-02  0.22297698306E-01  0.10205704834E+01  0.10203031141E+01 0.  0.
     999903    2    3    3    0    0  0.87503719212E-01 -0.87440239314E-01  0.41642720975E-01  0.13255092851E+00  0.23085409033E-01 0.  0.
         14    1    1    2    0    0 -0.65890483807E-02  0.22503571627E-02 -0.22297698306E-01  0.23359516598E-01  0.00000000000E+00 0.  1.
     999901    1    3    3    0    0 -0.80914670831E-01  0.85189882152E-01 -0.19345022669E-01  0.88801955490E+00  0.88000000000E+00 0. -1.
        -11    1    4    4    0    0  0.36869218756E-01 -0.21597522244E-01  0.15827162534E-01  0.45569205102E-01  0.51100000000E-03 0. -1.
         11    1    4    4    0    0  0.50634500456E-01 -0.65842717071E-01  0.25815558441E-01  0.86981723404E-01  0.51100000000E-03 0.  1.
</event>
<event>
 8    1  0.1063984E+005  0.1043930E+01  0.7957747E-01            NaN
         13   -1    0    0    0    0  0.00000000000E+00  0.00000000000E+00  0.74505805969E-08  0.10566000000E+00  0.10566000000E+00 0.  1.
     999900   -1    0    0    0    0 -0.00000000000E+00 -0.00000000000E+00 -0.74505805969E-08  0.93827000000E+00  0.93827000000E+00 0.  1.
     999902    2    1    2    0    0  0.57120613405E-02 -0.12284669304E-01 -0.19348935764E-01  0.10203096262E+01  0.10200361813E+01 0.  0.
     999903    2    3    3    0    0 -0.86998103538E-01 -0.85444280760E-01 -0.46227495360E-01  0.13201352667E+00  0.20523030066E-01 0.  0.
         14    1    1    2    0    0 -0.57120613405E-02  0.12284669304E-01  0.19348935764E-01  0.23620373830E-01  0.00000000000E+00 0. -1.
     999901    1    3    3    0    0  0.92710164878E-01  0.73159611456E-01  0.26878559596E-01  0.88829609950E+00  0.88000000000E+00 0.  1.
        -11    1    4    4    0    0 -0.22872046941E-01 -0.33340530728E-01 -0.21335428829E-01  0.45718521026E-01  0.51100000000E-03 0. -1.
         11    1    4    4    0    0 -0.64126056597E-01 -0.52103750032E-01 -0.24892066531E-01  0.86295005645E-01  0.51100000000E-03 0.  1.
</event>
<event>
 8    1  0.1063984E+005  0.1043930E+01  0.7957747E-01            NaN
         13   -1    0    0    0    0  0.00000000000E+00  0.00000000000E+00  0.74505805969E-08  0.10566000000E+00  0.10566000000E+00 0.  1.
     999900   -1    0    0    0    0 -0.00000000000E+00 -0.00000000000E+00 -0.74505805969E-08  0.93827000000E+00  0.93827000000E+00 0. -1.
     999902    2    1    2    0    0  0.50870451477E-02 -0.23353764353E-01  0.29000163298E-02  0.10198533218E+01  0.10195690813E+01 0.  0.
     999903    2    3    3    0    0  0.27049803573E-01  0.65081519214E-01 -0.10558995773E+00  0.12852104000E+00  0.20028043622E-01 0.  0.
         14    1    1    2    0    0 -0.50870451477E-02  0.23353764353E-01 -0.29000163298E-02  0.24076678186E-01  0.00000000000E+00 0.  1.
     999901    1    3    3    0    0 -0.21962758425E-01 -0.88435283566E-01  0.10848997406E+00  0.89133228182E+00  0.88000000000E+00 0.  1.
        -11    1    4    4    0    0  0.74524073563E-02  0.41332253821E-01 -0.53618184676E-01  0.68110677799E-01  0.51100000000E-03 0. -1.
         11    1    4    4    0    0  0.19597396216E-01  0.23749265393E-01 -0.51971773057E-01  0.60410362197E-01  0.51100000000E-03 0.  1.
</event>
<event>
 8    1  0.1063984E+005  0.1043930E+01  0.7957747E-01            NaN
         13   -1    0    0    0    0  0.00000000000E+00  0.00000000000E+00  0.74505805969E-08  0.10566000000E+00  0.10566000000E+00 0.  1.
     999900   -1    0    0    0    0 -0.00000000000E+00 -0.00000000000E+00 -0.74505805969E-08  0.93827000000E+00  0.93827000000E+00 0. -1.
     999902    2    1    2    0    0  0.21234410202E-01  0.16579944429E-01 -0.67407670353E-03  0.10169809905E+01  0.10166238665E+01 0.  0.
     999903    2    3    3    0    0  0.92584309952E-01  0.62439489236E-01  0.64806090639E-01  0.13048138059E+00  0.18841895658E-01 0.  0.
         14    1    1    2    0    0 -0.21234410202E-01 -0.16579944429E-01  0.67407670353E-03  0.26949009505E-01  0.00000000000E+00 0.  1.
     999901    1    3    3    0    0 -0.71349899750E-01 -0.45859544807E-01 -0.65480167342E-01  0.88649960990E+00  0.88000000000E+00 0. -1.
        -11    1    4    4    0    0  0.66331403668E-01  0.34140982951E-01  0.41013820914E-01  0.85134343578E-01  0.51100000000E-03 0.  1.
         11    1    4    4    0    0  0.26252906283E-01  0.28298506285E-01  0.23792269725E-01  0.45347037014E-01  0.51100000000E-03 0. -1.
</event>
<event>
 8    1  0.1063984E+005  0.1043930E+01  0.7957747E-01            NaN
         13   -1    0    0    0    0  0.00000000000E+00  0.00000000000E+00  0.74505805969E-08  0.10566000000E+00  0.10566000000E+00 0. -1.
     999900   -1    0    0    0    0 -0.00000000000E+00 -0.00000000000E+00 -0.74505805969E-08  0.93827000000E+00  0.93827000000E+00 0.  1.
     999902    2    1    2    0    0  0.13984965745E-01 -0.15057547081E-02 -0.16224190766E-01  0.10224574377E+01  0.10222319409E+01 0.  0.
     999903    2    3    3    0    0  0.87004159346E-01  0.11956372886E-01 -0.10117780419E+00  0.13525388277E+00  0.18546863533E-01 0.  0.
         14    1    1    2    0    0 -0.13984965745E-01  0.15057547081E-02  0.16224190766E-01  0.21472562263E-01  0.00000000000E+00 0. -1.
     999901    1    3    3    0    0 -0.73019193601E-01 -0.13462127594E-01  0.84953613426E-01  0.88720355497E+00  0.88000000000E+00 0.  1.
        -11    1    4    4    0    0  0.53484478776E-01  0.13429081292E-01 -0.52575224158E-01  0.76192814691E-01  0.51100000000E-03 0. -1.
         11    1    4    4    0    0  0.33519680571E-01 -0.14727084061E-02 -0.48602580034E-01  0.59061068078E-01  0.51100000000E-03 0.  1.
</event>
<event>
 8    1  0.1063984E+005  0.1043930E+01  0.7957747E-01            NaN
         13   -1    0    0    0    0  0.00000000000E+00  0.00000000000E+00  0.74505805969E-08  0.10566000000E+00  0.10566000000E+00 0.  1.
     999900   -1    0    0    0    0 -0.00000000000E+00 -0.00000000000E+00 -0.74505805969E-08  0.93827000000E+00  0.93827000000E+00 0. -1.
     999902    2    1    2    0    0 -0.21283162646E-02  0.12983289843E-01  0.18948551440E-01  0.10208617719E+01  0.10206011044E+01 0.  0.
     999903    2    3    3    0    0 -0.30876397815E-01  0.55987593228E-01 -0.11098150639E+00  0.12981876385E+00  0.21167289580E-01 0.  0.
         14    1    1    2    0    0  0.21283162646E-02 -0.12983289843E-01 -0.18948551440E-01  0.23068228084E-01  0.00000000000E+00 0. -1.
     999901    1    3    3    0    0  0.28748081551E-01 -0.43004303385E-01  0.12993005783E+00  0.89104300807E+00  0.88000000000E+00 0.  1.
        -11    1    4    4    0    0 -0.14396676993E-01  0.79943391350E-02 -0.30755387463E-01  0.34890238544E-01  0.51100000000E-03 0.  1.
         11    1    4    4    0    0 -0.16479720823E-01  0.47993254093E-01 -0.80226118928E-01  0.94928525303E-01  0.51100000000E-03 0. -1.
</event>
<event>
 8    1  0.1063984E+005  0.1043930E+01  0.7957747E-01            NaN
         13   -1    0    0    0    0  0.00000000000E+00  0.00000000000E+00  0.74505805969E-08  0.10566000000E+00  0.10566000000E+00 0.  1.
     999900   -1    0    0    0    0 -0.00000000000E+00 -0.00000000000E+00 -0.74505805969E-08  0.93827000000E+00  0.93827000000E+00 0. -1.
     999902    2    1    2    0    0  0.19426954806E-01  0.14058918555E-01 -0.43848724019E-02  0.10195520003E+01  0.10192605135E+01 0.  0.
     999903    2    3    3    0    0 -0.11375169739E+00 -0.30514214251E-01 -0.44429268863E-01  0.12751675925E+00  0.20396029689E-01 0.  0.
         14    1    1    2    0    0 -0.19426954806E-01 -0.14058918555E-01  0.43848724019E-02  0.24377999712E-01  0.00000000000E+00 0.  1.
     999901    1    3    3    0    0  0.13317865220E+00  0.44573132806E-01  0.40044396461E-01  0.89203524104E+00  0.88000000000E+00 0. -1.
        -11    1    4    4    0    0 -0.91047240278E-01 -0.23425122992E-01 -0.26352453321E-01  0.97637335412E-01  0.51100000000E-03 0. -1.
         11    1    4    4    0    0 -0.22704457112E-01 -0.70890912588E-02 -0.18076815542E-01  0.29879423836E-01  0.51100000000E-03 0.  1.
</event>
<event>
 8    1  0.1063984E+005  0.1043930E+01  0.7957747E-01            NaN
         13   -1    0    0    0    0  0.00000000000E+00  0.00000000000E+00  0.74505805969E-08  0.10566000000E+00  0.10566000000E+00 0.  1.
     999900   -1    0    0    0    0 -0.00000000000E+00 -0.00000000000E+00 -0.74505805969E-08  0.93827000000E+00  0.93827000000E+00 0.  1.
     999902    2    1    2    0    0  0.19721373782E-01 -0.28552413659E-02  0.12288619979E-01  0.10205185676E+01  0.10202499947E+01 0.  0.
     999903    2    3    3    0    0  0.53540657448E-01 -0.25049163855E-01 -0.11577452496E+00  0.13032955212E+00  0.93802408181E-02 0.  0.
         14    1    1    2    0    0 -0.19721373782E-01  0.28552413659E-02 -0.12288619979E-01  0.23411432423E-01  0.00000000000E+00 0. -1.
     999901    1    3    3    0    0 -0.33819283667E-01  0.22193922489E-01  0.12806314494E+00  0.89018901545E+00  0.88000000000E+00 0. -1.
        -11    1    4    4    0    0  0.10892573063E-01 -0.19471065573E-02 -0.26647981219E-01  0.28858541126E-01  0.51100000000E-03 0. -1.
         11    1    4    4    0    0  0.42648084385E-01 -0.23102057297E-01 -0.89126543739E-01  0.10147101100E+00  0.51100000000E-03 0.  1.
</event>
<event>
 8    1  0.1063984E+005  0.1043930E+01  0.7957747E-01            NaN
         13   -1    0    0    0    0  0.00000000000E+00  0.00000000000E+00  0.74505805969E-08  0.10566000000E+00  0.10566000000E+00 0.  1.
     999900   -1    0    0    0    0 -0.00000000000E+00 -0.00000000000E+00 -0.74505805969E-08  0.93827000000E+00  0.93827000000E+00 0.  1.
     999902    2    1    2    0    0  0.56929368129E-02 -0.23970597195E-01  0.53448804191E-02  0.10187195497E+01  0.10184075579E+01 0.  0.
     999903    2    3    3    0    0 -0.51237088031E-01  0.42621798080E-01 -0.10667870385E+00  0.12730221852E+00  0.19587039663E-01 0.  0.
         14    1    1    2    0    0 -0.56929368129E-02  0.23970597195E-01 -0.53448804191E-02  0.25210450336E-01  0.00000000000E+00 0. -1.
     999901    1    3    3    0    0  0.56930024844E-01 -0.66592395275E-01  0.11202358427E+00  0.89141733115E+00  0.88000000000E+00 0. -1.
        -11    1    4    4    0    0  0.83977788877E-03  0.11983833781E-02 -0.88611587725E-02  0.89956992733E-02  0.51100000000E-03 0. -1.
         11    1    4    4    0    0 -0.52076865920E-01  0.41423414702E-01 -0.97817545077E-01  0.11830651924E+00  0.51100000000E-03 0.  1.
</event>
<event>
 8    1  0.1063984E+005  0.1043930E+01  0.7957747E-01            NaN
         13   -1    0    0    0    0  0.00000000000E+00  0.00000000000E+00  0.74505805969E-08  0.10566000000E+00  0.10566000000E+00 0.  1.
     999900   -1    0    0    0    0 -0.00000000000E+00 -0.00000000000E+00 -0.74505805969E-08  0.93827000000E+00  0.93827000000E+00 0.  1.
     999902    2    1    2    0    0 -0.23285644263E-02 -0.22980830262E-01 -0.95217126801E-02  0.10189459294E+01  0.10186395846E+01 0.  0.
     999903    2    3    3    0    0 -0.10565710952E+00 -0.74664396562E-01 -0.10233592362E-01  0.13139396695E+00  0.20529277433E-01 0.  0.
         14    1    1    2    0    0  0.23285644263E-02  0.22980830262E-01  0.95217126801E-02  0.24984070609E-01  0.00000000000E+00 0.  1.
     999901    1    3    3    0    0  0.10332854510E+00  0.51683566300E-01  0.71187968225E-03  0.88755196244E+00  0.88000000000E+00 0. -1.
        -11    1    4    4    0    0 -0.51882698808E-01 -0.24311000285E-01 -0.57639164390E-02  0.57587524900E-01  0.51100000000E-03 0. -1.
         11    1    4    4    0    0 -0.53774410715E-01 -0.50353396277E-01 -0.44696759233E-02  0.73806442051E-01  0.51100000000E-03 0.  1.
</event>
<event>
 8    1  0.1063984E+005  0.1043930E+01  0.7957747E-01            NaN
         13   -1    0    0    0    0  0.00000000000E+00  0.00000000000E+00  0.74505805969E-08  0.10566000000E+00  0.10566000000E+00 0.  1.
     999900   -1    0    0    0    0 -0.00000000000E+00 -0.00000000000E+00 -0.74505805969E-08  0.93827000000E+00  0.93827000000E+00 0. -1.
     999902    2    1    2    0    0 -0.90902776850E-02  0.20279884803E-01 -0.15026616577E-01  0.10171026617E+01  0.10167487980E+01 0.  0.
     999903    2    3    3    0    0  0.45370688588E-01  0.79371306651E-01 -0.90555380451E-01  0.13021913654E+00  0.19961034278E-01 0.  0.
         14    1    1    2    0    0  0.90902776850E-02 -0.20279884803E-01  0.15026616577E-01  0.26827338328E-01  0.00000000000E+00 0.  1.
     999901    1    3    3    0    0 -0.54460966273E-01 -0.59091421849E-01  0.75528763874E-01  0.88688352513E+00  0.88000000000E+00 0. -1.
        -11    1    4    4    0    0  0.33091916413E-01  0.61507688967E-01 -0.79687707401E-01  0.10596538381E+00  0.51100000000E-03 0.  1.
         11    1    4    4    0    0  0.12278772175E-01  0.17863617684E-01 -0.10867673050E-01  0.24253752729E-01  0.51100000000E-03 0. -1.
</event>
<event>
 8    1  0.1063984E+005  0.1043930E+01  0.7957747E-01            NaN
         13   -1    0    0    0    0  0.00000000000E+00  0.00000000000E+00  0.74505805969E-08  0.10566000000E+00  0.10566000000E+00 0. -1.
     999900   -1    0    0    0    0 -0.00000000000E+00 -0.00000000000E+00 -0.74505805969E-08  0.93827000000E+00  0.93827000000E+00 0.  1.
     999902    2    1    2    0    0 -0.22858322445E-01 -0.10440005452E-04 -0.83027885394E-02  0.10196104747E+01  0.10193204014E+01 0.  0.
     999903    2    3    3    0    0 -0.11773210129E+00 -0.40197262912E-01 -0.41627233267E-01  0.13297270577E+00  0.21731228953E-01 0.  0.
         14    1    1    2    0    0  0.22858322445E-01  0.10440005452E-04  0.83027885394E-02  0.24319525314E-01  0.00000000000E+00 0. -1.
     999901    1    3    3    0    0  0.94873778842E-01  0.40186822906E-01  0.33324444728E-01  0.88663776891E+00  0.88000000000E+00 0. -1.
        -11    1    4    4    0    0 -0.21920389465E-01 -0.16481827436E-01 -0.63682962662E-02  0.28159730614E-01  0.51100000000E-03 0.  1.
         11    1    4    4    0    0 -0.95811711822E-01 -0.23715435476E-01 -0.35258937001E-01  0.10481297516E+00  0.51100000000E-03 0. -1.
</event>
<event>
 8    1  0.1063984E+005  0.1043930E+01  0.7957747E-01            NaN
         13   -1    0    0    0    0  0.00000000000E+00  0.00000000000E+00  0.74505805969E-08  0.10566000000E+00  0.10566000000E+00 0.  1.
     999900   -1    0    0    0    0 -0.00000000000E+00 -0.00000000000E+00 -0.74505805969E-08  0.93827000000E+00  0.93827000000E+00 0.  1.
     999902    2    1    2    0    0  0.64714286439E-02  0.14464039775E-01 -0.18463198254E-01  0.10195994117E+01  0.10193090713E+01 0.  0.
     999903    2    3    3    0    0 -0.85996551306E-01  0.87037848690E-01 -0.43579583527E-01  0.13142819071E+00  0.20079722902E-01 0.  0.
         14    1    1    2    0    0 -0.64714286439E-02 -0.14464039775E-01  0.18463198254E-01  0.24330588260E-01  0.00000000000E+00 0.  1.
     999901    1    3    3    0    0  0.92467979950E-01 -0.72573808915E-01  0.25116385273E-01  0.88817122103E+00  0.88000000000E+00 0. -1.
        -11    1    4    4    0    0 -0.56224379959E-01  0.67097322747E-01 -0.36770765051E-01  0.94950418140E-01  0.51100000000E-03 0.  1.
         11    1    4    4    0    0 -0.29772171347E-01  0.19940525944E-01 -0.68088184752E-02  0.36477772570E-01  0.51100000000E-03 0. -1.
</event>
<event>
 8    1  0.1063984E+005  0.1043930E+01  0.7957747E-01            NaN
         13   -1    0    0    0    0  0.00000000000E+00  0.00000000000E+00  0.74505805969E-08  0.10566000000E+00  0.10566000000E+00 0.  1.
     999900   -1    0    0    0    0 -0.00000000000E+00 -0.00000000000E+00 -0.74505805969E-08  0.93827000000E+00  0.93827000000E+00 0. -1.
     999902    2    1    2    0    0  0.19402786915E-01 -0.12393254668E-01  0.29070813821E-02  0.10207241382E+01  0.10204603149E+01 0.  0.
     999903    2    3    3    0    0 -0.12397640616E+00  0.26491022439E-01 -0.62202266414E-02  0.12822602177E+00  0.18201590189E-01 0.  0.
         14    1    1    2    0    0 -0.19402786915E-01  0.12393254668E-01 -0.29070813821E-02  0.23205861835E-01  0.00000000000E+00 0. -1.
     999901    1    3    3    0    0  0.14337919308E+00 -0.38884277107E-01  0.91273080235E-02  0.89249811639E+00  0.88000000000E+00 0.  1.
        -11    1    4    4    0    0 -0.31355764180E-01  0.40472894284E-03 -0.63577348416E-02  0.32000463530E-01  0.51100000000E-03 0.  1.
         11    1    4    4    0    0 -0.92620641982E-01  0.26086293496E-01  0.13750820015E-03  0.96225558242E-01  0.51100000000E-03 0. -1.
</event>
<event>
 8    1  0.1063984E+005  0.1043930E+01  0.7957747E-01            NaN
         13   -1    0    0    0    0  0.00000000000E+00  0.00000000000E+00  0.74505805969E-08  0.10566000000E+00  0.10566000000E+00 0. -1.
     999900   -1    0    0    0    0 -0.00000000000E+00 -0.00000000000E+00 -0.74505805969E-08  0.93827000000E+00  0.93827000000E+00 0. -1.
     999902    2    1    2    0    0 -0.96443878545E-02 -0.34664414745E-02  0.19223607636E-01  0.10221451997E+01  0.10219130255E+01 0.  0.
     999903    2    3    3    0    0  0.74251019813E-01  0.99061389310E-01  0.41529493937E-01  0.13194974471E+00  0.18964795491E-01 0.  0.
         14    1    1    2    0    0  0.96443878545E-02  0.34664414745E-02 -0.19223607636E-01  0.21784800300E-01  0.00000000000E+00 0.  1.
     999901    1    3    3    0    0 -0.83895407668E-01 -0.10252783078E+00 -0.22305886301E-01  0.89019545499E+00  0.88000000000E+00 0. -1.
        -11    1    4    4    0    0  0.51037229683E-01  0.81057255916E-01  0.29843809643E-01  0.10032941565E+00  0.51100000000E-03 0.  1.
         11    1    4    4    0    0  0.23213790130E-01  0.18004133395E-01  0.11685684294E-01  0.31620329061E-01  0.51100000000E-03 0. -1.
</event>
<event>
 8    1  0.1063984E+005  0.1043930E+01  0.7957747E-01            NaN
         13   -1    0    0    0    0  0.00000000000E+00  0.00000000000E+00  0.74505805969E-08  0.10566000000E+00  0.10566000000E+00 0. -1.
     999900   -1    0    0    0    0 -0.00000000000E+00 -0.00000000000E+00 -0.74505805969E-08  0.93827000000E+00  0.93827000000E+00 0. -1.
     999902    2    1    2    0    0  0.19282369118E-01 -0.16550150371E-02 -0.14596752441E-01  0.10196892489E+01  0.10194010743E+01 0.  0.
     999903    2    3    3    0    0  0.81991067534E-02 -0.12063256265E+00 -0.45939878627E-01  0.13106059352E+00  0.21141575245E-01 0.  0.
         14    1    1    2    0    0 -0.19282369118E-01  0.16550150371E-02  0.14596752441E-01  0.24240751131E-01  0.00000000000E+00 0. -1.
     999901    1    3    3    0    0  0.11083262365E-01  0.11897754761E+00  0.31343126185E-01  0.88862865534E+00  0.88000000000E+00 0.  1.
        -11    1    4    4    0    0 -0.21478619041E-03 -0.95393093892E-01 -0.29810778813E-01  0.99944145151E-01  0.51100000000E-03 0. -1.
         11    1    4    4    0    0  0.84138929438E-02 -0.25239468757E-01 -0.16129099813E-01  0.31116448374E-01  0.51100000000E-03 0.  1.
</event>
<event>
 8    1  0.1063984E+005  0.1043930E+01  0.7957747E-01            NaN
         13   -1    0    0    0    0  0.00000000000E+00  0.00000000000E+00  0.74505805969E-08  0.10566000000E+00  0.10566000000E+00 0. -1.
     999900   -1    0    0    0    0 -0.00000000000E+00 -0.00000000000E+00 -0.74505805969E-08  0.93827000000E+00  0.93827000000E+00 0.  1.
     999902    2    1    2    0    0  0.22627359745E-01 -0.39495864122E-02  0.39967485623E-02  0.10206153985E+01  0.10203490683E+01 0.  0.
     999903    2    3    3    0    0 -0.89428378987E-01 -0.16472095568E-01  0.88679681368E-01  0.12938899582E+00  0.24671065035E-01 0.  0.
         14    1    1    2    0    0 -0.22627359745E-01  0.39495864122E-02 -0.39967485623E-02  0.23314601453E-01  0.00000000000E+00 0.  1.
     999901    1    3    3    0    0  0.11205573873E+00  0.12522509156E-01 -0.84682932805E-01  0.89122640273E+00  0.88000000000E+00 0.  1.
        -11    1    4    4    0    0 -0.36908476448E-01 -0.14137484521E-01  0.24825674787E-01  0.46676325390E-01  0.51100000000E-03 0. -1.
         11    1    4    4    0    0 -0.52519902539E-01 -0.23346110470E-02  0.63854006581E-01  0.82712670425E-01  0.51100000000E-03 0.  1.
</event>
<event>
 8    1  0.1063984E+005  0.1043930E+01  0.7957747E-01            NaN
         13   -1    0    0    0    0  0.00000000000E+00  0.00000000000E+00  0.74505805969E-08  0.10566000000E+00  0.10566000000E+00 0.  1.
     999900   -1    0    0    0    0 -0.00000000000E+00 -0.00000000000E+00 -0.74505805969E-08  0.93827000000E+00  0.93827000000E+00 0.  1.
     999902    2    1    2    0    0 -0.19184627197E-01  0.11290609875E-01  0.45378726703E-02  0.10212117236E+01  0.10209589925E+01 0.  0.
     999903    2    3    3    0    0 -0.91951597716E-01  0.92117972527E-01 -0.24625283524E-01  0.13403722884E+00  0.20463551557E-01 0.  0.
         14    1    1    2    0    0  0.19184627197E-01 -0.11290609875E-01 -0.45378726703E-02  0.22718276352E-01  0.00000000000E+00 0.  1.
     999901    1    3    3    0    0  0.72766970519E-01 -0.80827362652E-01  0.29163156194E-01  0.88717449480E+00  0.88000000000E+00 0. -1.
        -11    1    4    4    0    0 -0.12865511835E-01  0.11710159331E-01 -0.10615327783E-01  0.20386160287E-01  0.51100000000E-03 0.  1.
         11    1    4    4    0    0 -0.79086085882E-01  0.80407813197E-01 -0.14009955741E-01  0.11365106856E+00  0.51100000000E-03 0. -1.
</event>
<event>
 8    1  0.1063984E+005  0.1043930E+01  0.7957747E-01            NaN
         13   -1    0    0    0    0  0.00000000000E+00  0.00000000000E+00  0.74505805969E-08  0.10566000000E+00  0.10566000000E+00 0. -1.
     999900   -1    0    0    0    0 -0.00000000000E+00 -0.00000000000E+00 -0.74505805969E-08  0.93827000000E+00  0.93827000000E+00 0. -1.
     999902    2    1    2    0    0  0.11968612004E-01 -0.11366597028E-01  0.16165323240E-01  0.10208266479E+01  0.10205651769E+01 0.  0.
     999903    2    3    3    0    0 -0.16158880198E-01  0.11906995382E+00  0.46140199967E-01  0.13026315056E+00  0.20020165564E-01 0.  0.
         14    1    1    2    0    0 -0.11968612004E-01  0.11366597028E-01 -0.16165323240E-01  0.23103352068E-01  0.00000000000E+00 0. -1.
     999901    1    3    3    0    0  0.28127492202E-01 -0.13043655085E+00 -0.29974876727E-01  0.89056349737E+00  0.88000000000E+00 0.  1.
        -11    1    4    4    0    0 -0.92599782014E-02  0.10274296279E+00  0.33414783300E-01  0.10843741265E+00  0.51100000000E-03 0. -1.
         11    1    4    4    0    0 -0.68989019965E-02  0.16326991032E-01  0.12725416668E-01  0.21825737909E-01  0.51100000000E-03 0.  1.
</event>
<event>
 7    1  0.1063984E+005  0.1043930E+01  0.7957747E-01            NaN
         13   -1    0    0    0    0  0.00000000000E+00  0.00000000000E+00  0.74505805969E-08  0.10566000000E+00  0.10566000000E+00 0.  1.
     999900   -1    0    0    0    0 -0.00000000000E+00 -0.00000000000E+00 -0.74505805969E-08  0.93827000000E+00  0.93827000000E+00 0. -1.
     999902    2    1    2    0    0  0.15833237181E-01 -0.89032661791E-02  0.15014383029E-01  0.10203632597E+01  0.10200910698E+01 0.  0.
         14    1    1    2    0    0 -0.15833237181E-01  0.89032661791E-02 -0.15014383029E-01  0.23566740251E-01  0.00000000000E+00 0. -1.
     999901    1    3    3    0    0 -0.56792284531E-01 -0.85891650371E-01 -0.51911642636E-01  0.88752327171E+00  0.88000000000E+00 0. -1.
        -11    1    3    3    0    0  0.10307184543E-01  0.10939503067E-01  0.32343209123E-01  0.35668684836E-01  0.51100000000E-03 0.  1.
         11    1    3    3    0    0  0.62318337169E-01  0.66048881124E-01  0.34582816542E-01  0.97171303203E-01  0.51100000000E-03 0. -1.
</event>
<event>
 8    1  0.1063984E+005  0.1043930E+01  0.7957747E-01            NaN
         13   -1    0    0    0    0  0.00000000000E+00  0.00000000000E+00  0.74505805969E-08  0.10566000000E+00  0.10566000000E+00 0.  1.
     999900   -1    0    0    0    0 -0.00000000000E+00 -0.00000000000E+00 -0.74505805969E-08  0.93827000000E+00  0.93827000000E+00 0. -1.
     999902    2    1    2    0    0 -0.22384680593E-01  0.64662457932E-02 -0.80040160094E-02  0.10192936339E+01  0.10189958595E+01 0.  0.
     999903    2    3    3    0    0 -0.52475239945E-01 -0.11117711968E+00  0.36647268116E-01  0.12983360653E+00  0.19993508357E-01 0.  0.
         14    1    1    2    0    0  0.22384680593E-01 -0.64662457932E-02  0.80040160094E-02  0.24636366051E-01  0.00000000000E+00 0.  1.
     999901    1    3    3    0    0  0.30090559351E-01  0.11764336547E+00 -0.44651284125E-01  0.88946002742E+00  0.88000000000E+00 0.  1.
        -11    1    4    4    0    0 -0.28157562236E-01 -0.69344902992E-01  0.31382971073E-01  0.81158584736E-01  0.51100000000E-03 0. -1.
         11    1    4    4    0    0 -0.24317677709E-01 -0.41832216689E-01  0.52642970429E-02  0.48675021794E-01  0.51100000000E-03 0.  1.
</event>
<event>
 8    1  0.1063984E+005  0.1043930E+01  0.7957747E-01            NaN
         13   -1    0    0    0    0  0.00000000000E+00  0.00000000000E+00  0.74505805969E-08  0.10566000000E+00  0.10566000000E+00 0. -1.
     999900   -1    0    0    0    0 -0.00000000000E+00 -0.00000000000E+00 -0.74505805969E-08  0.93827000000E+00  0.93827000000E+00 0.  1.
     999902    2    1    2    0    0 -0.12357013434E-01 -0.13558370559E-01  0.15627072029E-01  0.10198316479E+01  0.10195468893E+01 0.  0.
     999903    2    3    3    0    0  0.85959175567E-01 -0.82526799866E-01  0.50605367002E-01  0.13098621794E+00  0.19920681726E-01 0.  0.
         14    1    1    2    0    0  0.12357013434E-01  0.13558370559E-01 -0.15627072029E-01  0.24098352089E-01  0.00000000000E+00 0.  1.
     999901    1    3    3    0    0 -0.98316189001E-01  0.68968429307E-01 -0.34978294973E-01  0.88884542997E+00  0.88000000000E+00 0. -1.
        -11    1    4    4    0    0  0.35284867493E-01 -0.47406861374E-01  0.26833009016E-01  0.64905345490E-01  0.51100000000E-03 0.  1.
         11    1    4    4    0    0  0.50674308075E-01 -0.35119938493E-01  0.23772357986E-01  0.66080872450E-01  0.51100000000E-03 0. -1.
</event>
<event>
 8    1  0.1063984E+005  0.1043930E+01  0.7957747E-01            NaN
         13   -1    0    0    0    0  0.00000000000E+00  0.00000000000E+00  0.74505805969E-08  0.10566000000E+00  0.10566000000E+00 0. -1.
     999900   -1    0    0    0    0 -0.00000000000E+00 -0.00000000000E+00 -0.74505805969E-08  0.93827000000E+00  0.93827000000E+00 0.  1.
     999902    2    1    2    0    0 -0.12575911495E-02 -0.15383655038E-01 -0.18049685981E-01  0.10201806939E+01  0.10199042203E+01 0.  0.
     999903    2    3    3    0    0  0.80680609293E-02  0.70758236785E-01  0.10394814490E+00  0.12754926710E+00  0.19793358235E-01 0.  0.
         14    1    1    2    0    0  0.12575911495E-02  0.15383655038E-01  0.18049685981E-01  0.23749306134E-01  0.00000000000E+00 0.  1.
     999901    1    3    3    0    0 -0.93256520788E-02 -0.86141891824E-01 -0.12199783088E+00  0.89263142677E+00  0.88000000000E+00 0.  1.
        -11    1    4    4    0    0  0.13132275564E-02  0.29591716322E-01  0.60213636176E-01  0.67106909809E-01  0.51100000000E-03 0.  1.
         11    1    4    4    0    0  0.67548333728E-02  0.41166520463E-01  0.43734508719E-01  0.60442357290E-01  0.51100000000E-03 0. -1.
</event>
<event>
 8    1  0.1063984E+005  0.1043930E+01  0.7957747E-01            NaN
         13   -1    0    0    0    0  0.00000000000E+00  0.00000000000E+00  0.74505805969E-08  0.10566000000E+00  0.10566000000E+00 0.  1.
     999900   -1    0    0    0    0 -0.00000000000E+00 -0.00000000000E+00 -0.74505805969E-08  0.93827000000E+00  0.93827000000E+00 0.  1.
     999902    2    1    2    0    0 -0.15715271079E-01  0.15216369496E-01 -0.90332658134E-02  0.10202634088E+01  0.10199888803E+01 0.  0.
     999903    2    3    3    0    0  0.11605931961E+00  0.50788932149E-01  0.17309009849E-01  0.12935159197E+00  0.19569139588E-01 0.  0.
         14    1    1    2    0    0  0.15715271079E-01 -0.15216369496E-01  0.90332658134E-02  0.23666591157E-01  0.00000000000E+00 0.  1.
     999901    1    3    3    0    0 -0.13177459069E+00 -0.35572562653E-01 -0.26342275662E-01  0.89091181688E+00  0.88000000000E+00 0.  1.
        -11    1    4    4    0    0  0.50078061078E-01  0.25865345034E-01  0.16800733402E-01  0.58816273589E-01  0.51100000000E-03 0. -1.
         11    1    4    4    0    0  0.65981258535E-01  0.24923587116E-01  0.50827644685E-03  0.70535318377E-01  0.51100000000E-03 0.  1.
</event>
<event>
 8    1  0.1063984E+005  0.1043930E+01  0.7957747E-01            NaN
         13   -1    0    0    0    0  0.00000000000E+00  0.00000000000E+00  0.74505805969E-08  0.10566000000E+00  0.10566000000E+00 0. -1.
     999900   -1    0    0    0    0 -0.00000000000E+00 -0.00000000000E+00 -0.74505805969E-08  0.93827000000E+00  0.93827000000E+00 0. -1.
     999902    2    1    2    0    0 -0.21272543651E-01 -0.27969696649E-02  0.71983039550E-02  0.10212990537E+01  0.10210482835E+01 0.  0.
     999903    2    3    3    0    0  0.95534100811E-01 -0.65865651961E-01  0.55122732537E-01  0.13005374414E+00  0.20258632629E-01 0.  0.
         14    1    1    2    0    0  0.21272543651E-01  0.27969696649E-02 -0.71983039550E-02  0.22630946346E-01  0.00000000000E+00 0.  1.
     999901    1    3    3    0    0 -0.11680664446E+00  0.63068682297E-01 -0.47924428582E-01  0.89124530951E+00  0.88000000000E+00 0. -1.
        -11    1    4    4    0    0  0.58897337872E-01 -0.34242912438E-01  0.41496158339E-01  0.79772587638E-01  0.51100000000E-03 0. -1.
         11    1    4    4    0    0  0.36636762939E-01 -0.31622739523E-01  0.13626574199E-01  0.50281156501E-01  0.51100000000E-03 0.  1.
</event>
<event>
 8    1  0.1063984E+005  0.1043930E+01  0.7957747E-01            NaN
         13   -1    0    0    0    0  0.00000000000E+00  0.00000000000E+00  0.74505805969E-08  0.10566000000E+00  0.10566000000E+00 0.  1.
     999900   -1    0    0    0    0 -0.00000000000E+00 -0.00000000000E+00 -0.74505805969E-08  0.93827000000E+00  0.93827000000E+00 0.  1.
     999902    2    1    2    0    0  0.21696391834E-01  0.35637234410E-02 -0.89931657475E-02  0.10201747780E+01  0.10198981650E+01 0.  0.
     999903    2    3    3    0    0 -0.27908046059E-01  0.95187855226E-01 -0.82929257469E-01  0.13094920061E+00  0.20756795943E-01 0.  0.
         14    1    1    2    0    0 -0.21696391834E-01 -0.35637234410E-02  0.89931657475E-02  0.23755222027E-01  0.00000000000E+00 0.  1.
     999901    1    3    3    0    0  0.49604437894E-01 -0.91624131785E-01  0.73936091721E-01  0.88922557737E+00  0.88000000000E+00 0. -1.
        -11    1    4    4    0    0 -0.12142452640E-01  0.19862215916E-01 -0.11587660439E-01  0.26009263208E-01  0.51100000000E-03 0.  1.
         11    1    4    4    0    0 -0.15765593419E-01  0.75325639310E-01 -0.71341597030E-01  0.10493993740E+00  0.51100000000E-03 0. -1.
</event>
<event>
 8    1  0.1063984E+005  0.1043930E+01  0.7957747E-01            NaN
         13   -1    0    0    0    0  0.00000000000E+00  0.00000000000E+00  0.74505805969E-08  0.10566000000E+00  0.10566000000E+00 0.  1.
     999900   -1    0    0    0    0 -0.00000000000E+00 -0.00000000000E+00 -0.74505805969E-08  0.93827000000E+00  0.93827000000E+00 0. -1.
     999902    2    1    2    0    0 -0.24234457830E-01  0.11601777208E-01  0.33869778045E-02  0.10168489771E+01  0.10164882983E+01 0.  0.
     999903    2    3    3    0    0 -0.74504240880E-01  0.66984039967E-01  0.80863842986E-01  0.13028430902E+00  0.19932299280E-01 0.  0.
         14    1    1    2    0    0  0.24234457830E-01 -0.11601777208E-01 -0.33869778045E-02  0.27081022864E-01  0.00000000000E+00 0.  1.
     999901    1    3    3    0    0  0.50269783050E-01 -0.55382262758E-01 -0.77476865182E-01  0.88656466812E+00  0.88000000000E+00 0. -1.
        -11    1    4    4    0    0 -0.58040076370E-01  0.58759035992E-01  0.73126026486E-01  0.11031297134E+00  0.51100000000E-03 0. -1.
         11    1    4    4    0    0 -0.16464164510E-01  0.82250039751E-02  0.77378165006E-02  0.19971337677E-01  0.51100000000E-03 0.  1.
</event>
<event>
 8    1  0.1063984E+005  0.1043930E+01  0.7957747E-01            NaN
         13   -1    0    0    0    0  0.00000000000E+00  0.00000000000E+00  0.74505805969E-08  0.10566000000E+00  0.10566000000E+00 0.  1.
     999900   -1    0    0    0    0 -0.00000000000E+00 -0.00000000000E+00 -0.74505805969E-08  0.93827000000E+00  0.93827000000E+00 0.  1.
     999902    2    1    2    0    0  0.11966711096E-01  0.14011368737E-01 -0.13603804168E-01  0.10210261987E+01  0.10207692757E+01 0.  0.
     999903    2    3    3    0    0  0.65359868031E-02  0.80037828285E-01  0.10128163594E+00  0.13108931860E+00  0.21855584957E-01 0.  0.
         14    1    1    2    0    0 -0.11966711096E-01 -0.14011368737E-01  0.13603804168E-01  0.22903801347E-01  0.00000000000E+00 0.  1.
     999901    1    3    3    0    0  0.54307242924E-02 -0.66026459548E-01 -0.11488544010E+00  0.88993688005E+00  0.88000000000E+00 0. -1.
        -11    1    4    4    0    0  0.11024879876E-01  0.51745229658E-01  0.77584915719E-01  0.93908450295E-01  0.51100000000E-03 0. -1.
         11    1    4    4    0    0 -0.44888930728E-02  0.28292598627E-01  0.23696720216E-01  0.37180868307E-01  0.51100000000E-03 0.  1.
</event>
<event>
 8    1  0.1063984E+005  0.1043930E+01  0.7957747E-01            NaN
         13   -1    0    0    0    0  0.00000000000E+00  0.00000000000E+00  0.74505805969E-08  0.10566000000E+00  0.10566000000E+00 0. -1.
     999900   -1    0    0    0    0 -0.00000000000E+00 -0.00000000000E+00 -0.74505805969E-08  0.93827000000E+00  0.93827000000E+00 0. -1.
     999902    2    1    2    0    0  0.12447232105E-01 -0.16184600685E-02  0.81592028557E-02  0.10289591753E+01  0.10288502607E+01 0.  0.
     999903    2    3    3    0    0 -0.13036859977E+00  0.37869701034E-01  0.53817814209E-02  0.13656722626E+00  0.13840435433E-01 0.  0.
         14    1    1    2    0    0 -0.12447232105E-01  0.16184600685E-02 -0.81592028557E-02  0.14970824670E-01  0.00000000000E+00 0.  1.
     999901    1    3    3    0    0  0.14281583188E+00 -0.39488161102E-01  0.27774214347E-02  0.89239194907E+00  0.88000000000E+00 0. -1.
        -11    1    4    4    0    0 -0.85647352687E-01  0.29397707250E-01 -0.12810859730E-02  0.90562666238E-01  0.51100000000E-03 0.  1.
         11    1    4    4    0    0 -0.44721247085E-01  0.84719937841E-02  0.66628673940E-02  0.46004560018E-01  0.51100000000E-03 0. -1.
</event>
<event>
 8    1  0.1063984E+005  0.1043930E+01  0.7957747E-01            NaN
         13   -1    0    0    0    0  0.00000000000E+00  0.00000000000E+00  0.74505805969E-08  0.10566000000E+00  0.10566000000E+00 0. -1.
     999900   -1    0    0    0    0 -0.00000000000E+00 -0.00000000000E+00 -0.74505805969E-08  0.93827000000E+00  0.93827000000E+00 0.  1.
     999902    2    1    2    0    0  0.53275880502E-02 -0.15053273157E-01  0.17521036825E-01  0.10202240733E+01  0.10199486207E+01 0.  0.
     999903    2    3    3    0    0  0.42538947142E-01 -0.72509064705E-01  0.10189193522E+00  0.13354244969E+00  0.19608490998E-01 0.  0.
         14    1    1    2    0    0 -0.53275880502E-02  0.15053273157E-01 -0.17521036825E-01  0.23705926655E-01  0.00000000000E+00 0.  1.
     999901    1    3    3    0    0 -0.37211359092E-01  0.57455791548E-01 -0.84370898392E-01  0.88668162365E+00  0.88000000000E+00 0.  1.
        -11    1    4    4    0    0  0.38404055201E-01 -0.48663206669E-01  0.70027530544E-01  0.93525907075E-01  0.51100000000E-03 0. -1.
         11    1    4    4    0    0  0.41348919409E-02 -0.23845858036E-01  0.31864404673E-01  0.40016542617E-01  0.51100000000E-03 0.  1.
</event>
<event>
 8    1  0.1063984E+005  0.1043930E+01  0.7957747E-01            NaN
         13   -1    0    0    0    0  0.00000000000E+00  0.00000000000E+00  0.74505805969E-08  0.10566000000E+00  0.10566000000E+00 0. -1.
     999900   -1    0    0    0    0 -0.00000000000E+00 -0.00000000000E+00 -0.74505805969E-08  0.93827000000E+00  0.93827000000E+00 0.  1.
     999902    2    1    2    0    0 -0.16041955357E-01 -0.41860757448E-02 -0.16833698769E-01  0.10203028763E+01  0.10200292733E+01 0.  0.
     999903    2    3    3    0    0  0.43234869866E-01 -0.85527070432E-01 -0.88417178274E-01  0.13167793065E+00  0.18366988259E-01 0.  0.
         14    1    1    2    0    0  0.16041955357E-01  0.41860757448E-02  0.16833698769E-01  0.23627123737E-01  0.00000000000E+00 0. -1.
     999901    1    3    3    0    0 -0.59276825224E-01  0.81340994687E-01  0.71583479505E-01  0.88862494561E+00  0.88000000000E+00 0. -1.
        -11    1    4    4    0    0  0.18439484396E-01 -0.55663006905E-01 -0.49996818493E-01  0.77060546993E-01  0.51100000000E-03 0. -1.
         11    1    4    4    0    0  0.24795385471E-01 -0.29864063527E-01 -0.38420359781E-01  0.54617383658E-01  0.51100000000E-03 0.  1.
</event>
<event>
 8    1  0.1063984E+005  0.1043930E+01  0.7957747E-01            NaN
         13   -1    0    0    0    0  0.00000000000E+00  0.00000000000E+00  0.74505805969E-08  0.10566000000E+00  0.10566000000E+00 0.  1.
     999900   -1    0    0    0    0 -0.00000000000E+00 -0.00000000000E+00 -0.74505805969E-08  0.93827000000E+00  0.93827000000E+00 0.  1.
     999902    2    1    2    0    0  0.17723104940E-01  0.16430413299E-01 -0.25234257275E-02  0.10196311398E+01  0.10193415652E+01 0.  0.
     999903    2    3    3    0    0 -0.22572578802E-01  0.23355701258E-01 -0.12450499922E+00  0.13027676385E+00  0.20384559645E-01 0.  0.
         14    1    1    2    0    0 -0.17723104940E-01 -0.16430413299E-01  0.25234257275E-02  0.24298860206E-01  0.00000000000E+00 0. -1.
     999901    1    3    3    0    0  0.40295683742E-01 -0.69252879587E-02  0.12198157350E+00  0.88935437595E+00  0.88000000000E+00 0. -1.
        -11    1    4    4    0    0 -0.15535628222E-02  0.14335961930E-01 -0.63607951407E-01  0.65223967720E-01  0.51100000000E-03 0.  1.
         11    1    4    4    0    0 -0.21019015980E-01  0.90197393280E-02 -0.60897047817E-01  0.65052796128E-01  0.51100000000E-03 0. -1.
</event>
<event>
 8    1  0.1063984E+005  0.1043930E+01  0.7957747E-01            NaN
         13   -1    0    0    0    0  0.00000000000E+00  0.00000000000E+00  0.74505805969E-08  0.10566000000E+00  0.10566000000E+00 0. -1.
     999900   -1    0    0    0    0 -0.00000000000E+00 -0.00000000000E+00 -0.74505805969E-08  0.93827000000E+00  0.93827000000E+00 0. -1.
     999902    2    1    2    0    0  0.24500500858E-01  0.11786736172E-01 -0.10418119880E-01  0.10148140437E+01  0.10143962758E+01 0.  0.
     999903    2    3    3    0    0 -0.22305130487E-01  0.10571016233E+00 -0.64213372450E-01  0.12694789028E+00  0.17895596649E-01 0.  0.
         14    1    1    2    0    0 -0.24500500858E-01 -0.11786736172E-01  0.10418119880E-01  0.29115956342E-01  0.00000000000E+00 0.  1.
     999901    1    3    3    0    0  0.46805631345E-01 -0.93923426162E-01  0.53795252570E-01  0.88786615337E+00  0.88000000000E+00 0.  1.
        -11    1    4    4    0    0  0.29497811027E-02  0.17377774365E-01 -0.10000741600E-01  0.20272252070E-01  0.51100000000E-03 0.  1.
         11    1    4    4    0    0 -0.25254911590E-01  0.88332387969E-01 -0.54212630849E-01  0.10667563821E+00  0.51100000000E-03 0. -1.
</event>
<event>
 8    1  0.1063984E+005  0.1043930E+01  0.7957747E-01            NaN
         13   -1    0    0    0    0  0.00000000000E+00  0.00000000000E+00  0.74505805969E-08  0.10566000000E+00  0.10566000000E+00 0.  1.
     999900   -1    0    0    0    0 -0.00000000000E+00 -0.00000000000E+00 -0.74505805969E-08  0.93827000000E+00  0.93827000000E+00 0.  1.
     999902    2    1    2    0    0 -0.44147340806E-03  0.76680983237E-02 -0.20805143640E-01  0.10217523393E+01  0.10215116222E+01 0.  0.
     999903    2    3    3    0    0 -0.90643433219E-02  0.31641749532E-01 -0.12930051886E+00  0.13472340166E+00  0.18665694289E-01 0.  0.
         14    1    1    2    0    0  0.44147340806E-03 -0.76680983237E-02  0.20805143640E-01  0.22177660665E-01  0.00000000000E+00 0.  1.
     999901    1    3    3    0    0  0.86228699138E-02 -0.23973651209E-01  0.10849537522E+00  0.88702893768E+00  0.88000000000E+00 0. -1.
        -11    1    4    4    0    0 -0.73174398962E-03  0.24251793119E-01 -0.63391669191E-01  0.67878197991E-01  0.51100000000E-03 0. -1.
         11    1    4    4    0    0 -0.83325993323E-02  0.73899564133E-02 -0.65908849667E-01  0.66845203664E-01  0.51100000000E-03 0.  1.
</event>
<event>
 8    1  0.1063984E+005  0.1043930E+01  0.7957747E-01            NaN
         13   -1    0    0    0    0  0.00000000000E+00  0.00000000000E+00  0.74505805969E-08  0.10566000000E+00  0.10566000000E+00 0.  1.
     999900   -1    0    0    0    0 -0.00000000000E+00 -0.00000000000E+00 -0.74505805969E-08  0.93827000000E+00  0.93827000000E+00 0.  1.
     999902    2    1    2    0    0  0.19032502501E-01  0.25935735445E-02  0.10261983088E-01  0.10221522345E+01  0.10219202118E+01 0.  0.
     999903    2    3    3    0    0 -0.21037063995E-01 -0.79699729774E-01  0.10291497232E+00  0.13256674989E+00  0.13705716379E-01 0.  0.
         14    1    1    2    0    0 -0.19032502501E-01 -0.25935735445E-02 -0.10261983088E-01  0.21777765543E-01  0.00000000000E+00 0. -1.
     999901    1    3    3    0    0  0.40069566496E-01  0.82293303319E-01 -0.92652989236E-01  0.88958548456E+00  0.88000000000E+00 0.  1.
        -11    1    4    4    0    0 -0.74484024170E-03 -0.25471063619E-01  0.35439889911E-01  0.43652912695E-01  0.51100000000E-03 0.  1.
         11    1    4    4    0    0 -0.20292223754E-01 -0.54228666155E-01  0.67475082413E-01  0.88913837199E-01  0.51100000000E-03 0. -1.
</event>
<event>
 8    1  0.1063984E+005  0.1043930E+01  0.7957747E-01            NaN
         13   -1    0    0    0    0  0.00000000000E+00  0.00000000000E+00  0.74505805969E-08  0.10566000000E+00  0.10566000000E+00 0.  1.
     999900   -1    0    0    0    0 -0.00000000000E+00 -0.00000000000E+00 -0.74505805969E-08  0.93827000000E+00  0.93827000000E+00 0.  1.
     999902    2    1    2    0    0 -0.14441824935E-01 -0.16054889206E-01  0.90411298143E-02  0.10205191520E+01  0.10202505927E+01 0.  0.
     999903    2    3    3    0    0 -0.47930107083E-01 -0.28429036959E-01  0.11910891052E+00  0.13294408425E+00  0.19536930791E-01 0.  0.
         14    1    1    2    0    0  0.14441824935E-01  0.16054889206E-01 -0.90411298143E-02  0.23410847981E-01  0.00000000000E+00 0. -1.
     999901    1    3    3    0    0  0.33488282149E-01  0.12374147752E-01 -0.11006778071E+00  0.88757506777E+00  0.88000000000E+00 0.  1.
        -11    1    4    4    0    0 -0.87790023065E-02 -0.10612565714E-01  0.15396429654E-01  0.20664186402E-01  0.51100000000E-03 0. -1.
         11    1    4    4    0    0 -0.39151104777E-01 -0.17816471244E-01  0.10371248087E+00  0.11227989785E+00  0.51100000000E-03 0.  1.
</event>
<event>
 8    1  0.1063984E+005  0.1043930E+01  0.7957747E-01            NaN
         13   -1    0    0    0    0  0.00000000000E+00  0.00000000000E+00  0.74505805969E-08  0.10566000000E+00  0.10566000000E+00 0. -1.
     999900   -1    0    0    0    0 -0.00000000000E+00 -0.00000000000E+00 -0.74505805969E-08  0.93827000000E+00  0.93827000000E+00 0. -1.
     999902    2    1    2    0    0  0.46220475175E-03 -0.23268201837E-01  0.21679155461E-02  0.10205564528E+01  0.10202887585E+01 0.  0.
     999903    2    3    3    0    0  0.62956671282E-01  0.65710708104E-01  0.89990576997E-01  0.12952579980E+00  0.19929607284E-01 0.  0.
         14    1    1    2    0    0 -0.46220475175E-03  0.23268201837E-01 -0.21679155461E-02  0.23373547180E-01  0.00000000000E+00 0. -1.
     999901    1    3    3    0    0 -0.62494466530E-01 -0.88978909941E-01 -0.87822661451E-01  0.89103065302E+00  0.88000000000E+00 0. -1.
        -11    1    4    4    0    0  0.19606117598E-01  0.34401085109E-01  0.35601216410E-01  0.53249809716E-01  0.51100000000E-03 0. -1.
         11    1    4    4    0    0  0.43350553684E-01  0.31309622995E-01  0.54389360587E-01  0.76275990082E-01  0.51100000000E-03 0.  1.
</event>
<event>
 8    1  0.1063984E+005  0.1043930E+01  0.7957747E-01            NaN
         13   -1    0    0    0    0  0.00000000000E+00  0.00000000000E+00  0.74505805969E-08  0.10566000000E+00  0.10566000000E+00 0. -1.
     999900   -1    0    0    0    0 -0.00000000000E+00 -0.00000000000E+00 -0.74505805969E-08  0.93827000000E+00  0.93827000000E+00 0.  1.
     999902    2    1    2    0    0 -0.83451346408E-03 -0.20894601871E-01 -0.46703513524E-03  0.10230135251E+01  0.10227996742E+01 0.  0.
     999903    2    3    3    0    0 -0.85124473640E-01 -0.10316118181E+00  0.62714675962E-02  0.13514078931E+00  0.18311094544E-01 0.  0.
         14    1    1    2    0    0  0.83451346408E-03  0.20894601871E-01  0.46703513524E-03  0.20916474891E-01  0.00000000000E+00 0.  1.
     999901    1    3    3    0    0  0.84289960176E-01  0.82266579941E-01 -0.67385027315E-02  0.88787273580E+00  0.88000000000E+00 0.  1.
        -11    1    4    4    0    0 -0.29741982819E-01 -0.24935097600E-01  0.61091806984E-02  0.39292847239E-01  0.51100000000E-03 0. -1.
         11    1    4    4    0    0 -0.55382490821E-01 -0.78226084212E-01  0.16228689783E-03  0.95847942068E-01  0.51100000000E-03 0.  1.
</event>
<event>
 8    1  0.1063984E+005  0.1043930E+01  0.7957747E-01            NaN
         13   -1    0    0    0    0  0.00000000000E+00  0.00000000000E+00  0.74505805969E-08  0.10566000000E+00  0.10566000000E+00 0. -1.
     999900   -1    0    0    0    0 -0.00000000000E+00 -0.00000000000E+00 -0.74505805969E-08  0.93827000000E+00  0.93827000000E+00 0. -1.
     999902    2    1    2    0    0  0.21853080519E-01  0.22225954861E-01 -0.38878874715E-02  0.10125187621E+01  0.10120314114E+01 0.  0.
     999903    2    3    3    0    0 -0.69561422781E-01  0.99396358069E-01  0.16565866361E-01  0.12418873413E+00  0.20736109065E-01 0.  0.
         14    1    1    2    0    0 -0.21853080519E-01 -0.22225954861E-01  0.38878874715E-02  0.31411237904E-01  0.00000000000E+00 0.  1.
     999901    1    3    3    0    0  0.91414503300E-01 -0.77170403208E-01 -0.20453753832E-01  0.88833002797E+00  0.88000000000E+00 0. -1.
        -11    1    4    4    0    0 -0.54232364811E-01  0.66577064626E-01  0.44376140275E-02  0.85986094611E-01  0.51100000000E-03 0. -1.
         11    1    4    4    0    0 -0.15329057970E-01  0.32819293443E-01  0.12128252333E-01  0.38202639516E-01  0.51100000000E-03 0.  1.
</event>
<event>
 8    1  0.1063984E+005  0.1043930E+01  0.7957747E-01            NaN
         13   -1    0    0    0    0  0.00000000000E+00  0.00000000000E+00  0.74505805969E-08  0.10566000000E+00  0.10566000000E+00 0. -1.
     999900   -1    0    0    0    0 -0.00000000000E+00 -0.00000000000E+00 -0.74505805969E-08  0.93827000000E+00  0.93827000000E+00 0. -1.
     999902    2    1    2    0    0 -0.53485823740E-02  0.25438121263E-01 -0.73381234809E-03  0.10179253114E+01  0.10175930895E+01 0.  0.
     999903    2    3    3    0    0 -0.75438666757E-01 -0.50628389114E-01  0.87273706255E-01  0.12750739986E+00  0.19677677406E-01 0.  0.
         14    1    1    2    0    0  0.53485823740E-02 -0.25438121263E-01  0.73381234809E-03  0.26004688565E-01  0.00000000000E+00 0. -1.
     999901    1    3    3    0    0  0.70090084383E-01  0.76066510377E-01 -0.88007518603E-01  0.89041791158E+00  0.88000000000E+00 0. -1.
        -11    1    4    4    0    0 -0.10325453406E-01 -0.11661426957E-01  0.24440208336E-01  0.28986009922E-01  0.51100000000E-03 0.  1.
         11    1    4    4    0    0 -0.65113213352E-01 -0.38966962157E-01  0.62833497919E-01  0.98521389934E-01  0.51100000000E-03 0. -1.
</event>
<event>
 8    1  0.1063984E+005  0.1043930E+01  0.7957747E-01            NaN
         13   -1    0    0    0    0  0.00000000000E+00  0.00000000000E+00  0.74505805969E-08  0.10566000000E+00  0.10566000000E+00 0. -1.
     999900   -1    0    0    0    0 -0.00000000000E+00 -0.00000000000E+00 -0.74505805969E-08  0.93827000000E+00  0.93827000000E+00 0.  1.
     999902    2    1    2    0    0 -0.11067950565E-01 -0.17100979051E-01  0.11322738167E-01  0.10206244768E+01  0.10203583562E+01 0.  0.
     999903    2    3    3    0    0  0.98799389185E-01  0.64032223655E-02  0.82470871001E-01  0.13063271464E+00  0.21474194050E-01 0.  0.
         14    1    1    2    0    0  0.11067950565E-01  0.17100979051E-01 -0.11322738167E-01  0.23305523246E-01  0.00000000000E+00 0.  1.
     999901    1    3    3    0    0 -0.10986733975E+00 -0.23504201416E-01 -0.71148132834E-01  0.88999176212E+00  0.88000000000E+00 0.  1.
        -11    1    4    4    0    0  0.78478421550E-01  0.52841222990E-03  0.73914453731E-01  0.10780885613E+00  0.51100000000E-03 0. -1.
         11    1    4    4    0    0  0.20320967635E-01  0.58748101356E-02  0.85564172696E-02  0.22823858509E-01  0.51100000000E-03 0.  1.
</event>
<event>
 8    1  0.1063984E+005  0.1043930E+01  0.7957747E-01            NaN
         13   -1    0    0    0    0  0.00000000000E+00  0.00000000000E+00  0.74505805969E-08  0.10566000000E+00  0.10566000000E+00 0.  1.
     999900   -1    0    0    0    0 -0.00000000000E+00 -0.00000000000E+00 -0.74505805969E-08  0.93827000000E+00  0.93827000000E+00 0. -1.
     999902    2    1    2    0    0  0.13289073427E-01  0.10050951848E-02 -0.17814262021E-01  0.10216823570E+01  0.10214401015E+01 0.  0.
     999903    2    3    3    0    0  0.10827134336E+00 -0.43431021419E-01  0.58898902463E-01  0.13214252669E+00  0.19586455376E-01 0.  0.
         14    1    1    2    0    0 -0.13289073427E-01 -0.10050951848E-02  0.17814262021E-01  0.22247643026E-01  0.00000000000E+00 0.  1.
     999901    1    3    3    0    0 -0.94982269930E-01  0.44436116604E-01 -0.76713164484E-01  0.88953983029E+00  0.88000000000E+00 0.  1.
        -11    1    4    4    0    0  0.34308672035E-01 -0.22428963610E-01  0.15312724787E-01  0.43759388099E-01  0.51100000000E-03 0. -1.
         11    1    4    4    0    0  0.73962671322E-01 -0.21002057809E-01  0.43586177676E-01  0.88383138589E-01  0.51100000000E-03 0.  1.
</event>
<event>
 8    1  0.1063984E+005  0.1043930E+01  0.7957747E-01            NaN
         13   -1    0    0    0    0  0.00000000000E+00  0.00000000000E+00  0.74505805969E-08  0.10566000000E+00  0.10566000000E+00 0.  1.
     999900   -1    0    0    0    0 -0.00000000000E+00 -0.00000000000E+00 -0.74505805969E-08  0.93827000000E+00  0.93827000000E+00 0. -1.
     999902    2    1    2    0    0 -0.17816482317E-01  0.12344428232E-01  0.17717418034E-01  0.10159350209E+01  0.10155492346E+01 0.  0.
     999903    2    3    3    0    0  0.46570841130E-01  0.82222118333E-01 -0.80173556849E-01  0.12542322318E+00  0.19335607262E-01 0.  0.
         14    1    1    2    0    0  0.17816482317E-01 -0.12344428232E-01 -0.17717418034E-01  0.27994979056E-01  0.00000000000E+00 0. -1.
     999901    1    3    3    0    0 -0.64387323447E-01 -0.69877690101E-01  0.97890974884E-01  0.89051179776E+00  0.88000000000E+00 0.  1.
        -11    1    4    4    0    0  0.64435634173E-02  0.27566808743E-01 -0.18983817698E-01  0.34089513185E-01  0.51100000000E-03 0.  1.
         11    1    4    4    0    0  0.40127277712E-01  0.54655309589E-01 -0.61189739151E-01  0.91333709994E-01  0.51100000000E-03 0. -1.
</event>
<event>
 8    1  0.1063984E+005  0.1043930E+01  0.7957747E-01            NaN
         13   -1    0    0    0    0  0.00000000000E+00  0.00000000000E+00  0.74505805969E-08  0.10566000000E+00  0.10566000000E+00 0. -1.
     999900   -1    0    0    0    0 -0.00000000000E+00 -0.00000000000E+00 -0.74505805969E-08  0.93827000000E+00  0.93827000000E+00 0.  1.
     999902    2    1    2    0    0 -0.36609094161E-02  0.11608735002E-01  0.19988020128E-01  0.10205273092E+01  0.10202589392E+01 0.  0.
     999903    2    3    3    0    0  0.28198728163E-01  0.52071697855E-01  0.11773456438E+00  0.13361881634E+00  0.22043830009E-01 0.  0.
         14    1    1    2    0    0  0.36609094161E-02 -0.11608735002E-01 -0.19988020128E-01  0.23402690759E-01  0.00000000000E+00 0.  1.
     999901    1    3    3    0    0 -0.31859637579E-01 -0.40462962853E-01 -0.97746544255E-01  0.88690849290E+00  0.88000000000E+00 0.  1.
        -11    1    4    4    0    0  0.84265877145E-02  0.30514417706E-01  0.43293208038E-01  0.53634877195E-01  0.51100000000E-03 0.  1.
         11    1    4    4    0    0  0.19772140449E-01  0.21557280149E-01  0.74441356346E-01  0.79983939144E-01  0.51100000000E-03 0. -1.
</event>
<event>
 8    1  0.1063984E+005  0.1043930E+01  0.7957747E-01            NaN
         13   -1    0    0    0    0  0.00000000000E+00  0.00000000000E+00  0.74505805969E-08  0.10566000000E+00  0.10566000000E+00 0. -1.
     999900   -1    0    0    0    0 -0.00000000000E+00 -0.00000000000E+00 -0.74505805969E-08  0.93827000000E+00  0.93827000000E+00 0.  1.
     999902    2    1    2    0    0 -0.15218611680E-01 -0.13586833724E-01 -0.11526027069E-01  0.10204980242E+01  0.10202289742E+01 0.  0.
     999903    2    3    3    0    0 -0.72629049652E-01  0.10553295409E+00 -0.15325752682E-01  0.13061043566E+00  0.20298373248E-01 0.  0.
         14    1    1    2    0    0  0.15218611680E-01  0.13586833724E-01  0.11526027069E-01  0.23431975847E-01  0.00000000000E+00 0. -1.
     999901    1    3    3    0    0  0.57410437972E-01 -0.11911978781E+00  0.37997256133E-02  0.88988758849E+00  0.88000000000E+00 0. -1.
        -11    1    4    4    0    0 -0.50703354515E-01  0.70667071889E-01 -0.19727538091E-01  0.89185772905E-01  0.51100000000E-03 0. -1.
         11    1    4    4    0    0 -0.21925695137E-01  0.34865882198E-01  0.44017854086E-02  0.41424662756E-01  0.51100000000E-03 0.  1.
</event>
<event>
 8    1  0.1063984E+005  0.1043930E+01  0.7957747E-01            NaN
         13   -1    0    0    0    0  0.00000000000E+00  0.00000000000E+00  0.74505805969E-08  0.10566000000E+00  0.10566000000E+00 0. -1.
     999900   -1    0    0    0    0 -0.00000000000E+00 -0.00000000000E+00 -0.74505805969E-08  0.93827000000E+00  0.93827000000E+00 0.  1.
     999902    2    1    2    0    0 -0.21808756479E-01  0.43590254148E-02 -0.82088770787E-02  0.10202232789E+01  0.10199478076E+01 0.  0.
     999903    2    3    3    0    0 -0.47655279620E-01  0.10213830002E+00  0.64432735736E-01  0.13145692423E+00  0.20641886752E-01 0.  0.
         14    1    1    2    0    0  0.21808756479E-01 -0.43590254148E-02  0.82088770787E-02  0.23706721086E-01  0.00000000000E+00 0. -1.
     999901    1    3    3    0    0  0.25846523141E-01 -0.97779274601E-01 -0.72641612815E-01  0.88876635468E+00  0.88000000000E+00 0.  1.
        -11    1    4    4    0    0 -0.20244583361E-01  0.27145991063E-01  0.26789284330E-01  0.43181881179E-01  0.51100000000E-03 0.  1.
         11    1    4    4    0    0 -0.27410696259E-01  0.74992308953E-01  0.37643451406E-01  0.88275043055E-01  0.51100000000E-03 0. -1.
</event>
<event>
 7    1  0.1063984E+005  0.1043930E+01  0.7957747E-01            NaN
         13   -1    0    0    0    0  0.00000000000E+00  0.00000000000E+00  0.74505805969E-08  0.10566000000E+00  0.10566000000E+00 0. -1.
     999900   -1    0    0    0    0 -0.00000000000E+00 -0.00000000000E+00 -0.74505805969E-08  0.93827000000E+00  0.93827000000E+00 0. -1.
     999902    2    1    2    0    0 -0.11213003592E-01  0.20177836207E-01  0.58537755778E-02  0.10201152312E+01  0.10198372134E+01 0.  0.
         14    1    1    2    0    0  0.11213003592E-01 -0.20177836207E-01 -0.58537755778E-02  0.23814768781E-01  0.00000000000E+00 0.  1.
     999901    1    3    3    0    0  0.22424946374E-01 -0.10009503798E+00  0.62734543300E-02  0.88598038978E+00  0.88000000000E+00 0. -1.
        -11    1    3    3    0    0  0.62142794658E-02  0.48441525522E-01  0.13828088887E-01  0.50760967558E-01  0.51100000000E-03 0. -1.
         11    1    3    3    0    0 -0.39852229432E-01  0.71831348667E-01 -0.14247767639E-01  0.83373873880E-01  0.51100000000E-03 0.  1.
</event>
<event>
 8    1  0.1063984E+005  0.1043930E+01  0.7957747E-01            NaN
         13   -1    0    0    0    0  0.00000000000E+00  0.00000000000E+00  0.74505805969E-08  0.10566000000E+00  0.10566000000E+00 0.  1.
     999900   -1    0    0    0    0 -0.00000000000E+00 -0.00000000000E+00 -0.74505805969E-08  0.93827000000E+00  0.93827000000E+00 0.  1.
     999902    2    1    2    0    0  0.88221681032E-02  0.22398983895E-01  0.29138532589E-02  0.10196805532E+01  0.10193921693E+01 0.  0.
     999903    2    3    3    0    0  0.29279109761E-01 -0.43404847869E-01  0.11682975342E+00  0.12966624823E+00  0.20564473209E-01 0.  0.
         14    1    1    2    0    0 -0.88221681032E-02 -0.22398983895E-01 -0.29138532589E-02  0.24249446806E-01  0.00000000000E+00 0. -1.
     999901    1    3    3    0    0 -0.20456941658E-01  0.65803831764E-01 -0.11391590016E+00  0.89001430497E+00  0.88000000000E+00 0.  1.
        -11    1    4    4    0    0  0.38946112369E-02 -0.16641626923E-01  0.55722660143E-01  0.58287114508E-01  0.51100000000E-03 0.  1.
         11    1    4    4    0    0  0.25384498525E-01 -0.26763220946E-01  0.61107093277E-01  0.71379133719E-01  0.51100000000E-03 0. -1.
</event>
<event>
 8    1  0.1063984E+005  0.1043930E+01  0.7957747E-01            NaN
         13   -1    0    0    0    0  0.00000000000E+00  0.00000000000E+00  0.74505805969E-08  0.10566000000E+00  0.10566000000E+00 0.  1.
     999900   -1    0    0    0    0 -0.00000000000E+00 -0.00000000000E+00 -0.74505805969E-08  0.93827000000E+00  0.93827000000E+00 0.  1.
     999902    2    1    2    0    0  0.47002120031E-02  0.19320979134E-01 -0.11433766286E-01  0.10209926235E+01  0.10207349382E+01 0.  0.
     999903    2    3    3    0    0 -0.26781356868E-02  0.30790851500E-01  0.12505755865E+00  0.13036594542E+00  0.20015938706E-01 0.  0.
         14    1    1    2    0    0 -0.47002120031E-02 -0.19320979134E-01  0.11433766286E-01  0.22937376464E-01  0.00000000000E+00 0. -1.
     999901    1    3    3    0    0  0.73783476898E-02 -0.11469872366E-01 -0.13649132494E+00  0.89062667812E+00  0.88000000000E+00 0.  1.
        -11    1    4    4    0    0 -0.10656109257E-01  0.16326453121E-01  0.54065219742E-01  0.57475341171E-01  0.51100000000E-03 0.  1.
         11    1    4    4    0    0  0.79779735700E-02  0.14464398379E-01  0.70992338912E-01  0.72890604250E-01  0.51100000000E-03 0. -1.
</event>
<event>
 8    1  0.1063984E+005  0.1043930E+01  0.7957747E-01            NaN
         13   -1    0    0    0    0  0.00000000000E+00  0.00000000000E+00  0.74505805969E-08  0.10566000000E+00  0.10566000000E+00 0.  1.
     999900   -1    0    0    0    0 -0.00000000000E+00 -0.00000000000E+00 -0.74505805969E-08  0.93827000000E+00  0.93827000000E+00 0. -1.
     999902    2    1    2    0    0  0.57344117929E-02  0.12019322836E-01  0.19749793579E-01  0.10201097996E+01  0.10198316534E+01 0.  0.
     999903    2    3    3    0    0  0.46977518439E-01  0.79682476173E-01 -0.89080277487E-01  0.12987203332E+00  0.19371756606E-01 0.  0.
         14    1    1    2    0    0 -0.57344117929E-02 -0.12019322836E-01 -0.19749793579E-01  0.23820200387E-01  0.00000000000E+00 0. -1.
     999901    1    3    3    0    0 -0.41243106646E-01 -0.67663153337E-01  0.10883007107E+00  0.89023776629E+00  0.88000000000E+00 0.  1.
        -11    1    4    4    0    0  0.59614891086E-02  0.17427165056E-01 -0.91622692912E-02  0.20577991492E-01  0.51100000000E-03 0. -1.
         11    1    4    4    0    0  0.41016029330E-01  0.62255311117E-01 -0.79918008196E-01  0.10929404183E+00  0.51100000000E-03 0.  1.
</event>
<event>
 8    1  0.1063984E+005  0.1043930E+01  0.7957747E-01            NaN
         13   -1    0    0    0    0  0.00000000000E+00  0.00000000000E+00  0.74505805969E-08  0.10566000000E+00  0.10566000000E+00 0. -1.
     999900   -1    0    0    0    0 -0.00000000000E+00 -0.00000000000E+00 -0.74505805969E-08  0.93827000000E+00  0.93827000000E+00 0.  1.
     999902    2    1    2    0    0 -0.11590035216E-01 -0.57443691452E-02 -0.20021340514E-01  0.10200934573E+01  0.10198149248E+01 0.  0.
     999903    2    3    3    0    0 -0.12760348280E+00 -0.26643404020E-01  0.51238229483E-04  0.13200630046E+00  0.20812038200E-01 0.  0.
         14    1    1    2    0    0  0.11590035216E-01  0.57443691452E-02  0.20021340514E-01  0.23836542727E-01  0.00000000000E+00 0. -1.
     999901    1    3    3    0    0  0.11601344759E+00  0.20899034875E-01 -0.20072578743E-01  0.88808715681E+00  0.88000000000E+00 0. -1.
        -11    1    4    4    0    0 -0.10070632039E+00 -0.29525547861E-01 -0.36137263590E-03  0.10494718983E+00  0.51100000000E-03 0. -1.
         11    1    4    4    0    0 -0.26897162419E-01  0.28821438412E-02  0.41261086539E-03  0.27059110629E-01  0.51100000000E-03 0.  1.
</event>
<event>
 8    1  0.1063984E+005  0.1043930E+01  0.7957747E-01            NaN
         13   -1    0    0    0    0  0.00000000000E+00  0.00000000000E+00  0.74505805969E-08  0.10566000000E+00  0.10566000000E+00 0.  1.
     999900   -1    0    0    0    0 -0.00000000000E+00 -0.00000000000E+00 -0.74505805969E-08  0.93827000000E+00  0.93827000000E+00 0.  1.
     999902    2    1    2    0    0  0.74065031572E-02 -0.21966601315E-01 -0.21617755612E-02  0.10206477936E+01  0.10203822114E+01 0.  0.
     999903    2    3    3    0    0 -0.66634422895E-01 -0.84980369450E-01  0.74057260394E-01  0.13201843600E+00  0.16810119582E-01 0.  0.
         14    1    1    2    0    0 -0.74065031572E-02  0.21966601315E-01  0.21617755612E-02  0.23282206423E-01  0.00000000000E+00 0. -1.
     999901    1    3    3    0    0  0.74040926052E-01  0.63013768135E-01 -0.76219035955E-01  0.88862935758E+00  0.88000000000E+00 0. -1.
        -11    1    4    4    0    0 -0.56835832390E-01 -0.78774191113E-01  0.69949317022E-01  0.11970318752E+00  0.51100000000E-03 0. -1.
         11    1    4    4    0    0 -0.97985905051E-02 -0.62061783374E-02  0.41079433713E-02  0.12315248482E-01  0.51100000000E-03 0.  1.
</event>
<event>
 8    1  0.1063984E+005  0.1043930E+01  0.7957747E-01            NaN
         13   -1    0    0    0    0  0.00000000000E+00  0.00000000000E+00  0.74505805969E-08  0.10566000000E+00  0.10566000000E+00 0. -1.
     999900   -1    0    0    0    0 -0.00000000000E+00 -0.00000000000E+00 -0.74505805969E-08  0.93827000000E+00  0.93827000000E+00 0. -1.
     999902    2    1    2    0    0  0.86106144479E-02 -0.47639323318E-02 -0.21843269376E-01  0.10199724094E+01  0.10196910070E+01 0.  0.
     999903    2    3    3    0    0  0.56686794890E-02 -0.55069357173E-01  0.11381126488E+00  0.12815323295E+00  0.20136510971E-01 0.  0.
         14    1    1    2    0    0 -0.86106144479E-02  0.47639323318E-02  0.21843269376E-01  0.23957590644E-01  0.00000000000E+00 0. -1.
     999901    1    3    3    0    0  0.29419349589E-02  0.50305424841E-01 -0.13565453426E+00  0.89181917641E+00  0.88000000000E+00 0. -1.
        -11    1    4    4    0    0 -0.23453629063E-02 -0.20191165150E-01  0.61465719224E-01  0.64741637592E-01  0.51100000000E-03 0. -1.
         11    1    4    4    0    0  0.80140423953E-02 -0.34878192022E-01  0.52345545656E-01  0.63411595354E-01  0.51100000000E-03 0.  1.
</event>
<event>
 8    1  0.1063984E+005  0.1043930E+01  0.7957747E-01            NaN
         13   -1    0    0    0    0  0.00000000000E+00  0.00000000000E+00  0.74505805969E-08  0.10566000000E+00  0.10566000000E+00 0. -1.
     999900   -1    0    0    0    0 -0.00000000000E+00 -0.00000000000E+00 -0.74505805969E-08  0.93827000000E+00  0.93827000000E+00 0.  1.
     999902    2    1    2    0    0 -0.14173069235E-01  0.43330869855E-02 -0.17553422072E-01  0.10209566641E+01  0.10206981610E+01 0.  0.
     999903    2    3    3    0    0  0.86901804135E-01 -0.86989286443E-01  0.33037815285E-01  0.12903997564E+00  0.20994250561E-01 0.  0.
         14    1    1    2    0    0  0.14173069235E-01 -0.43330869855E-02  0.17553422072E-01  0.22973335866E-01  0.00000000000E+00 0. -1.
     999901    1    3    3    0    0 -0.10107487337E+00  0.91322373429E-01 -0.50591237357E-01  0.89191668849E+00  0.88000000000E+00 0.  1.
        -11    1    4    4    0    0  0.56015056616E-01 -0.68199755519E-01  0.19163316623E-01  0.90312718072E-01  0.51100000000E-03 0.  1.
         11    1    4    4    0    0  0.30886747519E-01 -0.18789530925E-01  0.13874498662E-01  0.38727257569E-01  0.51100000000E-03 0. -1.
</event>
<event>
 8    1  0.1063984E+005  0.1043930E+01  0.7957747E-01            NaN
         13   -1    0    0    0    0  0.00000000000E+00  0.00000000000E+00  0.74505805969E-08  0.10566000000E+00  0.10566000000E+00 0. -1.
     999900   -1    0    0    0    0 -0.00000000000E+00 -0.00000000000E+00 -0.74505805969E-08  0.93827000000E+00  0.93827000000E+00 0.  1.
     999902    2    1    2    0    0  0.18766283696E-01  0.83158240982E-02  0.67423515629E-02  0.10223247775E+01  0.10220964559E+01 0.  0.
     999903    2    3    3    0    0  0.13790675684E-01 -0.72340042592E-01  0.10849735539E+00  0.13278320664E+00  0.20891130676E-01 0.  0.
         14    1    1    2    0    0 -0.18766283696E-01 -0.83158240982E-02 -0.67423515629E-02  0.21605222488E-01  0.00000000000E+00 0.  1.
     999901    1    3    3    0    0  0.49756080116E-02  0.80655866690E-01 -0.10175500383E+00  0.88954157087E+00  0.88000000000E+00 0.  1.
        -11    1    4    4    0    0  0.18147367836E-01 -0.62894801253E-01  0.86818396517E-01  0.10873259897E+00  0.51100000000E-03 0. -1.
         11    1    4    4    0    0 -0.43566921522E-02 -0.94452413382E-02  0.21678958872E-01  0.24050607668E-01  0.51100000000E-03 0.  1.
</event>
<event>
 8    1  0.1063984E+005  0.1043930E+01  0.7957747E-01            NaN
         13   -1    0    0    0    0  0.00000000000E+00  0.00000000000E+00  0.74505805969E-08  0.10566000000E+00  0.10566000000E+00 0. -1.
     999900   -1    0    0    0    0 -0.00000000000E+00 -0.00000000000E+00 -0.74505805969E-08  0.93827000000E+00  0.93827000000E+00 0. -1.
     999902    2    1    2    0    0 -0.13107978248E-01  0.14791815041E-01  0.64123350890E-02  0.10231517679E+01  0.10229407634E+01 0.  0.
     999903    2    3    3    0    0  0.67077478540E-01 -0.75012516387E-01 -0.80957525593E-01  0.13066758435E+00  0.19840133728E-01 0.  0.
         14    1    1    2    0    0  0.13107978248E-01 -0.14791815041E-01 -0.64123350890E-02  0.20778232053E-01  0.00000000000E+00 0. -1.
     999901    1    3    3    0    0 -0.80185456788E-01  0.89804331428E-01  0.87369860682E-01  0.89248418360E+00  0.88000000000E+00 0. -1.
        -11    1    4    4    0    0  0.32549299357E-01 -0.22948859479E-01 -0.36121930546E-01  0.53769526940E-01  0.51100000000E-03 0. -1.
         11    1    4    4    0    0  0.34528179183E-01 -0.52063656908E-01 -0.44835595047E-01  0.76898057405E-01  0.51100000000E-03 0.  1.
</event>
<event>
 8    1  0.1063984E+005  0.1043930E+01  0.7957747E-01            NaN
         13   -1    0    0    0    0  0.00000000000E+00  0.00000000000E+00  0.74505805969E-08  0.10566000000E+00  0.10566000000E+00 0. -1.
     999900   -1    0    0    0    0 -0.00000000000E+00 -0.00000000000E+00 -0.74505805969E-08  0.93827000000E+00  0.93827000000E+00 0.  1.
     999902    2    1    2    0    0 -0.10092328514E-01  0.12721264021E-01 -0.17081664353E-01  0.10203616121E+01  0.10200893836E+01 0.  0.
     999903    2    3    3    0    0 -0.10993337413E+00  0.71376502447E-01 -0.16575708925E-02  0.13264173842E+00  0.20276374977E-01 0.  0.
         14    1    1    2    0    0  0.10092328514E-01 -0.12721264021E-01  0.17081664353E-01  0.23568387942E-01  0.00000000000E+00 0. -1.
     999901    1    3    3    0    0  0.99841045614E-01 -0.58655238425E-01 -0.15424093461E-01  0.88771987363E+00  0.88000000000E+00 0.  1.
        -11    1    4    4    0    0 -0.50525804364E-01  0.44869788353E-01 -0.11408977739E-02  0.67584891671E-01  0.51100000000E-03 0.  1.
         11    1    4    4    0    0 -0.59407569765E-01  0.26506714094E-01 -0.51667311862E-03  0.65056846754E-01  0.51100000000E-03 0. -1.
</event>
<event>
 8    1  0.1063984E+005  0.1043930E+01  0.7957747E-01            NaN
         13   -1    0    0    0    0  0.00000000000E+00  0.00000000000E+00  0.74505805969E-08  0.10566000000E+00  0.10566000000E+00 0. -1.
     999900   -1    0    0    0    0 -0.00000000000E+00 -0.00000000000E+00 -0.74505805969E-08  0.93827000000E+00  0.93827000000E+00 0.  1.
     999902    2    1    2    0    0  0.78736884634E-02 -0.21828075370E-01  0.53133876649E-03  0.10207191800E+01  0.10204552426E+01 0.  0.
     999903    2    3    3    0    0  0.36865566949E-01 -0.12460791407E+00 -0.25627119702E-01  0.13387731742E+00  0.19498322519E-01 0.  0.
         14    1    1    2    0    0 -0.78736884634E-02  0.21828075370E-01 -0.53133876649E-03  0.23210820004E-01  0.00000000000E+00 0. -1.
     999901    1    3    3    0    0 -0.28991878485E-01  0.10277983870E+00  0.26158458468E-01  0.88684186257E+00  0.88000000000E+00 0. -1.
        -11    1    4    4    0    0  0.30032278208E-01 -0.78447637431E-01 -0.96591768771E-02  0.84554895611E-01  0.51100000000E-03 0. -1.
         11    1    4    4    0    0  0.68332887402E-02 -0.46160276639E-01 -0.15967942825E-01  0.49322421813E-01  0.51100000000E-03 0.  1.
</event>
<event>
 8    1  0.1063984E+005  0.1043930E+01  0.7957747E-01            NaN
         13   -1    0    0    0    0  0.00000000000E+00  0.00000000000E+00  0.74505805969E-08  0.10566000000E+00  0.10566000000E+00 0.  1.
     999900   -1    0    0    0    0 -0.00000000000E+00 -0.00000000000E+00 -0.74505805969E-08  0.93827000000E+00  0.93827000000E+00 0. -1.
     999902    2    1    2    0    0 -0.14388652112E-01  0.18273729742E-01 -0.45841122331E-02  0.10202239545E+01  0.10199484991E+01 0.  0.
     999903    2    3    3    0    0 -0.34782997841E-01  0.72521988780E-01  0.10346720450E+00  0.13172303160E+00  0.13273991510E-01 0.  0.
         14    1    1    2    0    0  0.14388652112E-01 -0.18273729742E-01  0.45841122331E-02  0.23706045500E-01  0.00000000000E+00 0.  1.
     999901    1    3    3    0    0  0.20394345730E-01 -0.54248259038E-01 -0.10805131674E+00  0.88850092290E+00  0.88000000000E+00 0. -1.
        -11    1    4    4    0    0 -0.16192998483E-01  0.47395690568E-01  0.67815714961E-01  0.84307751725E-01  0.51100000000E-03 0.  1.
         11    1    4    4    0    0 -0.18589999358E-01  0.25126298212E-01  0.35651489543E-01  0.47415279875E-01  0.51100000000E-03 0. -1.
</event>
<event>
 8    1  0.1063984E+005  0.1043930E+01  0.7957747E-01            NaN
         13   -1    0    0    0    0  0.00000000000E+00  0.00000000000E+00  0.74505805969E-08  0.10566000000E+00  0.10566000000E+00 0. -1.
     999900   -1    0    0    0    0 -0.00000000000E+00 -0.00000000000E+00 -0.74505805969E-08  0.93827000000E+00  0.93827000000E+00 0.  1.
     999902    2    1    2    0    0 -0.75668382866E-02 -0.12829811111E-01  0.18447225104E-01  0.10202200610E+01  0.10199445140E+01 0.  0.
     999903    2    3    3    0    0 -0.10919382742E+00  0.62160953857E-01  0.32052308795E-01  0.13109872051E+00  0.19293726720E-01 0.  0.
         14    1    1    2    0    0  0.75668382866E-02  0.12829811111E-01 -0.18447225104E-01  0.23709939030E-01  0.00000000000E+00 0. -1.
     999901    1    3    3    0    0  0.10162698913E+00 -0.74990764967E-01 -0.13605083691E-01  0.88912134046E+00  0.88000000000E+00 0.  1.
        -11    1    4    4    0    0 -0.85070660683E-01  0.54500062305E-01  0.19719058979E-01  0.10293870267E+00  0.51100000000E-03 0. -1.
         11    1    4    4    0    0 -0.24123166736E-01  0.76608915515E-02  0.12333249816E-01  0.28160017840E-01  0.51100000000E-03 0.  1.
</event>
<event>
 8    1  0.1063984E+005  0.1043930E+01  0.7957747E-01            NaN
         13   -1    0    0    0    0  0.00000000000E+00  0.00000000000E+00  0.74505805969E-08  0.10566000000E+00  0.10566000000E+00 0.  1.
     999900   -1    0    0    0    0 -0.00000000000E+00 -0.00000000000E+00 -0.74505805969E-08  0.93827000000E+00  0.93827000000E+00 0.  1.
     999902    2    1    2    0    0 -0.14784374126E-01 -0.59353447255E-02 -0.18084622485E-01  0.10198289709E+01  0.10195441482E+01 0.  0.
     999903    2    3    3    0    0  0.39291554357E-01 -0.64691257183E-01  0.10172674094E+00  0.12812766095E+00  0.18427769205E-01 0.  0.
         14    1    1    2    0    0  0.14784374126E-01  0.59353447255E-02  0.18084622485E-01  0.24101029143E-01  0.00000000000E+00 0.  1.
     999901    1    3    3    0    0 -0.54075928483E-01  0.58755912458E-01 -0.11981136342E+00  0.89170130991E+00  0.88000000000E+00 0. -1.
        -11    1    4    4    0    0  0.24369406265E-01 -0.25015552588E-01  0.38255579288E-01  0.51801508671E-01  0.51100000000E-03 0. -1.
         11    1    4    4    0    0  0.14922148092E-01 -0.39675704596E-01  0.63471161652E-01  0.76326152276E-01  0.51100000000E-03 0.  1.
</event>
<event>
 8    1  0.1063984E+005  0.1043930E+01  0.7957747E-01            NaN
         13   -1    0    0    0    0  0.00000000000E+00  0.00000000000E+00  0.74505805969E-08  0.10566000000E+00  0.10566000000E+00 0. -1.
     999900   -1    0    0    0    0 -0.00000000000E+00 -0.00000000000E+00 -0.74505805969E-08  0.93827000000E+00  0.93827000000E+00 0.  1.
     999902    2    1    2    0    0 -0.11091075329E-01  0.11044935242E-01 -0.17325760060E-01  0.10205808135E+01  0.10203136834E+01 0.  0.
     999903    2    3    3    0    0  0.11188220557E+00 -0.49586488989E-01 -0.38735718117E-01  0.12970653301E+00  0.18624742485E-01 0.  0.
         14    1    1    2    0    0  0.11091075329E-01 -0.11044935242E-01  0.17325760060E-01  0.23349186455E-01  0.00000000000E+00 0. -1.
     999901    1    3    3    0    0 -0.12297328090E+00  0.60631424232E-01  0.21409958056E-01  0.89087428054E+00  0.88000000000E+00 0. -1.
        -11    1    4    4    0    0  0.23300499958E-01 -0.19008450490E-01 -0.92895729574E-02  0.31476845063E-01  0.51100000000E-03 0.  1.
         11    1    4    4    0    0  0.88581705614E-01 -0.30578038499E-01 -0.29446145159E-01  0.98229687944E-01  0.51100000000E-03 0. -1.
</event>
<event>
 8    1  0.1063984E+005  0.1043930E+01  0.7957747E-01            NaN
         13   -1    0    0    0    0  0.00000000000E+00  0.00000000000E+00  0.74505805969E-08  0.10566000000E+00  0.10566000000E+00 0. -1.
     999900   -1    0    0    0    0 -0.00000000000E+00 -0.00000000000E+00 -0.74505805969E-08  0.93827000000E+00  0.93827000000E+00 0.  1.
     999902    2    1    2    0    0 -0.80291064547E-03  0.23801025717E-01 -0.17280020073E-03  0.10201148084E+01  0.10198367806E+01 0.  0.
     999903    2    3    3    0    0  0.93546989401E-01  0.91311079521E-01 -0.70474309580E-02  0.13247368073E+00  0.20269615999E-01 0.  0.
         14    1    1    2    0    0  0.80291064547E-03 -0.23801025717E-01  0.17280020073E-03  0.23815191592E-01  0.00000000000E+00 0. -1.
     999901    1    3    3    0    0 -0.94349900047E-01 -0.67510053804E-01  0.68746307572E-02  0.88764112768E+00  0.88000000000E+00 0.  1.
        -11    1    4    4    0    0  0.68725210417E-01  0.73280415050E-01 -0.12726352769E-01  0.10126892392E+00  0.51100000000E-03 0. -1.
         11    1    4    4    0    0  0.24821778985E-01  0.18030664471E-01  0.56789218108E-02  0.31204756804E-01  0.51100000000E-03 0.  1.
</event>
<event>
 8    1  0.1063984E+005  0.1043930E+01  0.7957747E-01            NaN
         13   -1    0    0    0    0  0.00000000000E+00  0.00000000000E+00  0.74505805969E-08  0.10566000000E+00  0.10566000000E+00 0. -1.
     999900   -1    0    0    0    0 -0.00000000000E+00 -0.00000000000E+00 -0.74505805969E-08  0.93827000000E+00  0.93827000000E+00 0. -1.
     999902    2    1    2    0    0 -0.19149413516E-01  0.11851898777E-01 -0.78428803083E-02  0.10200830230E+01  0.10198042437E+01 0.  0.
     999903    2    3    3    0    0  0.46779767431E-01 -0.81695586192E-01  0.84405464588E-01  0.12789047312E+00  0.19213932931E-01 0.  0.
         14    1    1    2    0    0  0.19149413516E-01 -0.11851898777E-01  0.78428803083E-02  0.23846977045E-01  0.00000000000E+00 0. -1.
     999901    1    3    3    0    0 -0.65929180947E-01  0.93547484969E-01 -0.92248344896E-01  0.89219254983E+00  0.88000000000E+00 0. -1.
        -11    1    4    4    0    0  0.16042530166E-01 -0.23841311926E-01  0.37821124874E-01  0.47502310851E-01  0.51100000000E-03 0.  1.
         11    1    4    4    0    0  0.30737237264E-01 -0.57854274266E-01  0.46584339714E-01  0.80388162269E-01  0.51100000000E-03 0. -1.
</event>
<event>
 8    1  0.1063984E+005  0.1043930E+01  0.7957747E-01            NaN
         13   -1    0    0    0    0  0.00000000000E+00  0.00000000000E+00  0.74505805969E-08  0.10566000000E+00  0.10566000000E+00 0.  1.
     999900   -1    0    0    0    0 -0.00000000000E+00 -0.00000000000E+00 -0.74505805969E-08  0.93827000000E+00  0.93827000000E+00 0.  1.
     999902    2    1    2    0    0  0.11453476436E-01 -0.18313348159E-01 -0.66997927407E-02  0.10213147824E+01  0.10210643646E+01 0.  0.
     999903    2    3    3    0    0  0.10346563338E+00  0.44154957115E-01 -0.66657036002E-01  0.13229093729E+00  0.20073218809E-01 0.  0.
         14    1    1    2    0    0 -0.11453476436E-01  0.18313348159E-01  0.66997927407E-02  0.22615217577E-01  0.00000000000E+00 0. -1.
     999901    1    3    3    0    0 -0.92012156942E-01 -0.62468305275E-01  0.59957243261E-01  0.88902384513E+00  0.88000000000E+00 0. -1.
        -11    1    4    4    0    0  0.10896287881E-01  0.54143143837E-02 -0.15322798203E-01  0.19572765661E-01  0.51100000000E-03 0. -1.
         11    1    4    4    0    0  0.92569345497E-01  0.38740642732E-01 -0.51334237799E-01  0.11271817163E+00  0.51100000000E-03 0.  1.
</event>
<event>
 8    1  0.1063984E+005  0.1043930E+01  0.7957747E-01            NaN
         13   -1    0    0    0    0  0.00000000000E+00  0.00000000000E+00  0.74505805969E-08  0.10566000000E+00  0.10566000000E+00 0. -1.
     999900   -1    0    0    0    0 -0.00000000000E+00 -0.00000000000E+00 -0.74505805969E-08  0.93827000000E+00  0.93827000000E+00 0. -1.
     999902    2    1    2    0    0 -0.18303084901E-01 -0.17441438829E-02 -0.34943718819E-02  0.10252148834E+01  0.10250440486E+01 0.  0.
     999903    2    3    3    0    0  0.73909844358E-01 -0.10922466739E+00  0.10368552446E-01  0.13378487048E+00  0.19954739520E-01 0.  0.
         14    1    1    2    0    0  0.18303084901E-01  0.17441438829E-02  0.34943718819E-02  0.18715116607E-01  0.00000000000E+00 0. -1.
     999901    1    3    3    0    0 -0.92212929259E-01  0.10748052351E+00 -0.13862924328E-01  0.89143001292E+00  0.88000000000E+00 0. -1.
        -11    1    4    4    0    0  0.57973415287E-01 -0.78831546317E-01  0.15522497137E-01  0.99078446764E-01  0.51100000000E-03 0. -1.
         11    1    4    4    0    0  0.15936429072E-01 -0.30393121073E-01 -0.51539446916E-02  0.34706423713E-01  0.51100000000E-03 0.  1.
</event>
<event>
 8    1  0.1063984E+005  0.1043930E+01  0.7957747E-01            NaN
         13   -1    0    0    0    0  0.00000000000E+00  0.00000000000E+00  0.74505805969E-08  0.10566000000E+00  0.10566000000E+00 0. -1.
     999900   -1    0    0    0    0 -0.00000000000E+00 -0.00000000000E+00 -0.74505805969E-08  0.93827000000E+00  0.93827000000E+00 0.  1.
     999902    2    1    2    0    0 -0.43699557926E-02  0.19988292810E-01  0.11547375130E-01  0.10204359532E+01  0.10201654593E+01 0.  0.
     999903    2    3    3    0    0  0.10234847461E+00  0.80586566065E-01 -0.20142806323E-02  0.13181629742E+00  0.20051784306E-01 0.  0.
         14    1    1    2    0    0  0.43699557926E-02 -0.19988292810E-01 -0.11547375130E-01  0.23494046810E-01  0.00000000000E+00 0. -1.
     999901    1    3    3    0    0 -0.10671843041E+00 -0.60598273255E-01  0.13561655763E-01  0.88861965577E+00  0.88000000000E+00 0.  1.
        -11    1    4    4    0    0  0.56539386337E-01  0.56796066370E-01  0.31724919621E-03  0.80142729742E-01  0.51100000000E-03 0. -1.
         11    1    4    4    0    0  0.45809088277E-01  0.23790499694E-01 -0.23315298285E-02  0.51673567680E-01  0.51100000000E-03 0.  1.
</event>
<event>
 8    1  0.1063984E+005  0.1043930E+01  0.7957747E-01            NaN
         13   -1    0    0    0    0  0.00000000000E+00  0.00000000000E+00  0.74505805969E-08  0.10566000000E+00  0.10566000000E+00 0.  1.
     999900   -1    0    0    0    0 -0.00000000000E+00 -0.00000000000E+00 -0.74505805969E-08  0.93827000000E+00  0.93827000000E+00 0.  1.
     999902    2    1    2    0    0 -0.23253850615E-01 -0.47716336578E-02  0.48907695348E-02  0.10196930513E+01  0.10194049682E+01 0.  0.
     999903    2    3    3    0    0  0.48638067690E-01  0.40598582649E-01  0.11093850170E+00  0.12925887296E+00  0.19662109174E-01 0.  0.
         14    1    1    2    0    0  0.23253850615E-01  0.47716336578E-02 -0.48907695348E-02  0.24236948711E-01  0.00000000000E+00 0. -1.
     999901    1    3    3    0    0 -0.71891918304E-01 -0.45370216307E-01 -0.10604773216E+00  0.89043417833E+00  0.88000000000E+00 0.  1.
        -11    1    4    4    0    0  0.28981640152E-01  0.17376273554E-01  0.42037067069E-01  0.53937431134E-01  0.51100000000E-03 0. -1.
         11    1    4    4    0    0  0.19656427537E-01  0.23222309094E-01  0.68901434630E-01  0.75321441823E-01  0.51100000000E-03 0.  1.
</event>
<event>
 8    1  0.1063984E+005  0.1043930E+01  0.7957747E-01            NaN
         13   -1    0    0    0    0  0.00000000000E+00  0.00000000000E+00  0.74505805969E-08  0.10566000000E+00  0.10566000000E+00 0.  1.
     999900   -1    0    0    0    0 -0.00000000000E+00 -0.00000000000E+00 -0.74505805969E-08  0.93827000000E+00  0.93827000000E+00 0. -1.
     999902    2    1    2    0    0 -0.21483015516E-01  0.32025671658E-02 -0.86116868481E-02  0.10205646936E+01  0.10202971902E+01 0.  0.
     999903    2    3    3    0    0  0.55789658607E-01 -0.41757362187E-01  0.10591438458E+00  0.12865175927E+00  0.21846166681E-01 0.  0.
         14    1    1    2    0    0  0.21483015516E-01 -0.32025671658E-02  0.86116868481E-02  0.23365306385E-01  0.00000000000E+00 0.  1.
     999901    1    3    3    0    0 -0.77272674123E-01  0.44959929353E-01 -0.11452607143E+00  0.89191293434E+00  0.88000000000E+00 0. -1.
        -11    1    4    4    0    0  0.21374141579E-01 -0.60397544357E-02  0.44240075835E-01  0.49505332974E-01  0.51100000000E-03 0.  1.
         11    1    4    4    0    0  0.34415517028E-01 -0.35717607751E-01  0.61674308742E-01  0.79146426297E-01  0.51100000000E-03 0. -1.
</event>
<event>
 8    1  0.1063984E+005  0.1043930E+01  0.7957747E-01            NaN
         13   -1    0    0    0    0  0.00000000000E+00  0.00000000000E+00  0.74505805969E-08  0.10566000000E+00  0.10566000000E+00 0. -1.
     999900   -1    0    0    0    0 -0.00000000000E+00 -0.00000000000E+00 -0.74505805969E-08  0.93827000000E+00  0.93827000000E+00 0. -1.
     999902    2    1    2    0    0 -0.18694358061E-01  0.11083561159E-01 -0.10474251332E-01  0.10198046131E+01  0.10195192076E+01 0.  0.
     999903    2    3    3    0    0 -0.12371938189E+00 -0.12539642191E-01  0.38906510516E-01  0.13187062289E+00  0.20308041244E-01 0.  0.
         14    1    1    2    0    0  0.18694358061E-01 -0.11083561159E-01  0.10474251332E-01  0.24125386882E-01  0.00000000000E+00 0. -1.
     999901    1    3    3    0    0  0.10502502383E+00  0.23623203350E-01 -0.49380761848E-01  0.88793399023E+00  0.88000000000E+00 0. -1.
        -11    1    4    4    0    0 -0.10277706194E+00 -0.17880758358E-01  0.30684510943E-01  0.10874118959E+00  0.51100000000E-03 0. -1.
         11    1    4    4    0    0 -0.20942319945E-01  0.53411161671E-02  0.82219995729E-02  0.23129433295E-01  0.51100000000E-03 0.  1.
</event>
<event>
 8    1  0.1063984E+005  0.1043930E+01  0.7957747E-01            NaN
         13   -1    0    0    0    0  0.00000000000E+00  0.00000000000E+00  0.74505805969E-08  0.10566000000E+00  0.10566000000E+00 0.  1.
     999900   -1    0    0    0    0 -0.00000000000E+00 -0.00000000000E+00 -0.74505805969E-08  0.93827000000E+00  0.93827000000E+00 0. -1.
     999902    2    1    2    0    0  0.19106905613E-01  0.14587808576E-01  0.17418892066E-02  0.10198278802E+01  0.10195430315E+01 0.  0.
     999903    2    3    3    0    0 -0.10572016558E+00 -0.67500515609E-01 -0.13177630705E-01  0.12711130549E+00  0.15829119251E-01 0.  0.
         14    1    1    2    0    0 -0.19106905613E-01 -0.14587808576E-01 -0.17418892066E-02  0.24102119807E-01  0.00000000000E+00 0. -1.
     999901    1    3    3    0    0  0.12482707119E+00  0.82088324185E-01  0.14919519912E-01  0.89271657470E+00  0.88000000000E+00 0.  1.
        -11    1    4    4    0    0 -0.87737877096E-01 -0.60672049962E-01 -0.70048742520E-02  0.10690351775E+00  0.51100000000E-03 0.  1.
         11    1    4    4    0    0 -0.17982288481E-01 -0.68284656465E-02 -0.61727564530E-02  0.20207787739E-01  0.51100000000E-03 0. -1.
</event>
<event>
 8    1  0.1063984E+005  0.1043930E+01  0.7957747E-01            NaN
         13   -1    0    0    0    0  0.00000000000E+00  0.00000000000E+00  0.74505805969E-08  0.10566000000E+00  0.10566000000E+00 0.  1.
     999900   -1    0    0    0    0 -0.00000000000E+00 -0.00000000000E+00 -0.74505805969E-08  0.93827000000E+00  0.93827000000E+00 0. -1.
     999902    2    1    2    0    0 -0.18057280252E-01  0.15276398566E-01 -0.67227226610E-02  0.10193408007E+01  0.10190441792E+01 0.  0.
     999903    2    3    3    0    0 -0.12479158776E+00  0.27451234052E-01  0.26892399330E-01  0.13217090971E+00  0.20480175911E-01 0.  0.
         14    1    1    2    0    0  0.18057280252E-01 -0.15276398566E-01  0.67227226610E-02  0.24589199321E-01  0.00000000000E+00 0. -1.
     999901    1    3    3    0    0  0.10673430751E+00 -0.12174835486E-01 -0.33615121991E-01  0.88716989097E+00  0.88000000000E+00 0.  1.
        -11    1    4    4    0    0 -0.66990587587E-01  0.86914678645E-02  0.22657018717E-01  0.71252242470E-01  0.51100000000E-03 0.  1.
         11    1    4    4    0    0 -0.57801000171E-01  0.18759766187E-01  0.42353806133E-02  0.60918667239E-01  0.51100000000E-03 0. -1.
</event>
<event>
 8    1  0.1063984E+005  0.1043930E+01  0.7957747E-01            NaN
         13   -1    0    0    0    0  0.00000000000E+00  0.00000000000E+00  0.74505805969E-08  0.10566000000E+00  0.10566000000E+00 0.  1.
     999900   -1    0    0    0    0 -0.00000000000E+00 -0.00000000000E+00 -0.74505805969E-08  0.93827000000E+00  0.93827000000E+00 0. -1.
     999902    2    1    2    0    0  0.53788629278E-02 -0.72998590238E-02  0.20594730923E-01  0.10214274879E+01  0.10211795875E+01 0.  0.
     999903    2    3    3    0    0 -0.32470405808E-01 -0.24959072381E-01  0.12607877668E+00  0.13414438830E+00  0.20532326607E-01 0.  0.
         14    1    1    2    0    0 -0.53788629278E-02  0.72998590238E-02 -0.20594730923E-01  0.22502512081E-01  0.00000000000E+00 0. -1.
     999901    1    3    3    0    0  0.37849268735E-01  0.17659213357E-01 -0.10548404576E+00  0.88728309962E+00  0.88000000000E+00 0. -1.
        -11    1    4    4    0    0 -0.21746337661E-01 -0.98739692582E-02  0.44667940329E-01  0.50654560355E-01  0.51100000000E-03 0.  1.
         11    1    4    4    0    0 -0.10724068146E-01 -0.15085103123E-01  0.81410836351E-01  0.83489827945E-01  0.51100000000E-03 0. -1.
</event>
<event>
 8    1  0.1063984E+005  0.1043930E+01  0.7957747E-01            NaN
         13   -1    0    0    0    0  0.00000000000E+00  0.00000000000E+00  0.74505805969E-08  0.10566000000E+00  0.10566000000E+00 0.  1.
     999900   -1    0    0    0    0 -0.00000000000E+00 -0.00000000000E+00 -0.74505805969E-08  0.93827000000E+00  0.93827000000E+00 0. -1.
     999902    2    1    2    0    0 -0.12985618799E-01 -0.10516605702E-02 -0.19072922197E-01  0.10208321939E+01  0.10205708498E+01 0.  0.
     999903    2    3    3    0    0 -0.77101556165E-01 -0.86449719227E-01 -0.62598247306E-01  0.13330859659E+00  0.20843162974E-01 0.  0.
         14    1    1    2    0    0  0.12985618799E-01  0.10516605702E-02  0.19072922197E-01  0.23097806101E-01  0.00000000000E+00 0.  1.
     999901    1    3    3    0    0  0.64115937366E-01  0.85398058657E-01  0.43525325110E-01  0.88752359730E+00  0.88000000000E+00 0. -1.
        -11    1    4    4    0    0 -0.30358062159E-01 -0.33749405812E-01 -0.36259921873E-01  0.58100579911E-01  0.51100000000E-03 0.  1.
         11    1    4    4    0    0 -0.46743494006E-01 -0.52700313415E-01 -0.26338325433E-01  0.75208016684E-01  0.51100000000E-03 0. -1.
</event>
<event>
 8    1  0.1063984E+005  0.1043930E+01  0.7957747E-01            NaN
         13   -1    0    0    0    0  0.00000000000E+00  0.00000000000E+00  0.74505805969E-08  0.10566000000E+00  0.10566000000E+00 0.  1.
     999900   -1    0    0    0    0 -0.00000000000E+00 -0.00000000000E+00 -0.74505805969E-08  0.93827000000E+00  0.93827000000E+00 0.  1.
     999902    2    1    2    0    0  0.33887809924E-02  0.12979166509E-01 -0.20145070713E-01  0.10197273870E+01  0.10194401294E+01 0.  0.
     999903    2    3    3    0    0  0.11995167747E+00  0.48596052267E-01  0.27473143915E-02  0.13103197652E+00  0.20294085619E-01 0.  0.
         14    1    1    2    0    0 -0.33887809924E-02 -0.12979166509E-01  0.20145070713E-01  0.24202612956E-01  0.00000000000E+00 0.  1.
     999901    1    3    3    0    0 -0.11656289648E+00 -0.35616885758E-01 -0.22892385104E-01  0.88869541052E+00  0.88000000000E+00 0. -1.
        -11    1    4    4    0    0  0.65998695327E-01  0.16360436239E-01  0.45948969896E-02  0.68153252733E-01  0.51100000000E-03 0.  1.
         11    1    4    4    0    0  0.53952982143E-01  0.32235616029E-01 -0.18475825982E-02  0.62878723789E-01  0.51100000000E-03 0. -1.
</event>
<event>
 8    1  0.1063984E+005  0.1043930E+01  0.7957747E-01            NaN
         13   -1    0    0    0    0  0.00000000000E+00  0.00000000000E+00  0.74505805969E-08  0.10566000000E+00  0.10566000000E+00 0. -1.
     999900   -1    0    0    0    0 -0.00000000000E+00 -0.00000000000E+00 -0.74505805969E-08  0.93827000000E+00  0.93827000000E+00 0.  1.
     999902    2    1    2    0    0  0.10063496799E-01  0.14549498864E-01 -0.16306947603E-01  0.10198701075E+01  0.10195862680E+01 0.  0.
     999903    2    3    3    0    0 -0.63147270033E-01 -0.82928694777E-01  0.70287488878E-01  0.12725573893E+00  0.19721710589E-01 0.  0.
         14    1    1    2    0    0 -0.10063496799E-01 -0.14549498864E-01  0.16306947603E-01  0.24059892459E-01  0.00000000000E+00 0. -1.
     999901    1    3    3    0    0  0.73210766832E-01  0.97478193641E-01 -0.86594436481E-01  0.89261436861E+00  0.88000000000E+00 0.  1.
        -11    1    4    4    0    0 -0.41622643222E-01 -0.47942347974E-01  0.52922732241E-01  0.82655851983E-01  0.51100000000E-03 0. -1.
         11    1    4    4    0    0 -0.21524626811E-01 -0.34986346802E-01  0.17364756637E-01  0.44599886950E-01  0.51100000000E-03 0.  1.
</event>
<event>
 8    1  0.1063984E+005  0.1043930E+01  0.7957747E-01            NaN
         13   -1    0    0    0    0  0.00000000000E+00  0.00000000000E+00  0.74505805969E-08  0.10566000000E+00  0.10566000000E+00 0. -1.
     999900   -1    0    0    0    0 -0.00000000000E+00 -0.00000000000E+00 -0.74505805969E-08  0.93827000000E+00  0.93827000000E+00 0. -1.
     999902    2    1    2    0    0  0.21828953558E-02  0.20493272483E-01 -0.11435470732E-01  0.10203607565E+01  0.10200885080E+01 0.  0.
     999903    2    3    3    0    0  0.31695558391E-01  0.12015658105E+00 -0.44618251265E-01  0.13362242457E+00  0.20541460794E-01 0.  0.
         14    1    1    2    0    0 -0.21828953558E-02 -0.20493272483E-01  0.11435470732E-01  0.23569243519E-01  0.00000000000E+00 0. -1.
     999901    1    3    3    0    0 -0.29512663035E-01 -0.99663308565E-01  0.33182780532E-01  0.88673833191E+00  0.88000000000E+00 0. -1.
        -11    1    4    4    0    0  0.16388608013E-01  0.86172116606E-01 -0.23636447304E-01  0.90846920229E-01  0.51100000000E-03 0.  1.
         11    1    4    4    0    0  0.15306950378E-01  0.33984464442E-01 -0.20981803961E-01  0.42775504342E-01  0.51100000000E-03 0. -1.
</event>
<event>
 8    1  0.1063984E+005  0.1043930E+01  0.7957747E-01            NaN
         13   -1    0    0    0    0  0.00000000000E+00  0.00000000000E+00  0.74505805969E-08  0.10566000000E+00  0.10566000000E+00 0.  1.
     999900   -1    0    0    0    0 -0.00000000000E+00 -0.00000000000E+00 -0.74505805969E-08  0.93827000000E+00  0.93827000000E+00 0.  1.
     999902    2    1    2    0    0  0.16972292111E-01 -0.14529246203E-01 -0.11828828008E-01  0.10186499908E+01  0.10183362533E+01 0.  0.
     999903    2    3    3    0    0 -0.71904390904E-01  0.94830088076E-01  0.36708551527E-01  0.12611741098E+00  0.19877036005E-01 0.  0.
         14    1    1    2    0    0 -0.16972292111E-01  0.14529246203E-01  0.11828828008E-01  0.25280009233E-01  0.00000000000E+00 0.  1.
     999901    1    3    3    0    0  0.88876683015E-01 -0.10935933428E+00 -0.48537379535E-01  0.89253257979E+00  0.88000000000E+00 0.  1.
        -11    1    4    4    0    0 -0.99807462175E-02  0.10631576667E-01 -0.18602241088E-02  0.14709428004E-01  0.51100000000E-03 0.  1.
         11    1    4    4    0    0 -0.61923644686E-01  0.84198511409E-01  0.38568775636E-01  0.11140798297E+00  0.51100000000E-03 0. -1.
</event>
<event>
 8    1  0.1063984E+005  0.1043930E+01  0.7957747E-01            NaN
         13   -1    0    0    0    0  0.00000000000E+00  0.00000000000E+00  0.74505805969E-08  0.10566000000E+00  0.10566000000E+00 0.  1.
     999900   -1    0    0    0    0 -0.00000000000E+00 -0.00000000000E+00 -0.74505805969E-08  0.93827000000E+00  0.93827000000E+00 0. -1.
     999902    2    1    2    0    0  0.15161130607E-01  0.13982563048E-01 -0.10131675403E-01  0.10209512534E+01  0.10206926271E+01 0.  0.
     999903    2    3    3    0    0 -0.86954310193E-01 -0.85322292395E-01 -0.35465043227E-01  0.12913804585E+00  0.24039965772E-01 0.  0.
         14    1    1    2    0    0 -0.15161130607E-01 -0.13982563048E-01  0.10131675403E-01  0.22978746640E-01  0.00000000000E+00 0.  1.
     999901    1    3    3    0    0  0.10211544080E+00  0.99304855443E-01  0.25333367824E-01  0.89181320751E+00  0.88000000000E+00 0.  1.
        -11    1    4    4    0    0 -0.31930308568E-01 -0.21587468896E-01 -0.20355051359E-01  0.43590740478E-01  0.51100000000E-03 0.  1.
         11    1    4    4    0    0 -0.55024001625E-01 -0.63734823498E-01 -0.15109991867E-01  0.85547305372E-01  0.51100000000E-03 0. -1.
</event>
<event>
 8    1  0.1063984E+005  0.1043930E+01  0.7957747E-01            NaN
         13   -1    0    0    0    0  0.00000000000E+00  0.00000000000E+00  0.74505805969E-08  0.10566000000E+00  0.10566000000E+00 0. -1.
     999900   -1    0    0    0    0 -0.00000000000E+00 -0.00000000000E+00 -0.74505805969E-08  0.93827000000E+00  0.93827000000E+00 0.  1.
     999902    2    1    2    0    0 -0.11201944300E-01  0.50220876532E-02  0.20659171745E-01  0.10198986393E+01  0.10196154805E+01 0.  0.
     999903    2    3    3    0    0 -0.37731929507E-02 -0.12098078223E+00  0.44733281957E-01  0.13056660211E+00  0.19899357236E-01 0.  0.
         14    1    1    2    0    0  0.11201944300E-01 -0.50220876532E-02 -0.20659171745E-01  0.24031360712E-01  0.00000000000E+00 0. -1.
     999901    1    3    3    0    0 -0.74287513491E-02  0.12600286988E+00 -0.24074110212E-01  0.88933203718E+00  0.88000000000E+00 0.  1.
        -11    1    4    4    0    0 -0.62418535779E-02 -0.84763194129E-01  0.40060048355E-01  0.93961845503E-01  0.51100000000E-03 0. -1.
         11    1    4    4    0    0  0.24686606272E-02 -0.36217588101E-01  0.46732336023E-02  0.36604756609E-01  0.51100000000E-03 0.  1.
</event>
<event>
 8    1  0.1063984E+005  0.1043930E+01  0.7957747E-01            NaN
         13   -1    0    0    0    0  0.00000000000E+00  0.00000000000E+00  0.74505805969E-08  0.10566000000E+00  0.10566000000E+00 0. -1.
     999900   -1    0    0    0    0 -0.00000000000E+00 -0.00000000000E+00 -0.74505805969E-08  0.93827000000E+00  0.93827000000E+00 0. -1.
     999902    2    1    2    0    0 -0.16333257335E-01  0.13164915358E-01  0.11144844945E-01  0.10201750456E+01  0.10198984389E+01 0.  0.
     999903    2    3    3    0    0  0.25884661502E-01  0.11140217625E+00 -0.60015542137E-01  0.13085130654E+00  0.20969943959E-01 0.  0.
         14    1    1    2    0    0  0.16333257335E-01 -0.13164915358E-01 -0.11144844945E-01  0.23754954439E-01  0.00000000000E+00 0.  1.
     999901    1    3    3    0    0 -0.42217918837E-01 -0.98237260897E-01  0.71160387081E-01  0.88932373902E+00  0.88000000000E+00 0.  1.
        -11    1    4    4    0    0  0.15399094694E-01  0.52506825638E-01 -0.39949969799E-01  0.67752196008E-01  0.51100000000E-03 0.  1.
         11    1    4    4    0    0  0.10485566808E-01  0.58895350617E-01 -0.20065572337E-01  0.63099110531E-01  0.51100000000E-03 0. -1.
</event>
<event>
 8    1  0.1063984E+005  0.1043930E+01  0.7957747E-01            NaN
         13   -1    0    0    0    0  0.00000000000E+00  0.00000000000E+00  0.74505805969E-08  0.10566000000E+00  0.10566000000E+00 0. -1.
     999900   -1    0    0    0    0 -0.00000000000E+00 -0.00000000000E+00 -0.74505805969E-08  0.93827000000E+00  0.93827000000E+00 0. -1.
     999902    2    1    2    0    0  0.17939143971E-01  0.13927450155E-01  0.90648124062E-02  0.10194768289E+01  0.10191835198E+01 0.  0.
     999903    2    3    3    0    0 -0.92477529357E-01  0.82769466147E-01 -0.29209252467E-01  0.12908592092E+00  0.20177130349E-01 0.  0.
         14    1    1    2    0    0 -0.17939143971E-01 -0.13927450155E-01 -0.90648124062E-02  0.24453171127E-01  0.00000000000E+00 0.  1.
     999901    1    3    3    0    0  0.11041667333E+00 -0.68842015992E-01  0.38274064873E-01  0.89039090795E+00  0.88000000000E+00 0. -1.
        -11    1    4    4    0    0 -0.80062590566E-01  0.79607182647E-01 -0.26746818679E-01  0.11603006234E+00  0.51100000000E-03 0.  1.
         11    1    4    4    0    0 -0.12414938791E-01  0.31622834998E-02 -0.24624337881E-02  0.13055858581E-01  0.51100000000E-03 0. -1.
</event>
<event>
 8    1  0.1063984E+005  0.1043930E+01  0.7957747E-01            NaN
         13   -1    0    0    0    0  0.00000000000E+00  0.00000000000E+00  0.74505805969E-08  0.10566000000E+00  0.10566000000E+00 0. -1.
     999900   -1    0    0    0    0 -0.00000000000E+00 -0.00000000000E+00 -0.74505805969E-08  0.93827000000E+00  0.93827000000E+00 0.  1.
     999902    2    1    2    0    0 -0.25958182831E-01  0.10421371407E-01  0.80854199060E-02  0.10148128873E+01  0.10143950857E+01 0.  0.
     999903    2    3    3    0    0 -0.16551555181E-01  0.12102655197E+00  0.30165709800E-01  0.12756459632E+00  0.21008948737E-01 0.  0.
         14    1    1    2    0    0  0.25958182831E-01 -0.10421371407E-01 -0.80854199060E-02  0.29117112717E-01  0.00000000000E+00 0.  1.
     999901    1    3    3    0    0 -0.94066276496E-02 -0.11060518056E+00 -0.22080289894E-01  0.88724829096E+00  0.88000000000E+00 0. -1.
        -11    1    4    4    0    0 -0.18467225866E-01  0.64614593626E-01  0.20777774965E-01  0.70342456555E-01  0.51100000000E-03 0.  1.
         11    1    4    4    0    0  0.19156706849E-02  0.56411958342E-01  0.93879348348E-02  0.57222139768E-01  0.51100000000E-03 0. -1.
</event>
<event>
 8    1  0.1063984E+005  0.1043930E+01  0.7957747E-01            NaN
         13   -1    0    0    0    0  0.00000000000E+00  0.00000000000E+00  0.74505805969E-08  0.10566000000E+00  0.10566000000E+00 0.  1.
     999900   -1    0    0    0    0 -0.00000000000E+00 -0.00000000000E+00 -0.74505805969E-08  0.93827000000E+00  0.93827000000E+00 0.  1.
     999902    2    1    2    0    0 -0.81773494024E-02  0.11594907574E-01  0.18809093982E-01  0.10203695895E+01  0.10200975474E+01 0.  0.
     999903    2    3    3    0    0 -0.64353412337E-01 -0.23912230084E-01  0.11212817071E+00  0.13294356053E+00  0.19700436342E-01 0.  0.
         14    1    1    2    0    0  0.81773494024E-02 -0.11594907574E-01 -0.18809093982E-01  0.23560410466E-01  0.00000000000E+00 0. -1.
     999901    1    3    3    0    0  0.56176062935E-01  0.35507137658E-01 -0.93319076731E-01  0.88742602900E+00  0.88000000000E+00 0.  1.
        -11    1    4    4    0    0 -0.57384915810E-01 -0.13670374203E-01  0.94128629635E-01  0.11108720778E+00  0.51100000000E-03 0. -1.
         11    1    4    4    0    0 -0.69684965269E-02 -0.10241855881E-01  0.17999541077E-01  0.21856352754E-01  0.51100000000E-03 0.  1.
</event>
<event>
 8    1  0.1063984E+005  0.1043930E+01  0.7957747E-01            NaN
         13   -1    0    0    0    0  0.00000000000E+00  0.00000000000E+00  0.74505805969E-08  0.10566000000E+00  0.10566000000E+00 0.  1.
     999900   -1    0    0    0    0 -0.00000000000E+00 -0.00000000000E+00 -0.74505805969E-08  0.93827000000E+00  0.93827000000E+00 0.  1.
     999902    2    1    2    0    0 -0.13019105935E-01  0.14667553249E-01 -0.10618203224E-01  0.10216279715E+01  0.10213845170E+01 0.  0.
     999903    2    3    3    0    0 -0.74673076653E-01  0.10394217417E+00  0.32997841877E-01  0.13389291557E+00  0.21410542370E-01 0.  0.
         14    1    1    2    0    0  0.13019105935E-01 -0.14667553249E-01  0.10618203224E-01  0.22302028548E-01  0.00000000000E+00 0. -1.
     999901    1    3    3    0    0  0.61653970718E-01 -0.89274620918E-01 -0.43616045101E-01  0.88773505588E+00  0.88000000000E+00 0.  1.
        -11    1    4    4    0    0 -0.97503603264E-02  0.22947575034E-01 -0.10356005983E-03  0.24938575984E-01  0.51100000000E-03 0.  1.
         11    1    4    4    0    0 -0.64922716327E-01  0.80994599134E-01  0.33101401937E-01  0.10895433959E+00  0.51100000000E-03 0. -1.
</event>
<event>
 8    1  0.1063984E+005  0.1043930E+01  0.7957747E-01            NaN
         13   -1    0    0    0    0  0.00000000000E+00  0.00000000000E+00  0.74505805969E-08  0.10566000000E+00  0.10566000000E+00 0.  1.
     999900   -1    0    0    0    0 -0.00000000000E+00 -0.00000000000E+00 -0.74505805969E-08  0.93827000000E+00  0.93827000000E+00 0.  1.
     999902    2    1    2    0    0 -0.36473355519E-02 -0.28429131420E-02  0.24005712450E-01  0.10194829257E+01  0.10191897646E+01 0.  0.
     999903    2    3    3    0    0  0.22336087143E-01 -0.49659861398E-01 -0.11324638796E+00  0.12723570437E+00  0.19979425832E-01 0.  0.
         14    1    1    2    0    0  0.36473355519E-02  0.28429131420E-02 -0.24005712450E-01  0.24447074303E-01  0.00000000000E+00 0. -1.
     999901    1    3    3    0    0 -0.25983422695E-01  0.46816948256E-01  0.13725210041E+00  0.89224722133E+00  0.88000000000E+00 0. -1.
        -11    1    4    4    0    0  0.23010387230E-01 -0.51248055485E-01 -0.10906839625E+00  0.12268666306E+00  0.51100000000E-03 0. -1.
         11    1    4    4    0    0 -0.67430008697E-03  0.15881940868E-02 -0.41779917182E-02  0.45490413125E-02  0.51100000000E-03 0.  1.
</event>
<event>
 8    1  0.1063984E+005  0.1043930E+01  0.7957747E-01            NaN
         13   -1    0    0    0    0  0.00000000000E+00  0.00000000000E+00  0.74505805969E-08  0.10566000000E+00  0.10566000000E+00 0. -1.
     999900   -1    0    0    0    0 -0.00000000000E+00 -0.00000000000E+00 -0.74505805969E-08  0.93827000000E+00  0.93827000000E+00 0. -1.
     999902    2    1    2    0    0  0.18108146995E-01 -0.76550804471E-03 -0.15771530482E-01  0.10199043436E+01  0.10196213209E+01 0.  0.
     999903    2    3    3    0    0  0.47416877033E-01  0.72926512650E-01  0.93927865464E-01  0.12955414678E+00  0.19879551345E-01 0.  0.
         14    1    1    2    0    0 -0.18108146995E-01  0.76550804471E-03  0.15771530482E-01  0.24025656367E-01  0.00000000000E+00 0. -1.
     999901    1    3    3    0    0 -0.29308730039E-01 -0.73692020695E-01 -0.10969939595E+00  0.89035019686E+00  0.88000000000E+00 0. -1.
        -11    1    4    4    0    0 -0.88287718946E-04  0.11229847084E-01  0.14167129055E-01  0.18085517048E-01  0.51100000000E-03 0. -1.
         11    1    4    4    0    0  0.47505164752E-01  0.61696665566E-01  0.79760736409E-01  0.11146862973E+00  0.51100000000E-03 0.  1.
</event>
<event>
 8    1  0.1063984E+005  0.1043930E+01  0.7957747E-01            NaN
         13   -1    0    0    0    0  0.00000000000E+00  0.00000000000E+00  0.74505805969E-08  0.10566000000E+00  0.10566000000E+00 0. -1.
     999900   -1    0    0    0    0 -0.00000000000E+00 -0.00000000000E+00 -0.74505805969E-08  0.93827000000E+00  0.93827000000E+00 0. -1.
     999902    2    1    2    0    0  0.89756641157E-02 -0.10519257744E-01 -0.18638325741E-01  0.10207221454E+01  0.10204582762E+01 0.  0.
     999903    2    3    3    0    0 -0.86345014792E-02  0.47257451012E-01  0.11722095869E+00  0.12825029082E+00  0.19989063170E-01 0.  0.
         14    1    1    2    0    0 -0.89756641157E-02  0.10519257744E-01  0.18638325741E-01  0.23207854624E-01  0.00000000000E+00 0. -1.
     999901    1    3    3    0    0  0.17610165595E-01 -0.57776708756E-01 -0.13585928444E+00  0.89247185456E+00  0.88000000000E+00 0. -1.
        -11    1    4    4    0    0  0.18168634652E-02  0.36977160429E-03  0.17015806532E-01  0.17124150105E-01  0.51100000000E-03 0. -1.
         11    1    4    4    0    0 -0.10451364944E-01  0.46887679407E-01  0.10020515216E+00  0.11112614072E+00  0.51100000000E-03 0.  1.
</event>
<event>
 8    1  0.1063984E+005  0.1043930E+01  0.7957747E-01            NaN
         13   -1    0    0    0    0  0.00000000000E+00  0.00000000000E+00  0.74505805969E-08  0.10566000000E+00  0.10566000000E+00 0. -1.
     999900   -1    0    0    0    0 -0.00000000000E+00 -0.00000000000E+00 -0.74505805969E-08  0.93827000000E+00  0.93827000000E+00 0.  1.
     999902    2    1    2    0    0 -0.21946305738E-01  0.74671319517E-02 -0.42261247589E-02  0.10203660758E+01  0.10200939516E+01 0.  0.
     999903    2    3    3    0    0 -0.12527708166E+00 -0.51231903095E-02 -0.41576538789E-01  0.13344397157E+00  0.18923284670E-01 0.  0.
         14    1    1    2    0    0  0.21946305738E-01 -0.74671319517E-02  0.42261247589E-02  0.23563924241E-01  0.00000000000E+00 0. -1.
     999901    1    3    3    0    0  0.10333077592E+00  0.12590322261E-01  0.37350414030E-01  0.88692210419E+00  0.88000000000E+00 0.  1.
        -11    1    4    4    0    0 -0.80032363011E-01 -0.51362520568E-02 -0.17103991205E-01  0.82002242960E-01  0.51100000000E-03 0.  1.
         11    1    4    4    0    0 -0.45244718651E-01  0.13061747307E-04 -0.24472547584E-01  0.51441728612E-01  0.51100000000E-03 0. -1.
</event>
<event>
 8    1  0.1063984E+005  0.1043930E+01  0.7957747E-01            NaN
         13   -1    0    0    0    0  0.00000000000E+00  0.00000000000E+00  0.74505805969E-08  0.10566000000E+00  0.10566000000E+00 0.  1.
     999900   -1    0    0    0    0 -0.00000000000E+00 -0.00000000000E+00 -0.74505805969E-08  0.93827000000E+00  0.93827000000E+00 0. -1.
     999902    2    1    2    0    0 -0.11228401002E-01  0.10459336463E-01 -0.17674349827E-01  0.10205236472E+01  0.10202551922E+01 0.  0.
     999903    2    3    3    0    0  0.74209446608E-01  0.88409958944E-01  0.56291546585E-01  0.12987956614E+00  0.19406202016E-01 0.  0.
         14    1    1    2    0    0  0.11228401002E-01 -0.10459336463E-01  0.17674349827E-01  0.23406352773E-01  0.00000000000E+00 0.  1.
     999901    1    3    3    0    0 -0.85437847610E-01 -0.77950622480E-01 -0.73965896411E-01  0.89064408109E+00  0.88000000000E+00 0. -1.
        -11    1    4    4    0    0  0.35280793383E-02  0.72632993233E-02  0.96474690028E-02  0.12591173100E-01  0.51100000000E-03 0.  1.
         11    1    4    4    0    0  0.70681367270E-01  0.81146659620E-01  0.46644077582E-01  0.11728839304E+00  0.51100000000E-03 0. -1.
</event>
<event>
 7    1  0.1063984E+005  0.1043930E+01  0.7957747E-01            NaN
         13   -1    0    0    0    0  0.00000000000E+00  0.00000000000E+00  0.74505805969E-08  0.10566000000E+00  0.10566000000E+00 0.  1.
     999900   -1    0    0    0    0 -0.00000000000E+00 -0.00000000000E+00 -0.74505805969E-08  0.93827000000E+00  0.93827000000E+00 0.  1.
     999903    2    1    2    0    0  0.44753002376E-01 -0.98420993435E-01  0.13619265370E-02  0.10995390513E+00  0.19962044954E-01 0.  0.
         14    1    1    2    0    0 -0.94230973152E-02  0.17846488246E-01 -0.44161097349E-01  0.48554036133E-01  0.00000000000E+00 0. -1.
     999901    1    1    2    0    0 -0.35329905060E-01  0.80574505189E-01  0.42799170812E-01  0.88542205874E+00  0.88000000000E+00 0. -1.
        -11    1    3    3    0    0  0.12608700655E-01 -0.15421185305E-01 -0.55294693343E-02  0.20679178913E-01  0.51100000000E-03 0. -1.
         11    1    3    3    0    0  0.32144301721E-01 -0.82999808130E-01  0.68913958712E-02  0.89274726215E-01  0.51100000000E-03 0.  1.
</event>
<event>
 8    1  0.1063984E+005  0.1043930E+01  0.7957747E-01            NaN
         13   -1    0    0    0    0  0.00000000000E+00  0.00000000000E+00  0.74505805969E-08  0.10566000000E+00  0.10566000000E+00 0. -1.
     999900   -1    0    0    0    0 -0.00000000000E+00 -0.00000000000E+00 -0.74505805969E-08  0.93827000000E+00  0.93827000000E+00 0. -1.
     999902    2    1    2    0    0 -0.81273611810E-03  0.21281565667E-01  0.10730678469E-01  0.10200822949E+01  0.10198034984E+01 0.  0.
     999903    2    3    3    0    0 -0.69139903331E-01 -0.17536297047E-01 -0.10586636106E+00  0.12891996522E+00  0.18022848898E-01 0.  0.
         14    1    1    2    0    0  0.81273611810E-03 -0.21281565667E-01 -0.10730678469E-01  0.23847705081E-01  0.00000000000E+00 0. -1.
     999901    1    3    3    0    0  0.68327167213E-01  0.38817862714E-01  0.11659703953E+00  0.89116232970E+00  0.88000000000E+00 0.  1.
        -11    1    4    4    0    0 -0.54578225940E-01 -0.18794229609E-01 -0.73954419763E-01  0.93816433192E-01  0.51100000000E-03 0.  1.
         11    1    4    4    0    0 -0.14561677390E-01  0.12579325620E-02 -0.31911941294E-01  0.35103532029E-01  0.51100000000E-03 0. -1.
</event>
<event>
 7    1  0.1063984E+005  0.1043930E+01  0.7957747E-01            NaN
         13   -1    0    0    0    0  0.00000000000E+00  0.00000000000E+00  0.74505805969E-08  0.10566000000E+00  0.10566000000E+00 0. -1.
     999900   -1    0    0    0    0 -0.00000000000E+00 -0.00000000000E+00 -0.74505805969E-08  0.93827000000E+00  0.93827000000E+00 0.  1.
     999903    2    1    2    0    0 -0.81335517633E-01 -0.48538773427E-01 -0.51294107416E-01  0.10958129682E+00  0.20136936261E-01 0.  0.
         14    1    1    2    0    0 -0.18090055303E-02  0.33508143745E-01  0.37324407938E-01  0.50191429807E-01  0.00000000000E+00 0. -1.
     999901    1    1    2    0    0  0.83144523163E-01  0.15030629682E-01  0.13969699478E-01  0.88415727338E+00  0.88000000000E+00 0. -1.
        -11    1    3    3    0    0 -0.79811363245E-01 -0.43056621871E-01 -0.45561827185E-01  0.10148826340E+00  0.51100000000E-03 0.  1.
         11    1    3    3    0    0 -0.15241543877E-02 -0.54821515552E-02 -0.57322802307E-02  0.80930334187E-02  0.51100000000E-03 0. -1.
</event>
<event>
 8    1  0.1063984E+005  0.1043930E+01  0.7957747E-01            NaN
         13   -1    0    0    0    0  0.00000000000E+00  0.00000000000E+00  0.74505805969E-08  0.10566000000E+00  0.10566000000E+00 0. -1.
     999900   -1    0    0    0    0 -0.00000000000E+00 -0.00000000000E+00 -0.74505805969E-08  0.93827000000E+00  0.93827000000E+00 0.  1.
     999902    2    1    2    0    0 -0.46245543972E-02  0.95886998380E-02  0.21018307433E-01  0.10203694628E+01  0.10200974177E+01 0.  0.
     999903    2    3    3    0    0 -0.12324606172E+00 -0.38806962894E-01 -0.28274221781E-02  0.13077302560E+00  0.19950383721E-01 0.  0.
         14    1    1    2    0    0  0.46245543972E-02 -0.95886998380E-02 -0.21018307433E-01  0.23560537246E-01  0.00000000000E+00 0.  1.
     999901    1    3    3    0    0  0.11862150732E+00  0.48395662732E-01  0.23845729611E-01  0.88959643715E+00  0.88000000000E+00 0. -1.
        -11    1    4    4    0    0 -0.42960030489E-01 -0.80414155292E-02 -0.87971598172E-02  0.44585644833E-01  0.51100000000E-03 0.  1.
         11    1    4    4    0    0 -0.80286031232E-01 -0.30765547365E-01  0.59697376391E-02  0.86187380770E-01  0.51100000000E-03 0. -1.
</event>
<event>
 8    1  0.1063984E+005  0.1043930E+01  0.7957747E-01            NaN
         13   -1    0    0    0    0  0.00000000000E+00  0.00000000000E+00  0.74505805969E-08  0.10566000000E+00  0.10566000000E+00 0.  1.
     999900   -1    0    0    0    0 -0.00000000000E+00 -0.00000000000E+00 -0.74505805969E-08  0.93827000000E+00  0.93827000000E+00 0. -1.
     999902    2    1    2    0    0  0.66182158970E-02 -0.12694601390E-01  0.19344670954E-01  0.10198640494E+01  0.10195800651E+01 0.  0.
     999903    2    3    3    0    0 -0.11607303447E+00 -0.52920560661E-01 -0.42494359779E-02  0.13012928405E+00  0.25338464632E-01 0.  0.
         14    1    1    2    0    0 -0.66182158970E-02  0.12694601390E-01 -0.19344670954E-01  0.24065950644E-01  0.00000000000E+00 0. -1.
     999901    1    3    3    0    0  0.12269125036E+00  0.40225959270E-01  0.23594106931E-01  0.88973476531E+00  0.88000000000E+00 0.  1.
        -11    1    4    4    0    0 -0.41020873948E-01 -0.20816070290E-01  0.10473361276E-01  0.47180221483E-01  0.51100000000E-03 0. -1.
         11    1    4    4    0    0 -0.75052160518E-01 -0.32104490371E-01 -0.14722797254E-01  0.82949062565E-01  0.51100000000E-03 0.  1.
</event>
<event>
 8    1  0.1063984E+005  0.1043930E+01  0.7957747E-01            NaN
         13   -1    0    0    0    0  0.00000000000E+00  0.00000000000E+00  0.74505805969E-08  0.10566000000E+00  0.10566000000E+00 0.  1.
     999900   -1    0    0    0    0 -0.00000000000E+00 -0.00000000000E+00 -0.74505805969E-08  0.93827000000E+00  0.93827000000E+00 0.  1.
     999902    2    1    2    0    0  0.42661937787E-02 -0.22188901275E-01  0.57554504585E-02  0.10206132044E+01  0.10203468234E+01 0.  0.
     999903    2    3    3    0    0 -0.11872960305E+00 -0.39709689071E-01  0.29800613705E-01  0.13156139826E+00  0.27326669895E-01 0.  0.
         14    1    1    2    0    0 -0.42661937787E-02  0.22188901275E-01 -0.57554504585E-02  0.23316795645E-01  0.00000000000E+00 0.  1.
     999901    1    3    3    0    0  0.12299579683E+00  0.17520787796E-01 -0.24045163247E-01  0.88905180609E+00  0.88000000000E+00 0.  1.
        -11    1    4    4    0    0 -0.81378701539E-01 -0.16484343000E-01  0.11125321257E-01  0.83775059071E-01  0.51100000000E-03 0. -1.
         11    1    4    4    0    0 -0.37350901516E-01 -0.23225346071E-01  0.18675292448E-01  0.47786339190E-01  0.51100000000E-03 0.  1.
</event>
<event>
 8    1  0.1063984E+005  0.1043930E+01  0.7957747E-01            NaN
         13   -1    0    0    0    0  0.00000000000E+00  0.00000000000E+00  0.74505805969E-08  0.10566000000E+00  0.10566000000E+00 0.  1.
     999900   -1    0    0    0    0 -0.00000000000E+00 -0.00000000000E+00 -0.74505805969E-08  0.93827000000E+00  0.93827000000E+00 0. -1.
     999902    2    1    2    0    0  0.24526619386E-01  0.38572590745E-02 -0.65602294817E-03  0.10190932556E+01  0.10187905573E+01 0.  0.
     999903    2    3    3    0    0 -0.48054357358E-01  0.10386567971E+00 -0.55452619571E-01  0.12877176907E+00  0.20245365157E-01 0.  0.
         14    1    1    2    0    0 -0.24526619386E-01 -0.38572590745E-02  0.65602294817E-03  0.24836744396E-01  0.00000000000E+00 0.  1.
     999901    1    3    3    0    0  0.72580976744E-01 -0.10000842063E+00  0.54796596623E-01  0.89032148653E+00  0.88000000000E+00 0.  1.
        -11    1    4    4    0    0 -0.28108860606E-01  0.56450596851E-01 -0.41421832292E-01  0.75450694104E-01  0.51100000000E-03 0. -1.
         11    1    4    4    0    0 -0.19945496752E-01  0.47415082855E-01 -0.14030787278E-01  0.53321074966E-01  0.51100000000E-03 0.  1.
</event>
<event>
 8    1  0.1350206E+005  0.1043930E+01  0.7957747E-01            NaN
         13   -1    0    0    0    0  0.00000000000E+00  0.00000000000E+00  0.74505805969E-08  0.10566000000E+00  0.10566000000E+00 0. -1.
     999900   -1    0    0    0    0 -0.00000000000E+00 -0.00000000000E+00 -0.74505805969E-08  0.93827000000E+00  0.93827000000E+00 0.  1.
     999902    2    1    2    0    0  0.17625528874E-01 -0.58460688123E-02  0.16168087833E-01  0.10193080006E+01  0.10190105776E+01 0.  0.
     999903    2    3    3    0    0  0.29894032356E-01 -0.80897258995E-01  0.98686286155E-01  0.13218205107E+00  0.17178238208E-01 0.  0.
         14    1    1    2    0    0 -0.17625528874E-01  0.58460688123E-02 -0.16168087833E-01  0.24621999367E-01  0.00000000000E+00 0.  1.
     999901    1    3    3    0    0 -0.12268503482E-01  0.75051190183E-01 -0.82518198321E-01  0.88712594956E+00  0.88000000000E+00 0.  1.
        -11    1    4    4    0    0  0.41192269656E-02 -0.35145158806E-01  0.41523530517E-01  0.54558362566E-01  0.51100000000E-03 0.  1.
         11    1    4    4    0    0  0.25774805390E-01 -0.45752100189E-01  0.57162755638E-01  0.77623688509E-01  0.51100000000E-03 0. -1.
</event>
<event>
 8    1  0.1063984E+005  0.1043930E+01  0.7957747E-01            NaN
         13   -1    0    0    0    0  0.00000000000E+00  0.00000000000E+00  0.74505805969E-08  0.10566000000E+00  0.10566000000E+00 0. -1.
     999900   -1    0    0    0    0 -0.00000000000E+00 -0.00000000000E+00 -0.74505805969E-08  0.93827000000E+00  0.93827000000E+00 0.  1.
     999902    2    1    2    0    0  0.18858972834E-01  0.14752611946E-01 -0.19019859773E-02  0.10199108833E+01  0.10196280165E+01 0.  0.
     999903    2    3    3    0    0 -0.86239699455E-01 -0.65892977803E-01  0.63916079220E-01  0.12756484070E+00  0.20207748878E-01 0.  0.
         14    1    1    2    0    0 -0.18858972834E-01 -0.14752611946E-01  0.19019859773E-02  0.24019116683E-01  0.00000000000E+00 0.  1.
     999901    1    3    3    0    0  0.10509867229E+00  0.80645589749E-01 -0.65818065197E-01  0.89234604261E+00  0.88000000000E+00 0.  1.
        -11    1    4    4    0    0 -0.58209936676E-01 -0.37791461321E-01  0.49854584078E-01  0.85453683076E-01  0.51100000000E-03 0.  1.
         11    1    4    4    0    0 -0.28029762779E-01 -0.28101516482E-01  0.14061495142E-01  0.42111157626E-01  0.51100000000E-03 0. -1.
</event>
<event>
 8    1  0.1063984E+005  0.1043930E+01  0.7957747E-01            NaN
         13   -1    0    0    0    0  0.00000000000E+00  0.00000000000E+00  0.74505805969E-08  0.10566000000E+00  0.10566000000E+00 0.  1.
     999900   -1    0    0    0    0 -0.00000000000E+00 -0.00000000000E+00 -0.74505805969E-08  0.93827000000E+00  0.93827000000E+00 0.  1.
     999902    2    1    2    0    0 -0.10035593423E-01  0.19094703940E-01  0.91378704528E-02  0.10205030597E+01  0.10202341268E+01 0.  0.
     999903    2    3    3    0    0 -0.14662965230E-01  0.63002133343E-01  0.11461280047E+00  0.13310560887E+00  0.19918276201E-01 0.  0.
         14    1    1    2    0    0  0.10035593423E-01 -0.19094703940E-01 -0.91378704528E-02  0.23426940268E-01  0.00000000000E+00 0. -1.
     999901    1    3    3    0    0  0.46273718074E-02 -0.43907429403E-01 -0.10547493002E+00  0.88739745086E+00  0.88000000000E+00 0.  1.
        -11    1    4    4    0    0 -0.18669281719E-02  0.45247870604E-01  0.69371168126E-01  0.82846094073E-01  0.51100000000E-03 0.  1.
         11    1    4    4    0    0 -0.12796037058E-01  0.17754262739E-01  0.45241632345E-01  0.50259514801E-01  0.51100000000E-03 0. -1.
</event>
<event>
 8    1  0.1063984E+005  0.1043930E+01  0.7957747E-01            NaN
         13   -1    0    0    0    0  0.00000000000E+00  0.00000000000E+00  0.74505805969E-08  0.10566000000E+00  0.10566000000E+00 0.  1.
     999900   -1    0    0    0    0 -0.00000000000E+00 -0.00000000000E+00 -0.74505805969E-08  0.93827000000E+00  0.93827000000E+00 0.  1.
     999902    2    1    2    0    0 -0.14379788297E-02  0.80635316710E-02  0.22069595565E-01  0.10203894950E+01  0.10201179178E+01 0.  0.
     999903    2    3    3    0    0  0.70275299259E-02  0.24492512513E-01 -0.12402808308E+00  0.12815291880E+00  0.19772097997E-01 0.  0.
         14    1    1    2    0    0  0.14379788297E-02 -0.80635316710E-02 -0.22069595565E-01  0.23540504976E-01  0.00000000000E+00 0. -1.
     999901    1    3    3    0    0 -0.84655087556E-02 -0.16428980842E-01  0.14609767864E+00  0.89223657623E+00  0.88000000000E+00 0. -1.
        -11    1    4    4    0    0 -0.22316947665E-02  0.19095911517E-01 -0.10007920567E+00  0.10191046476E+00  0.51100000000E-03 0.  1.
         11    1    4    4    0    0  0.92592246924E-02  0.53966009959E-02 -0.23948877404E-01  0.26242454042E-01  0.51100000000E-03 0. -1.
</event>
<event>
 8    1  0.1063984E+005  0.1043930E+01  0.7957747E-01            NaN
         13   -1    0    0    0    0  0.00000000000E+00  0.00000000000E+00  0.74505805969E-08  0.10566000000E+00  0.10566000000E+00 0.  1.
     999900   -1    0    0    0    0 -0.00000000000E+00 -0.00000000000E+00 -0.74505805969E-08  0.93827000000E+00  0.93827000000E+00 0.  1.
     999902    2    1    2    0    0  0.22526417883E-01 -0.26180456191E-01 -0.44477315508E-02  0.10091070463E+01  0.10085060202E+01 0.  0.
     999903    2    3    3    0    0 -0.38636443365E-01 -0.10759629642E+00  0.38114476057E-01  0.12221304127E+00  0.20336578145E-01 0.  0.
         14    1    1    2    0    0 -0.22526417883E-01  0.26180456191E-01  0.44477315508E-02  0.34822953708E-01  0.00000000000E+00 0.  1.
     999901    1    3    3    0    0  0.61162861248E-01  0.81415840231E-01 -0.42562207607E-01  0.88689400503E+00  0.88000000000E+00 0. -1.
        -11    1    4    4    0    0 -0.18393999997E-01 -0.30161643369E-01  0.18156616912E-01  0.39723894891E-01  0.51100000000E-03 0. -1.
         11    1    4    4    0    0 -0.20242443368E-01 -0.77434653053E-01  0.19957859144E-01  0.82489146374E-01  0.51100000000E-03 0.  1.
</event>
<event>
 8    1  0.1063984E+005  0.1043930E+01  0.7957747E-01            NaN
         13   -1    0    0    0    0  0.00000000000E+00  0.00000000000E+00  0.74505805969E-08  0.10566000000E+00  0.10566000000E+00 0.  1.
     999900   -1    0    0    0    0 -0.00000000000E+00 -0.00000000000E+00 -0.74505805969E-08  0.93827000000E+00  0.93827000000E+00 0. -1.
     999902    2    1    2    0    0  0.25302580460E-01  0.40034590797E-02  0.29160873921E-02  0.10181472184E+01  0.10178207143E+01 0.  0.
     999903    2    3    3    0    0  0.45295278153E-01 -0.11918053632E+00 -0.98380943394E-02  0.12925089493E+00  0.18797427463E-01 0.  0.
         14    1    1    2    0    0 -0.25302580460E-01 -0.40034590797E-02 -0.29160873921E-02  0.25782781623E-01  0.00000000000E+00 0.  1.
     999901    1    3    3    0    0 -0.19992697693E-01  0.12318399540E+00  0.12754181732E-01  0.88889632345E+00  0.88000000000E+00 0. -1.
        -11    1    4    4    0    0  0.24458628569E-01 -0.45050439615E-01  0.21980074810E-02  0.51311392291E-01  0.51100000000E-03 0.  1.
         11    1    4    4    0    0  0.20836649584E-01 -0.74130096707E-01 -0.12036101820E-01  0.77939502640E-01  0.51100000000E-03 0. -1.
</event>
<event>
 8    1  0.1063984E+005  0.1043930E+01  0.7957747E-01            NaN
         13   -1    0    0    0    0  0.00000000000E+00  0.00000000000E+00  0.74505805969E-08  0.10566000000E+00  0.10566000000E+00 0.  1.
     999900   -1    0    0    0    0 -0.00000000000E+00 -0.00000000000E+00 -0.74505805969E-08  0.93827000000E+00  0.93827000000E+00 0. -1.
     999902    2    1    2    0    0  0.83947013069E-02 -0.92367240954E-02  0.21022817286E-01  0.10194811365E+01  0.10191879320E+01 0.  0.
     999903    2    3    3    0    0 -0.10372408101E+00  0.14965404170E-01  0.75419933510E-01  0.13037180087E+00  0.18055242679E-01 0.  0.
         14    1    1    2    0    0 -0.83947013069E-02  0.92367240954E-02 -0.21022817286E-01  0.24448863546E-01  0.00000000000E+00 0. -1.
     999901    1    3    3    0    0  0.11211878232E+00 -0.24202128266E-01 -0.54397116225E-01  0.88910933558E+00  0.88000000000E+00 0. -1.
        -11    1    4    4    0    0 -0.29182178727E-01  0.85741803603E-02  0.13613310921E-01  0.33327158285E-01  0.51100000000E-03 0.  1.
         11    1    4    4    0    0 -0.74541902288E-01  0.63912238102E-02  0.61806622589E-01  0.97044642590E-01  0.51100000000E-03 0. -1.
</event>
<event>
 8    1  0.1063984E+005  0.1043930E+01  0.7957747E-01            NaN
         13   -1    0    0    0    0  0.00000000000E+00  0.00000000000E+00  0.74505805969E-08  0.10566000000E+00  0.10566000000E+00 0. -1.
     999900   -1    0    0    0    0 -0.00000000000E+00 -0.00000000000E+00 -0.74505805969E-08  0.93827000000E+00  0.93827000000E+00 0. -1.
     999902    2    1    2    0    0 -0.19249167795E-01  0.47943547736E-02 -0.13356895542E-01  0.10200150892E+01  0.10197347005E+01 0.  0.
     999903    2    3    3    0    0 -0.92939858939E-01  0.58341679832E-01 -0.73250189158E-01  0.13328805085E+00  0.18935292499E-01 0.  0.
         14    1    1    2    0    0  0.19249167795E-01 -0.47943547736E-02  0.13356895542E-01  0.23914910767E-01  0.00000000000E+00 0. -1.
     999901    1    3    3    0    0  0.73690691144E-01 -0.53547325059E-01  0.59893293617E-01  0.88672703838E+00  0.88000000000E+00 0.  1.
        -11    1    4    4    0    0 -0.17985401653E-01  0.14105621643E-01 -0.24576554708E-01  0.33566521966E-01  0.51100000000E-03 0. -1.
         11    1    4    4    0    0 -0.74954457285E-01  0.44236058190E-01 -0.48673634450E-01  0.99721528882E-01  0.51100000000E-03 0.  1.
</event>
<event>
 8    1  0.1063984E+005  0.1043930E+01  0.7957747E-01            NaN
         13   -1    0    0    0    0  0.00000000000E+00  0.00000000000E+00  0.74505805969E-08  0.10566000000E+00  0.10566000000E+00 0. -1.
     999900   -1    0    0    0    0 -0.00000000000E+00 -0.00000000000E+00 -0.74505805969E-08  0.93827000000E+00  0.93827000000E+00 0. -1.
     999902    2    1    2    0    0  0.22605162230E-02 -0.82145737545E-02 -0.22320050858E-01  0.10200391267E+01  0.10197593080E+01 0.  0.
     999903    2    3    3    0    0  0.64246707656E-01  0.47256972898E-01 -0.10449040118E+00  0.13230530013E+00  0.15019572905E-01 0.  0.
         14    1    1    2    0    0 -0.22605162230E-02  0.82145737545E-02  0.22320050858E-01  0.23890873275E-01  0.00000000000E+00 0. -1.
     999901    1    3    3    0    0 -0.61986191433E-01 -0.55471546652E-01  0.82170350324E-01  0.88773382660E+00  0.88000000000E+00 0.  1.
        -11    1    4    4    0    0  0.26562869695E-01  0.10670542240E-01 -0.37202812417E-01  0.46944189107E-01  0.51100000000E-03 0. -1.
         11    1    4    4    0    0  0.37683837960E-01  0.36586430657E-01 -0.67287588764E-01  0.85361111019E-01  0.51100000000E-03 0.  1.
</event>
<event>
 8    1  0.1063984E+005  0.1043930E+01  0.7957747E-01            NaN
         13   -1    0    0    0    0  0.00000000000E+00  0.00000000000E+00  0.74505805969E-08  0.10566000000E+00  0.10566000000E+00 0.  1.
     999900   -1    0    0    0    0 -0.00000000000E+00 -0.00000000000E+00 -0.74505805969E-08  0.93827000000E+00  0.93827000000E+00 0.  1.
     999902    2    1    2    0    0  0.93935076900E-02  0.21609411732E-01  0.28340238565E-02  0.10201973989E+01  0.10199213187E+01 0.  0.
     999903    2    3    3    0    0  0.50798828320E-01  0.95862941061E-01  0.74389846364E-01  0.13320911100E+00  0.20990321206E-01 0.  0.
         14    1    1    2    0    0 -0.93935076900E-02 -0.21609411732E-01 -0.28340238565E-02  0.23732601066E-01  0.00000000000E+00 0. -1.
     999901    1    3    3    0    0 -0.41405320630E-01 -0.74253529329E-01 -0.71555822507E-01  0.88698828793E+00  0.88000000000E+00 0. -1.
        -11    1    4    4    0    0  0.16786940201E-01  0.45869735268E-01  0.23644117851E-01  0.54269138603E-01  0.51100000000E-03 0. -1.
         11    1    4    4    0    0  0.34011888119E-01  0.49993205794E-01  0.50745728513E-01  0.78939972399E-01  0.51100000000E-03 0.  1.
</event>
<event>
 8    1  0.1063984E+005  0.1043930E+01  0.7957747E-01            NaN
         13   -1    0    0    0    0  0.00000000000E+00  0.00000000000E+00  0.74505805969E-08  0.10566000000E+00  0.10566000000E+00 0. -1.
     999900   -1    0    0    0    0 -0.00000000000E+00 -0.00000000000E+00 -0.74505805969E-08  0.93827000000E+00  0.93827000000E+00 0. -1.
     999902    2    1    2    0    0  0.16604231224E-01 -0.46872684051E-02  0.16070264633E-01  0.10203519512E+01  0.10200794969E+01 0.  0.
     999903    2    3    3    0    0 -0.64586927664E-01  0.23713571416E-01 -0.10578430498E+00  0.12780102934E+00  0.20223234837E-01 0.  0.
         14    1    1    2    0    0 -0.16604231224E-01  0.46872684051E-02 -0.16070264633E-01  0.23578048795E-01  0.00000000000E+00 0. -1.
     999901    1    3    3    0    0  0.81191158887E-01 -0.28400839821E-01  0.12185456961E+00  0.89255092186E+00  0.88000000000E+00 0.  1.
        -11    1    4    4    0    0 -0.22555015576E-01 -0.10194352915E-02 -0.39608960552E-01  0.45594943283E-01  0.51100000000E-03 0. -1.
         11    1    4    4    0    0 -0.42031912087E-01  0.24733006707E-01 -0.66175344424E-01  0.82206086059E-01  0.51100000000E-03 0.  1.
</event>
<event>
 8    1  0.1063984E+005  0.1043930E+01  0.7957747E-01            NaN
         13   -1    0    0    0    0  0.00000000000E+00  0.00000000000E+00  0.74505805969E-08  0.10566000000E+00  0.10566000000E+00 0. -1.
     999900   -1    0    0    0    0 -0.00000000000E+00 -0.00000000000E+00 -0.74505805969E-08  0.93827000000E+00  0.93827000000E+00 0. -1.
     999902    2    1    2    0    0  0.12181119526E-01  0.82451204153E-02  0.18203456169E-01  0.10205264212E+01  0.10202580305E+01 0.  0.
     999903    2    3    3    0    0  0.96195476548E-02 -0.10801081056E+00  0.71153693157E-01  0.13129881776E+00  0.20436746379E-01 0.  0.
         14    1    1    2    0    0 -0.12181119526E-01 -0.82451204153E-02 -0.18203456169E-01  0.23403578787E-01  0.00000000000E+00 0.  1.
     999901    1    3    3    0    0  0.25615718711E-02  0.11625593097E+00 -0.52950236988E-01  0.88922760345E+00  0.88000000000E+00 0. -1.
        -11    1    4    4    0    0  0.46584682552E-02 -0.97472791630E-01  0.68813306740E-01  0.11940761592E+00  0.51100000000E-03 0.  1.
         11    1    4    4    0    0  0.49610793996E-02 -0.10538018926E-01  0.23403864167E-02  0.11891201843E-01  0.51100000000E-03 0. -1.
</event>
<event>
 8    1  0.1063984E+005  0.1043930E+01  0.7957747E-01            NaN
         13   -1    0    0    0    0  0.00000000000E+00  0.00000000000E+00  0.74505805969E-08  0.10566000000E+00  0.10566000000E+00 0.  1.
     999900   -1    0    0    0    0 -0.00000000000E+00 -0.00000000000E+00 -0.74505805969E-08  0.93827000000E+00  0.93827000000E+00 0.  1.
     999902    2    1    2    0    0  0.85473526216E-02 -0.21807211812E-01  0.52792688107E-02  0.10199199520E+01  0.10196373013E+01 0.  0.
     999903    2    3    3    0    0 -0.11147962865E-01 -0.35130054168E-01  0.12471840091E+00  0.13153315010E+00  0.19694980802E-01 0.  0.
         14    1    1    2    0    0 -0.85473526216E-02  0.21807211812E-01 -0.52792688107E-02  0.24010047959E-01  0.00000000000E+00 0. -1.
     999901    1    3    3    0    0  0.19695315486E-01  0.13322842356E-01 -0.11943913210E+00  0.88838680194E+00  0.88000000000E+00 0.  1.
        -11    1    4    4    0    0 -0.77376551138E-02 -0.11543857922E-01  0.76394636902E-01  0.77650071673E-01  0.51100000000E-03 0. -1.
         11    1    4    4    0    0 -0.34103077507E-02 -0.23586196246E-01  0.48323764007E-01  0.53883078430E-01  0.51100000000E-03 0.  1.
</event>
<event>
 8    1  0.1063984E+005  0.1043930E+01  0.7957747E-01            NaN
         13   -1    0    0    0    0  0.00000000000E+00  0.00000000000E+00  0.74505805969E-08  0.10566000000E+00  0.10566000000E+00 0. -1.
     999900   -1    0    0    0    0 -0.00000000000E+00 -0.00000000000E+00 -0.74505805969E-08  0.93827000000E+00  0.93827000000E+00 0. -1.
     999902    2    1    2    0    0  0.23510837078E-01 -0.14315086441E-02 -0.24385537755E-02  0.10202497293E+01  0.10199748795E+01 0.  0.
     999903    2    3    3    0    0 -0.77212521751E-01  0.44022666820E-01  0.90677872674E-01  0.12846391084E+00  0.19512331667E-01 0.  0.
         14    1    1    2    0    0 -0.23510837078E-01  0.14315086441E-02  0.24385537755E-02  0.23680270726E-01  0.00000000000E+00 0. -1.
     999901    1    3    3    0    0  0.10072335883E+00 -0.45454175464E-01 -0.93116426450E-01  0.89178581843E+00  0.88000000000E+00 0. -1.
        -11    1    4    4    0    0 -0.61809633488E-02  0.10539839122E-01  0.15577102933E-01  0.19804034271E-01  0.51100000000E-03 0.  1.
         11    1    4    4    0    0 -0.71031558403E-01  0.33482827698E-01  0.75100769742E-01  0.10865987657E+00  0.51100000000E-03 0. -1.
</event>
<event>
 8    1  0.1063984E+005  0.1043930E+01  0.7957747E-01            NaN
         13   -1    0    0    0    0  0.00000000000E+00  0.00000000000E+00  0.74505805969E-08  0.10566000000E+00  0.10566000000E+00 0. -1.
     999900   -1    0    0    0    0 -0.00000000000E+00 -0.00000000000E+00 -0.74505805969E-08  0.93827000000E+00  0.93827000000E+00 0. -1.
     999902    2    1    2    0    0  0.19038477207E-01  0.72048226152E-02 -0.11585449236E-01  0.10205078797E+01  0.10202390587E+01 0.  0.
     999903    2    3    3    0    0  0.11217413593E+00 -0.43341090791E-02 -0.69687396938E-01  0.13361260171E+00  0.19853784812E-01 0.  0.
         14    1    1    2    0    0 -0.19038477207E-01 -0.72048226152E-02  0.11585449236E-01  0.23422120256E-01  0.00000000000E+00 0.  1.
     999901    1    3    3    0    0 -0.93135658720E-01  0.11538931694E-01  0.58101947703E-01  0.88689527803E+00  0.88000000000E+00 0.  1.
        -11    1    4    4    0    0  0.98684966704E-01 -0.10297792889E-01 -0.61502914229E-01  0.11673746944E+00  0.51100000000E-03 0.  1.
         11    1    4    4    0    0  0.13489169224E-01  0.59636838098E-02 -0.81844827091E-02  0.16875132271E-01  0.51100000000E-03 0. -1.
</event>
<event>
 8    1  0.1063984E+005  0.1043930E+01  0.7957747E-01            NaN
         13   -1    0    0    0    0  0.00000000000E+00  0.00000000000E+00  0.74505805969E-08  0.10566000000E+00  0.10566000000E+00 0. -1.
     999900   -1    0    0    0    0 -0.00000000000E+00 -0.00000000000E+00 -0.74505805969E-08  0.93827000000E+00  0.93827000000E+00 0.  1.
     999902    2    1    2    0    0  0.94274616917E-02 -0.21694749800E-01 -0.18336547208E-02  0.10202044549E+01  0.10199285407E+01 0.  0.
     999903    2    3    3    0    0  0.11260657946E+00  0.62313251440E-01  0.11805076272E-02  0.13019751118E+00  0.19667619983E-01 0.  0.
         14    1    1    2    0    0 -0.94274616917E-02  0.21694749800E-01  0.18336547208E-02  0.23725545146E-01  0.00000000000E+00 0. -1.
     999901    1    3    3    0    0 -0.10317911777E+00 -0.84008001241E-01 -0.30141623480E-02  0.89000694368E+00  0.88000000000E+00 0.  1.
        -11    1    4    4    0    0  0.52658758305E-01  0.26452535314E-01 -0.89581923290E-02  0.59608655257E-01  0.51100000000E-03 0. -1.
         11    1    4    4    0    0  0.59947821156E-01  0.35860716127E-01  0.10138699956E-01  0.70588855922E-01  0.51100000000E-03 0.  1.
</event>
<event>
 8    1  0.1063984E+005  0.1043930E+01  0.7957747E-01            NaN
         13   -1    0    0    0    0  0.00000000000E+00  0.00000000000E+00  0.74505805969E-08  0.10566000000E+00  0.10566000000E+00 0. -1.
     999900   -1    0    0    0    0 -0.00000000000E+00 -0.00000000000E+00 -0.74505805969E-08  0.93827000000E+00  0.93827000000E+00 0.  1.
     999902    2    1    2    0    0  0.16441519881E-01  0.16131172565E-01 -0.79657471605E-02  0.10195580606E+01  0.10192667205E+01 0.  0.
     999903    2    3    3    0    0  0.52328790807E-01  0.81989172920E-01  0.86220916403E-01  0.13135971558E+00  0.18994778993E-01 0.  0.
         14    1    1    2    0    0 -0.16441519881E-01 -0.16131172565E-01  0.79657471605E-02  0.24371939441E-01  0.00000000000E+00 0. -1.
     999901    1    3    3    0    0 -0.35887270927E-01 -0.65858000355E-01 -0.94186663564E-01  0.88819834498E+00  0.88000000000E+00 0.  1.
        -11    1    4    4    0    0  0.48712574807E-01  0.62708173590E-01  0.71089498227E-01  0.10657958462E+00  0.51100000000E-03 0. -1.
         11    1    4    4    0    0  0.36162160008E-02  0.19280999330E-01  0.15131418176E-01  0.24780130959E-01  0.51100000000E-03 0.  1.
</event>
<event>
 8    1  0.1063984E+005  0.1043930E+01  0.7957747E-01            NaN
         13   -1    0    0    0    0  0.00000000000E+00  0.00000000000E+00  0.74505805969E-08  0.10566000000E+00  0.10566000000E+00 0.  1.
     999900   -1    0    0    0    0 -0.00000000000E+00 -0.00000000000E+00 -0.74505805969E-08  0.93827000000E+00  0.93827000000E+00 0. -1.
     999902    2    1    2    0    0 -0.49616731371E-02  0.47291204679E-02 -0.20919584126E-01  0.10219161003E+01  0.10216789634E+01 0.  0.
     999903    2    3    3    0    0  0.12032278375E+00 -0.34838324950E-01 -0.36507992733E-01  0.13202578325E+00  0.20166624284E-01 0.  0.
         14    1    1    2    0    0  0.49616731371E-02 -0.47291204679E-02  0.20919584126E-01  0.22013899716E-01  0.00000000000E+00 0.  1.
     999901    1    3    3    0    0 -0.12528445688E+00  0.39567445417E-01  0.15588408607E-01  0.88989031704E+00  0.88000000000E+00 0. -1.
        -11    1    4    4    0    0  0.79134824055E-01 -0.29735608110E-01 -0.31509356466E-01  0.90219883805E-01  0.51100000000E-03 0. -1.
         11    1    4    4    0    0  0.41187959690E-01 -0.51027168393E-02 -0.49986362668E-02  0.41805899442E-01  0.51100000000E-03 0.  1.
</event>
<event>
 7    1  0.1063984E+005  0.1043930E+01  0.7957747E-01            NaN
         13   -1    0    0    0    0  0.00000000000E+00  0.00000000000E+00  0.74505805969E-08  0.10566000000E+00  0.10566000000E+00 0. -1.
     999900   -1    0    0    0    0 -0.00000000000E+00 -0.00000000000E+00 -0.74505805969E-08  0.93827000000E+00  0.93827000000E+00 0. -1.
     999902    2    1    2    0    0  0.21836315541E-01 -0.42537377022E-02  0.17912198506E-02  0.10216112315E+01  0.10213674074E+01 0.  0.
         14    1    1    2    0    0 -0.21836315541E-01  0.42537377022E-02 -0.17912198506E-02  0.22318768546E-01  0.00000000000E+00 0. -1.
     999901    1    3    3    0    0  0.51881652533E-01 -0.10255613842E+00  0.69912763331E-01  0.89022315285E+00  0.88000000000E+00 0. -1.
        -11    1    3    3    0    0 -0.10515983607E-01  0.89647566210E-01 -0.48957654819E-01  0.10268585650E+00  0.51100000000E-03 0.  1.
         11    1    3    3    0    0 -0.19529353385E-01  0.86548345073E-02 -0.19163888662E-01  0.28702222103E-01  0.51100000000E-03 0. -1.
</event>
<event>
 8    1  0.1063984E+005  0.1043930E+01  0.7957747E-01            NaN
         13   -1    0    0    0    0  0.00000000000E+00  0.00000000000E+00  0.74505805969E-08  0.10566000000E+00  0.10566000000E+00 0.  1.
     999900   -1    0    0    0    0 -0.00000000000E+00 -0.00000000000E+00 -0.74505805969E-08  0.93827000000E+00  0.93827000000E+00 0. -1.
     999902    2    1    2    0    0 -0.13929782240E-01  0.19193924688E-01 -0.37499621532E-02  0.10199194233E+01  0.10196367599E+01 0.  0.
     999903    2    3    3    0    0  0.55839243851E-01 -0.44346918538E-01  0.10495132791E+00  0.12822377665E+00  0.18490141442E-01 0.  0.
         14    1    1    2    0    0  0.13929782240E-01 -0.19193924688E-01  0.37499621532E-02  0.24010576718E-01  0.00000000000E+00 0.  1.
     999901    1    3    3    0    0 -0.69769026091E-01  0.63540843226E-01 -0.10870129006E+00  0.89169564663E+00  0.88000000000E+00 0. -1.
        -11    1    4    4    0    0  0.30151432719E-01 -0.19795348968E-01  0.67884463306E-01  0.76873442847E-01  0.51100000000E-03 0.  1.
         11    1    4    4    0    0  0.25687811133E-01 -0.24551569570E-01  0.37066864606E-01  0.51350333804E-01  0.51100000000E-03 0. -1.
</event>
<event>
 8    1  0.1063984E+005  0.1043930E+01  0.7957747E-01            NaN
         13   -1    0    0    0    0  0.00000000000E+00  0.00000000000E+00  0.74505805969E-08  0.10566000000E+00  0.10566000000E+00 0. -1.
     999900   -1    0    0    0    0 -0.00000000000E+00 -0.00000000000E+00 -0.74505805969E-08  0.93827000000E+00  0.93827000000E+00 0.  1.
     999902    2    1    2    0    0  0.11245225808E-01  0.16001442827E-01 -0.49370786152E-02  0.10237588319E+01  0.10235600959E+01 0.  0.
     999903    2    3    3    0    0 -0.86266667676E-01  0.31929848870E-01  0.95198391315E-01  0.13258578710E+00  0.74029745407E-02 0.  0.
         14    1    1    2    0    0 -0.11245225808E-01 -0.16001442827E-01  0.49370786152E-02  0.20171168069E-01  0.00000000000E+00 0. -1.
     999901    1    3    3    0    0  0.97511893484E-01 -0.15928406043E-01 -0.10013546993E+00  0.89117304483E+00  0.88000000000E+00 0. -1.
        -11    1    4    4    0    0 -0.31097000007E-01  0.87681382824E-02  0.30022038474E-01  0.44107681570E-01  0.51100000000E-03 0. -1.
         11    1    4    4    0    0 -0.55169667669E-01  0.23161710587E-01  0.65176352841E-01  0.88478105533E-01  0.51100000000E-03 0.  1.
</event>
<event>
 8    1  0.1063984E+005  0.1043930E+01  0.7957747E-01            NaN
         13   -1    0    0    0    0  0.00000000000E+00  0.00000000000E+00  0.74505805969E-08  0.10566000000E+00  0.10566000000E+00 0. -1.
     999900   -1    0    0    0    0 -0.00000000000E+00 -0.00000000000E+00 -0.74505805969E-08  0.93827000000E+00  0.93827000000E+00 0.  1.
     999902    2    1    2    0    0  0.16428463748E-01  0.10608129790E-01  0.13509624719E-01  0.10201616008E+01  0.10198846773E+01 0.  0.
     999903    2    3    3    0    0 -0.63132348986E-01  0.24941055955E-01  0.11036338474E+00  0.13116440932E+00  0.20402838557E-01 0.  0.
         14    1    1    2    0    0 -0.16428463748E-01 -0.10608129790E-01 -0.13509624719E-01  0.23768399164E-01  0.00000000000E+00 0.  1.
     999901    1    3    3    0    0  0.79560812734E-01 -0.14332926165E-01 -0.96853760017E-01  0.88899719152E+00  0.88000000000E+00 0.  1.
        -11    1    4    4    0    0 -0.41983667225E-01  0.18719060534E-01  0.55696067896E-01  0.72217343076E-01  0.51100000000E-03 0.  1.
         11    1    4    4    0    0 -0.21148681762E-01  0.62219954215E-02  0.54667316839E-01  0.58947066243E-01  0.51100000000E-03 0. -1.
</event>
<event>
 8    1  0.1063984E+005  0.1043930E+01  0.7957747E-01            NaN
         13   -1    0    0    0    0  0.00000000000E+00  0.00000000000E+00  0.74505805969E-08  0.10566000000E+00  0.10566000000E+00 0.  1.
     999900   -1    0    0    0    0 -0.00000000000E+00 -0.00000000000E+00 -0.74505805969E-08  0.93827000000E+00  0.93827000000E+00 0. -1.
     999902    2    1    2    0    0  0.11654612839E-02  0.22579182394E-01  0.62649067479E-02  0.10204688228E+01  0.10201990941E+01 0.  0.
     999903    2    3    3    0    0 -0.11429700545E+00  0.60325501856E-01  0.18259709929E-01  0.13204311341E+00  0.19974863308E-01 0.  0.
         14    1    1    2    0    0 -0.11654612839E-02 -0.22579182394E-01 -0.62649067479E-02  0.23461177169E-01  0.00000000000E+00 0. -1.
     999901    1    3    3    0    0  0.11546246673E+00 -0.37746319462E-01 -0.11994803181E-01  0.88842570942E+00  0.88000000000E+00 0. -1.
        -11    1    4    4    0    0 -0.71195530025E-01  0.47409912304E-01  0.15744165386E-01  0.86974956999E-01  0.51100000000E-03 0. -1.
         11    1    4    4    0    0 -0.43101475422E-01  0.12915589551E-01  0.25155445435E-02  0.45068156412E-01  0.51100000000E-03 0.  1.
</event>
<event>
 8    1  0.1063984E+005  0.1043930E+01  0.7957747E-01            NaN
         13   -1    0    0    0    0  0.00000000000E+00  0.00000000000E+00  0.74505805969E-08  0.10566000000E+00  0.10566000000E+00 0.  1.
     999900   -1    0    0    0    0 -0.00000000000E+00 -0.00000000000E+00 -0.74505805969E-08  0.93827000000E+00  0.93827000000E+00 0.  1.
     999902    2    1    2    0    0 -0.22947436153E-01 -0.51354124609E-02 -0.41411753959E-02  0.10200530944E+01  0.10197736066E+01 0.  0.
     999903    2    3    3    0    0 -0.54015398797E-01 -0.10862394376E+00 -0.48931642816E-01  0.13231367296E+00  0.19894167933E-01 0.  0.
         14    1    1    2    0    0  0.22947436153E-01  0.51354124609E-02  0.41411753959E-02  0.23876905595E-01  0.00000000000E+00 0.  1.
     999901    1    3    3    0    0  0.31067962644E-01  0.10348853130E+00  0.44790467420E-01  0.88773942144E+00  0.88000000000E+00 0. -1.
        -11    1    4    4    0    0 -0.39756337771E-01 -0.78000230313E-01 -0.25460379341E-01  0.91176172101E-01  0.51100000000E-03 0. -1.
         11    1    4    4    0    0 -0.14259061026E-01 -0.30623713451E-01 -0.23471263475E-01  0.41137500860E-01  0.51100000000E-03 0.  1.
</event>
<event>
 8    1  0.1063984E+005  0.1043930E+01  0.7957747E-01            NaN
         13   -1    0    0    0    0  0.00000000000E+00  0.00000000000E+00  0.74505805969E-08  0.10566000000E+00  0.10566000000E+00 0. -1.
     999900   -1    0    0    0    0 -0.00000000000E+00 -0.00000000000E+00 -0.74505805969E-08  0.93827000000E+00  0.93827000000E+00 0. -1.
     999902    2    1    2    0    0  0.11078767060E-01  0.20103757527E-01  0.13487047731E-01  0.10173066906E+01  0.10169582598E+01 0.  0.
     999903    2    3    3    0    0 -0.32988259864E-01 -0.44731679124E-01  0.11377016159E+00  0.12814852716E+00  0.19729342112E-01 0.  0.
         14    1    1    2    0    0 -0.11078767060E-01 -0.20103757527E-01 -0.13487047731E-01  0.26623309388E-01  0.00000000000E+00 0. -1.
     999901    1    3    3    0    0  0.44067026924E-01  0.64835436651E-01 -0.10028311386E+00  0.88915816345E+00  0.88000000000E+00 0. -1.
        -11    1    4    4    0    0 -0.51642061783E-02 -0.19520318081E-01  0.52933278816E-01  0.56656023251E-01  0.51100000000E-03 0. -1.
         11    1    4    4    0    0 -0.27824053686E-01 -0.25211361043E-01  0.60836882770E-01  0.71492503910E-01  0.51100000000E-03 0.  1.
</event>
<event>
 8    1  0.1063984E+005  0.1043930E+01  0.7957747E-01            NaN
         13   -1    0    0    0    0  0.00000000000E+00  0.00000000000E+00  0.74505805969E-08  0.10566000000E+00  0.10566000000E+00 0. -1.
     999900   -1    0    0    0    0 -0.00000000000E+00 -0.00000000000E+00 -0.74505805969E-08  0.93827000000E+00  0.93827000000E+00 0. -1.
     999902    2    1    2    0    0  0.13451128648E-01  0.13185625267E-01  0.14265137540E-01  0.10203018870E+01  0.10200282608E+01 0.  0.
     999903    2    3    3    0    0  0.11127713458E+00 -0.61937487543E-01  0.26565237160E-01  0.13161482060E+00  0.19947333931E-01 0.  0.
         14    1    1    2    0    0 -0.13451128648E-01 -0.13185625267E-01 -0.14265137540E-01  0.23628113014E-01  0.00000000000E+00 0.  1.
     999901    1    3    3    0    0 -0.97826005937E-01  0.75123112810E-01 -0.12300099620E-01  0.88868706639E+00  0.88000000000E+00 0. -1.
        -11    1    4    4    0    0  0.10553268815E+00 -0.56933492225E-01  0.29411637152E-01  0.12346609383E+00  0.51100000000E-03 0.  1.
         11    1    4    4    0    0  0.57444464330E-02 -0.50039953174E-02 -0.28463999917E-02  0.81487267638E-02  0.51100000000E-03 0. -1.
</event>
<event>
 8    1  0.1063984E+005  0.1043930E+01  0.7957747E-01            NaN
         13   -1    0    0    0    0  0.00000000000E+00  0.00000000000E+00  0.74505805969E-08  0.10566000000E+00  0.10566000000E+00 0.  1.
     999900   -1    0    0    0    0 -0.00000000000E+00 -0.00000000000E+00 -0.74505805969E-08  0.93827000000E+00  0.93827000000E+00 0. -1.
     999902    2    1    2    0    0  0.30959856642E-02  0.62864004007E-02 -0.20589510133E-01  0.10221807038E+01  0.10219492939E+01 0.  0.
     999903    2    3    3    0    0 -0.10703256587E-01 -0.79215704971E-01  0.10025060086E+00  0.12971033370E+00  0.19618870488E-01 0.  0.
         14    1    1    2    0    0 -0.30959856642E-02 -0.62864004007E-02  0.20589510133E-01  0.21749296189E-01  0.00000000000E+00 0. -1.
     999901    1    3    3    0    0  0.13799242252E-01  0.85502105371E-01 -0.12084011099E+00  0.89247037012E+00  0.88000000000E+00 0. -1.
        -11    1    4    4    0    0 -0.35055902919E-02 -0.21950362943E-02  0.10057315395E-01  0.10886600093E-01  0.51100000000E-03 0.  1.
         11    1    4    4    0    0 -0.71976662955E-02 -0.77020668676E-01  0.90193285463E-01  0.11882373360E+00  0.51100000000E-03 0. -1.
</event>
<event>
 8    1  0.1063984E+005  0.1043930E+01  0.7957747E-01            NaN
         13   -1    0    0    0    0  0.00000000000E+00  0.00000000000E+00  0.74505805969E-08  0.10566000000E+00  0.10566000000E+00 0. -1.
     999900   -1    0    0    0    0 -0.00000000000E+00 -0.00000000000E+00 -0.74505805969E-08  0.93827000000E+00  0.93827000000E+00 0. -1.
     999902    2    1    2    0    0 -0.13119646671E-01  0.17627006842E-01 -0.69945626690E-02  0.10208700693E+01  0.10206095913E+01 0.  0.
     999903    2    3    3    0    0  0.41103463154E-01  0.38168474187E-01 -0.11787181496E+00  0.13201920292E+00  0.19722527039E-01 0.  0.
         14    1    1    2    0    0  0.13119646671E-01 -0.17627006842E-01  0.69945626690E-02  0.23059930743E-01  0.00000000000E+00 0. -1.
     999901    1    3    3    0    0 -0.54223109824E-01 -0.20541467345E-01  0.11087725229E+00  0.88885086634E+00  0.88000000000E+00 0.  1.
        -11    1    4    4    0    0  0.29556906682E-01  0.17478752354E-01 -0.83328696633E-01  0.90127966359E-01  0.51100000000E-03 0.  1.
         11    1    4    4    0    0  0.11546556472E-01  0.20689721832E-01 -0.34543118322E-01  0.41891236557E-01  0.51100000000E-03 0. -1.
</event>
<event>
 8    1  0.1063984E+005  0.1043930E+01  0.7957747E-01            NaN
         13   -1    0    0    0    0  0.00000000000E+00  0.00000000000E+00  0.74505805969E-08  0.10566000000E+00  0.10566000000E+00 0. -1.
     999900   -1    0    0    0    0 -0.00000000000E+00 -0.00000000000E+00 -0.74505805969E-08  0.93827000000E+00  0.93827000000E+00 0.  1.
     999902    2    1    2    0    0  0.21155250247E-02  0.11860591696E-01  0.19296332056E-01  0.10211814283E+01  0.10209280151E+01 0.  0.
     999903    2    3    3    0    0  0.59138900443E-01 -0.10471008116E+00 -0.44324003456E-01  0.12939225247E+00  0.17779962723E-01 0.  0.
         14    1    1    2    0    0 -0.21155250247E-02 -0.11860591696E-01 -0.19296332056E-01  0.22748571654E-01  0.00000000000E+00 0.  1.
     999901    1    3    3    0    0 -0.57023375418E-01  0.11657067286E+00  0.63620335512E-01  0.89178917587E+00  0.88000000000E+00 0. -1.
        -11    1    4    4    0    0  0.12130424326E-01 -0.36275791868E-01 -0.18128622300E-01  0.42331883226E-01  0.51100000000E-03 0.  1.
         11    1    4    4    0    0  0.47008476117E-01 -0.68434289296E-01 -0.26195381156E-01  0.87060369246E-01  0.51100000000E-03 0. -1.
</event>
<event>
 8    1  0.1063984E+005  0.1043930E+01  0.7957747E-01            NaN
         13   -1    0    0    0    0  0.00000000000E+00  0.00000000000E+00  0.74505805969E-08  0.10566000000E+00  0.10566000000E+00 0.  1.
     999900   -1    0    0    0    0 -0.00000000000E+00 -0.00000000000E+00 -0.74505805969E-08  0.93827000000E+00  0.93827000000E+00 0.  1.
     999902    2    1    2    0    0 -0.35883411644E-02  0.95256929250E-02  0.21317789834E-01  0.10203066391E+01  0.10200331242E+01 0.  0.
     999903    2    3    3    0    0 -0.70310240660E-01  0.35291038344E-01  0.10581709678E+00  0.13337045322E+00  0.20035780329E-01 0.  0.
         14    1    1    2    0    0  0.35883411644E-02 -0.95256929250E-02 -0.21317789834E-01  0.23623360926E-01  0.00000000000E+00 0. -1.
     999901    1    3    3    0    0  0.66721899496E-01 -0.25765345419E-01 -0.84499306944E-01  0.88693618585E+00  0.88000000000E+00 0.  1.
        -11    1    4    4    0    0 -0.52424197034E-01  0.35386933258E-01  0.84103346086E-01  0.10523386063E+00  0.51100000000E-03 0.  1.
         11    1    4    4    0    0 -0.17886043627E-01 -0.95894913617E-04  0.21713750692E-01  0.28136592590E-01  0.51100000000E-03 0. -1.
</event>
<event>
 8    1  0.1063984E+005  0.1043930E+01  0.7957747E-01            NaN
         13   -1    0    0    0    0  0.00000000000E+00  0.00000000000E+00  0.74505805969E-08  0.10566000000E+00  0.10566000000E+00 0. -1.
     999900   -1    0    0    0    0 -0.00000000000E+00 -0.00000000000E+00 -0.74505805969E-08  0.93827000000E+00  0.93827000000E+00 0.  1.
     999902    2    1    2    0    0  0.17714913728E-01  0.16288621843E-02 -0.16289048651E-01  0.10198093767E+01  0.10195240853E+01 0.  0.
     999903    2    3    3    0    0  0.97878526611E-01  0.84677230674E-01 -0.17248978950E-01  0.13227111965E+00  0.21158507788E-01 0.  0.
         14    1    1    2    0    0 -0.17714913728E-01 -0.16288621843E-02  0.16289048651E-01  0.24120623258E-01  0.00000000000E+00 0. -1.
     999901    1    3    3    0    0 -0.80163612883E-01 -0.83048368490E-01  0.95993029864E-03  0.88753825709E+00  0.88000000000E+00 0. -1.
        -11    1    4    4    0    0  0.71575653767E-01  0.72937118949E-01 -0.10901682696E-01  0.10277161738E+00  0.51100000000E-03 0. -1.
         11    1    4    4    0    0  0.26302872844E-01  0.11740111725E-01 -0.63472962543E-02  0.29499502265E-01  0.51100000000E-03 0.  1.
</event>
<event>
 8    1  0.1063984E+005  0.1043930E+01  0.7957747E-01            NaN
         13   -1    0    0    0    0  0.00000000000E+00  0.00000000000E+00  0.74505805969E-08  0.10566000000E+00  0.10566000000E+00 0. -1.
     999900   -1    0    0    0    0 -0.00000000000E+00 -0.00000000000E+00 -0.74505805969E-08  0.93827000000E+00  0.93827000000E+00 0.  1.
     999902    2    1    2    0    0  0.18481185103E-01  0.13702104672E-01 -0.10026925658E-01  0.10188333645E+01  0.10185242184E+01 0.  0.
     999903    2    3    3    0    0 -0.66800649807E-01  0.35688718960E-01 -0.10363035723E+00  0.12949765456E+00  0.17157509208E-01 0.  0.
         14    1    1    2    0    0 -0.18481185103E-01 -0.13702104672E-01  0.10026925658E-01  0.25096635500E-01  0.00000000000E+00 0. -1.
     999901    1    3    3    0    0  0.85281834911E-01 -0.21986614288E-01  0.93603431567E-01  0.88933570994E+00  0.88000000000E+00 0. -1.
        -11    1    4    4    0    0 -0.24156062966E-01  0.22289716754E-01 -0.41025089665E-01  0.52570580689E-01  0.51100000000E-03 0. -1.
         11    1    4    4    0    0 -0.42644586842E-01  0.13399002205E-01 -0.62605267561E-01  0.76927073871E-01  0.51100000000E-03 0.  1.
</event>
<event>
 8    1  0.1063984E+005  0.1043930E+01  0.7957747E-01            NaN
         13   -1    0    0    0    0  0.00000000000E+00  0.00000000000E+00  0.74505805969E-08  0.10566000000E+00  0.10566000000E+00 0. -1.
     999900   -1    0    0    0    0 -0.00000000000E+00 -0.00000000000E+00 -0.74505805969E-08  0.93827000000E+00  0.93827000000E+00 0.  1.
     999902    2    1    2    0    0 -0.21749616308E-02 -0.24100881465E-01  0.25938858440E-02  0.10195925558E+01  0.10193020498E+01 0.  0.
     999903    2    3    3    0    0  0.12519476673E+00 -0.65294800170E-02 -0.27145111046E-01  0.12975200281E+00  0.19554064893E-01 0.  0.
         14    1    1    2    0    0  0.21749616308E-02  0.24100881465E-01 -0.25938858440E-02  0.24337444181E-01  0.00000000000E+00 0. -1.
     999901    1    3    3    0    0 -0.12736972836E+00 -0.17571401448E-01  0.29738996890E-01  0.88984055301E+00  0.88000000000E+00 0. -1.
        -11    1    4    4    0    0  0.50220905963E-01  0.13337312106E-02 -0.19956333053E-02  0.50280830423E-01  0.51100000000E-03 0. -1.
         11    1    4    4    0    0  0.74973860762E-01 -0.78632112276E-02 -0.25149477740E-01  0.79471172383E-01  0.51100000000E-03 0.  1.
</event>
<event>
 8    1  0.1063984E+005  0.1043930E+01  0.7957747E-01            NaN
         13   -1    0    0    0    0  0.00000000000E+00  0.00000000000E+00  0.74505805969E-08  0.10566000000E+00  0.10566000000E+00 0. -1.
     999900   -1    0    0    0    0 -0.00000000000E+00 -0.00000000000E+00 -0.74505805969E-08  0.93827000000E+00  0.93827000000E+00 0. -1.
     999902    2    1    2    0    0  0.21723313775E-01  0.12112827705E-01 -0.33514208675E-02  0.10188330883E+01  0.10185239353E+01 0.  0.
     999903    2    3    3    0    0 -0.46308894713E-01  0.78830206001E-01 -0.90216718430E-01  0.12943713040E+00  0.16006227997E-01 0.  0.
         14    1    1    2    0    0 -0.21723313775E-01 -0.12112827705E-01  0.33514208675E-02  0.25096911726E-01  0.00000000000E+00 0.  1.
     999901    1    3    3    0    0  0.68032208487E-01 -0.66717378295E-01  0.86865297563E-01  0.88939595787E+00  0.88000000000E+00 0.  1.
        -11    1    4    4    0    0 -0.59865476834E-02  0.23001714159E-01 -0.19772776721E-01  0.30921536632E-01  0.51100000000E-03 0.  1.
         11    1    4    4    0    0 -0.40322347030E-01  0.55828491841E-01 -0.70443941710E-01  0.98515593770E-01  0.51100000000E-03 0. -1.
</event>
<event>
 8    1  0.1063984E+005  0.1043930E+01  0.7957747E-01            NaN
         13   -1    0    0    0    0  0.00000000000E+00  0.00000000000E+00  0.74505805969E-08  0.10566000000E+00  0.10566000000E+00 0. -1.
     999900   -1    0    0    0    0 -0.00000000000E+00 -0.00000000000E+00 -0.74505805969E-08  0.93827000000E+00  0.93827000000E+00 0. -1.
     999902    2    1    2    0    0  0.10667812737E-01  0.18060216552E-01  0.10727935846E-01  0.10203702407E+01  0.10200982138E+01 0.  0.
     999903    2    3    3    0    0 -0.11243239885E+00  0.28876010716E-01  0.56175574222E-01  0.13057468479E+00  0.20474004581E-01 0.  0.
         14    1    1    2    0    0 -0.10667812737E-01 -0.18060216552E-01 -0.10727935846E-01  0.23559759295E-01  0.00000000000E+00 0.  1.
     999901    1    3    3    0    0  0.12310021158E+00 -0.10815794163E-01 -0.45447638376E-01  0.88979555592E+00  0.88000000000E+00 0. -1.
        -11    1    4    4    0    0 -0.48424070921E-01  0.63040294525E-02  0.14563289461E-01  0.50960592155E-01  0.51100000000E-03 0.  1.
         11    1    4    4    0    0 -0.64008327924E-01  0.22571981263E-01  0.41612284761E-01  0.79614092633E-01  0.51100000000E-03 0. -1.
</event>
<event>
 8    1  0.1063984E+005  0.1043930E+01  0.7957747E-01            NaN
         13   -1    0    0    0    0  0.00000000000E+00  0.00000000000E+00  0.74505805969E-08  0.10566000000E+00  0.10566000000E+00 0. -1.
     999900   -1    0    0    0    0 -0.00000000000E+00 -0.00000000000E+00 -0.74505805969E-08  0.93827000000E+00  0.93827000000E+00 0.  1.
     999902    2    1    2    0    0 -0.15000208511E-01 -0.58934672522E-02  0.34869018139E-02  0.10274406793E+01  0.10273083529E+01 0.  0.
     999903    2    3    3    0    0 -0.82720897042E-01  0.16462517456E-01  0.10801494995E+00  0.13838950277E+00  0.19252630386E-01 0.  0.
         14    1    1    2    0    0  0.15000208511E-01  0.58934672522E-02 -0.34869018139E-02  0.16489320662E-01  0.00000000000E+00 0.  1.
     999901    1    3    3    0    0  0.67720688531E-01 -0.22355984708E-01 -0.10452804813E+00  0.88905117657E+00  0.88000000000E+00 0.  1.
        -11    1    4    4    0    0 -0.52524695491E-01  0.33237986743E-02  0.76104277249E-01  0.92531148327E-01  0.51100000000E-03 0.  1.
         11    1    4    4    0    0 -0.30196201551E-01  0.13138718782E-01  0.31910672699E-01  0.45858354445E-01  0.51100000000E-03 0. -1.
</event>
<event>
 8    1  0.1063984E+005  0.1043930E+01  0.7957747E-01            NaN
         13   -1    0    0    0    0  0.00000000000E+00  0.00000000000E+00  0.74505805969E-08  0.10566000000E+00  0.10566000000E+00 0.  1.
     999900   -1    0    0    0    0 -0.00000000000E+00 -0.00000000000E+00 -0.74505805969E-08  0.93827000000E+00  0.93827000000E+00 0. -1.
     999902    2    1    2    0    0 -0.10434648987E-01  0.12519361628E-01  0.16843386206E-01  0.10204925092E+01  0.10202233311E+01 0.  0.
     999903    2    3    3    0    0 -0.10776161473E+00 -0.68705890545E-01  0.22770507137E-01  0.13138890974E+00  0.20285083272E-01 0.  0.
         14    1    1    2    0    0  0.10434648987E-01 -0.12519361628E-01 -0.16843386206E-01  0.23437490777E-01  0.00000000000E+00 0. -1.
     999901    1    3    3    0    0  0.97326965740E-01  0.81225252173E-01 -0.59271209318E-02  0.88910359948E+00  0.88000000000E+00 0.  1.
        -11    1    4    4    0    0 -0.58299345793E-01 -0.27814688319E-01  0.49696329735E-02  0.64787568090E-01  0.51100000000E-03 0.  1.
         11    1    4    4    0    0 -0.49462268934E-01 -0.40891202226E-01  0.17800874164E-01  0.66601341650E-01  0.51100000000E-03 0. -1.
</event>
<event>
 8    1  0.1063984E+005  0.1043930E+01  0.7957747E-01            NaN
         13   -1    0    0    0    0  0.00000000000E+00  0.00000000000E+00  0.74505805969E-08  0.10566000000E+00  0.10566000000E+00 0. -1.
     999900   -1    0    0    0    0 -0.00000000000E+00 -0.00000000000E+00 -0.74505805969E-08  0.93827000000E+00  0.93827000000E+00 0.  1.
     999902    2    1    2    0    0  0.11702245832E-01  0.17559706321E-01  0.10095416505E-01  0.10205376235E+01  0.10202694927E+01 0.  0.
     999903    2    3    3    0    0 -0.10774245518E+00  0.32251870899E-01 -0.60674217245E-01  0.12953187865E+00  0.21178458959E-01 0.  0.
         14    1    1    2    0    0 -0.11702245832E-01 -0.17559706321E-01 -0.10095416505E-01  0.23392376493E-01  0.00000000000E+00 0.  1.
     999901    1    3    3    0    0  0.11944470101E+00 -0.14692164578E-01  0.70769633749E-01  0.89100574485E+00  0.88000000000E+00 0.  1.
        -11    1    4    4    0    0 -0.73395963569E-01  0.15810098117E-01 -0.49172852340E-01  0.89750527569E-01  0.51100000000E-03 0. -1.
         11    1    4    4    0    0 -0.34346491614E-01  0.16441772783E-01 -0.11501364904E-01  0.39781351084E-01  0.51100000000E-03 0.  1.
</event>
<event>
 8    1  0.1063984E+005  0.1043930E+01  0.7957747E-01            NaN
         13   -1    0    0    0    0  0.00000000000E+00  0.00000000000E+00  0.74505805969E-08  0.10566000000E+00  0.10566000000E+00 0.  1.
     999900   -1    0    0    0    0 -0.00000000000E+00 -0.00000000000E+00 -0.74505805969E-08  0.93827000000E+00  0.93827000000E+00 0.  1.
     999902    2    1    2    0    0  0.62298245466E-02 -0.21322565332E-01  0.26247254220E-02  0.10215614576E+01  0.10213165327E+01 0.  0.
     999903    2    3    3    0    0  0.19868444342E-01 -0.32467361012E-01  0.12569774236E+00  0.13282235868E+00  0.19823519358E-01 0.  0.
         14    1    1    2    0    0 -0.62298245466E-02  0.21322565332E-01 -0.26247254220E-02  0.22368542415E-01  0.00000000000E+00 0.  1.
     999901    1    3    3    0    0 -0.13638619795E-01  0.11144795680E-01 -0.12307301694E+00  0.88873909890E+00  0.88000000000E+00 0.  1.
        -11    1    4    4    0    0 -0.42231121408E-03 -0.13273646064E-01  0.59600366388E-01  0.61064169700E-01  0.51100000000E-03 0. -1.
         11    1    4    4    0    0  0.20290755556E-01 -0.19193714948E-01  0.66097375973E-01  0.71758188982E-01  0.51100000000E-03 0.  1.
</event>
<event>
 8    1  0.1063984E+005  0.1043930E+01  0.7957747E-01            NaN
         13   -1    0    0    0    0  0.00000000000E+00  0.00000000000E+00  0.74505805969E-08  0.10566000000E+00  0.10566000000E+00 0. -1.
     999900   -1    0    0    0    0 -0.00000000000E+00 -0.00000000000E+00 -0.74505805969E-08  0.93827000000E+00  0.93827000000E+00 0.  1.
     999902    2    1    2    0    0  0.23216531818E-01 -0.13011557486E-01 -0.60943850064E-02  0.10166270788E+01  0.10162603839E+01 0.  0.
     999903    2    3    3    0    0  0.67753171464E-01 -0.10439042156E+00  0.31689945679E-01  0.12996972405E+00  0.20000603895E-01 0.  0.
         14    1    1    2    0    0 -0.23216531818E-01  0.13011557486E-01  0.60943850064E-02  0.27302921208E-01  0.00000000000E+00 0. -1.
     999901    1    3    3    0    0 -0.44536639646E-01  0.91378864074E-01 -0.37784330685E-01  0.88665735474E+00  0.88000000000E+00 0. -1.
        -11    1    4    4    0    0  0.88836592315E-03 -0.10856709407E-01  0.90362685446E-03  0.10942348727E-01  0.51100000000E-03 0. -1.
         11    1    4    4    0    0  0.66864805540E-01 -0.93533712153E-01  0.30786318825E-01  0.11902737533E+00  0.51100000000E-03 0.  1.
</event>
<event>
 8    1  0.1063984E+005  0.1043930E+01  0.7957747E-01            NaN
         13   -1    0    0    0    0  0.00000000000E+00  0.00000000000E+00  0.74505805969E-08  0.10566000000E+00  0.10566000000E+00 0.  1.
     999900   -1    0    0    0    0 -0.00000000000E+00 -0.00000000000E+00 -0.74505805969E-08  0.93827000000E+00  0.93827000000E+00 0.  1.
     999902    2    1    2    0    0 -0.19322120175E-01 -0.14973530321E-01 -0.32063232774E-02  0.10192757621E+01  0.10189775502E+01 0.  0.
     999903    2    3    3    0    0  0.96636524846E-01  0.78638197368E-01  0.10020140508E-01  0.12664789883E+00  0.20413305504E-01 0.  0.
         14    1    1    2    0    0  0.19322120175E-01  0.14973530321E-01  0.32063232774E-02  0.24654237918E-01  0.00000000000E+00 0.  1.
     999901    1    3    3    0    0 -0.11595864502E+00 -0.93611727689E-01 -0.13226463785E-01  0.89262786326E+00  0.88000000000E+00 0. -1.
        -11    1    4    4    0    0  0.42700799071E-01  0.44355184758E-01  0.11892983040E-01  0.62709208437E-01  0.51100000000E-03 0. -1.
         11    1    4    4    0    0  0.53935725775E-01  0.34283012610E-01 -0.18728425318E-02  0.63938690389E-01  0.51100000000E-03 0.  1.
</event>
<event>
 8    1  0.1063984E+005  0.1043930E+01  0.7957747E-01            NaN
         13   -1    0    0    0    0  0.00000000000E+00  0.00000000000E+00  0.74505805969E-08  0.10566000000E+00  0.10566000000E+00 0.  1.
     999900   -1    0    0    0    0 -0.00000000000E+00 -0.00000000000E+00 -0.74505805969E-08  0.93827000000E+00  0.93827000000E+00 0. -1.
     999902    2    1    2    0    0  0.18895305059E-01  0.22489308901E-02  0.14552546824E-01  0.10199744816E+01  0.10196931285E+01 0.  0.
     999903    2    3    3    0    0  0.83536455586E-01 -0.77905875358E-01  0.64501600664E-01  0.13256353998E+00  0.19104209381E-01 0.  0.
         14    1    1    2    0    0 -0.18895305059E-01 -0.22489308901E-02 -0.14552546824E-01  0.23955518414E-01  0.00000000000E+00 0. -1.
     999901    1    3    3    0    0 -0.64641150526E-01  0.80154806248E-01 -0.49949053840E-01  0.88741094161E+00  0.88000000000E+00 0. -1.
        -11    1    4    4    0    0  0.32296493097E-01 -0.42878154857E-01  0.32036131853E-01  0.62515394068E-01  0.51100000000E-03 0.  1.
         11    1    4    4    0    0  0.51239962489E-01 -0.35027720501E-01  0.32465468811E-01  0.70048145910E-01  0.51100000000E-03 0. -1.
</event>
<event>
 8    1  0.1063984E+005  0.1043930E+01  0.7957747E-01            NaN
         13   -1    0    0    0    0  0.00000000000E+00  0.00000000000E+00  0.74505805969E-08  0.10566000000E+00  0.10566000000E+00 0. -1.
     999900   -1    0    0    0    0 -0.00000000000E+00 -0.00000000000E+00 -0.74505805969E-08  0.93827000000E+00  0.93827000000E+00 0.  1.
     999902    2    1    2    0    0 -0.22104841081E-01  0.98140502913E-03  0.10356794728E-01  0.10194994791E+01  0.10192067197E+01 0.  0.
     999903    2    3    3    0    0 -0.10515676264E+00  0.41028817795E-01 -0.64540993988E-01  0.13151800648E+00  0.19751898766E-01 0.  0.
         14    1    1    2    0    0  0.22104841081E-01 -0.98140502913E-03 -0.10356794728E-01  0.24430520913E-01  0.00000000000E+00 0.  1.
     999901    1    3    3    0    0  0.83051921556E-01 -0.40047412766E-01  0.74897788717E-01  0.88798147261E+00  0.88000000000E+00 0. -1.
        -11    1    4    4    0    0 -0.22249010450E-01  0.13424426145E-02 -0.84846707544E-02  0.23855216976E-01  0.51100000000E-03 0.  1.
         11    1    4    4    0    0 -0.82907752186E-01  0.39686375181E-01 -0.56056323234E-01  0.10766278950E+00  0.51100000000E-03 0. -1.
</event>
<event>
 8    1  0.1063984E+005  0.1043930E+01  0.7957747E-01            NaN
         13   -1    0    0    0    0  0.00000000000E+00  0.00000000000E+00  0.74505805969E-08  0.10566000000E+00  0.10566000000E+00 0.  1.
     999900   -1    0    0    0    0 -0.00000000000E+00 -0.00000000000E+00 -0.74505805969E-08  0.93827000000E+00  0.93827000000E+00 0. -1.
     999902    2    1    2    0    0 -0.19267985323E-02 -0.23711174253E-01  0.38228544507E-02  0.10198354663E+01  0.10195507990E+01 0.  0.
     999903    2    3    3    0    0  0.95921807605E-01 -0.67019409394E-01 -0.56139931280E-01  0.13132801637E+00  0.20068920970E-01 0.  0.
         14    1    1    2    0    0  0.19267985323E-02  0.23711174253E-01 -0.38228544507E-02  0.24094533678E-01  0.00000000000E+00 0.  1.
     999901    1    3    3    0    0 -0.97848606137E-01  0.43308235141E-01  0.59962785731E-01  0.88850744996E+00  0.88000000000E+00 0.  1.
        -11    1    4    4    0    0  0.27831529433E-01 -0.23432758615E-01 -0.27305959578E-01  0.45492469227E-01  0.51100000000E-03 0. -1.
         11    1    4    4    0    0  0.68090278171E-01 -0.43586650779E-01 -0.28833971703E-01  0.85835547139E-01  0.51100000000E-03 0.  1.
</event>
<event>
 8    1  0.1063984E+005  0.1043930E+01  0.7957747E-01            NaN
         13   -1    0    0    0    0  0.00000000000E+00  0.00000000000E+00  0.74505805969E-08  0.10566000000E+00  0.10566000000E+00 0.  1.
     999900   -1    0    0    0    0 -0.00000000000E+00 -0.00000000000E+00 -0.74505805969E-08  0.93827000000E+00  0.93827000000E+00 0. -1.
     999902    2    1    2    0    0 -0.44948285255E-03 -0.12598437513E-01 -0.20359981194E-01  0.10199831527E+01  0.10197020056E+01 0.  0.
     999903    2    3    3    0    0 -0.18591796721E-01 -0.49216872816E-01  0.11564902747E+00  0.12859743157E+00  0.19865708550E-01 0.  0.
         14    1    1    2    0    0  0.44948285255E-03  0.12598437513E-01  0.20359981194E-01  0.23946847325E-01  0.00000000000E+00 0.  1.
     999901    1    3    3    0    0  0.18142313868E-01  0.36618435303E-01 -0.13600900866E+00  0.89138572111E+00  0.88000000000E+00 0. -1.
        -11    1    4    4    0    0 -0.12708450639E-01 -0.28999011331E-01  0.46091103980E-01  0.55920464617E-01  0.51100000000E-03 0. -1.
         11    1    4    4    0    0 -0.58833460820E-02 -0.20217861485E-01  0.69557923488E-01  0.72676966951E-01  0.51100000000E-03 0.  1.
</event>
<event>
 8    1  0.1063984E+005  0.1043930E+01  0.7957747E-01            NaN
         13   -1    0    0    0    0  0.00000000000E+00  0.00000000000E+00  0.74505805969E-08  0.10566000000E+00  0.10566000000E+00 0. -1.
     999900   -1    0    0    0    0 -0.00000000000E+00 -0.00000000000E+00 -0.74505805969E-08  0.93827000000E+00  0.93827000000E+00 0. -1.
     999902    2    1    2    0    0 -0.23623879112E-01  0.22831583835E-02  0.24225064569E-02  0.10200727367E+01  0.10197937140E+01 0.  0.
     999903    2    3    3    0    0 -0.52604301920E-01 -0.51708940868E-01 -0.10723082056E+00  0.13115268187E+00  0.16172505574E-01 0.  0.
         14    1    1    2    0    0  0.23623879112E-01 -0.22831583835E-02 -0.24225064569E-02  0.23857263339E-01  0.00000000000E+00 0. -1.
     999901    1    3    3    0    0  0.28980422809E-01  0.53992099251E-01  0.10965332702E+00  0.88892005479E+00  0.88000000000E+00 0.  1.
        -11    1    4    4    0    0 -0.31548670609E-01 -0.22456960377E-01 -0.46340786565E-01  0.60393404500E-01  0.51100000000E-03 0.  1.
         11    1    4    4    0    0 -0.21055631311E-01 -0.29251980490E-01 -0.60890033996E-01  0.70759277368E-01  0.51100000000E-03 0. -1.
</event>
<event>
 8    1  0.1063984E+005  0.1043930E+01  0.7957747E-01            NaN
         13   -1    0    0    0    0  0.00000000000E+00  0.00000000000E+00  0.74505805969E-08  0.10566000000E+00  0.10566000000E+00 0. -1.
     999900   -1    0    0    0    0 -0.00000000000E+00 -0.00000000000E+00 -0.74505805969E-08  0.93827000000E+00  0.93827000000E+00 0. -1.
     999902    2    1    2    0    0 -0.21989580897E-01 -0.85302999531E-02  0.13383291455E-02  0.10203058850E+01  0.10200323525E+01 0.  0.
     999903    2    3    3    0    0  0.34847139003E-03  0.10647418037E-01 -0.12821275474E+00  0.13033383105E+00  0.20854450271E-01 0.  0.
         14    1    1    2    0    0  0.21989580897E-01  0.85302999531E-02 -0.13383291455E-02  0.23624115015E-01  0.00000000000E+00 0.  1.
     999901    1    3    3    0    0 -0.22338052287E-01 -0.19177717990E-01  0.12955108388E+00  0.88997205393E+00  0.88000000000E+00 0.  1.
        -11    1    4    4    0    0 -0.14927392323E-03  0.16810535197E-01 -0.10329372097E+00  0.10465405052E+00  0.51100000000E-03 0. -1.
         11    1    4    4    0    0  0.49774531326E-03 -0.61631171601E-02 -0.24919033766E-01  0.25679780536E-01  0.51100000000E-03 0.  1.
</event>
<event>
 8    1  0.1063984E+005  0.1043930E+01  0.7957747E-01            NaN
         13   -1    0    0    0    0  0.00000000000E+00  0.00000000000E+00  0.74505805969E-08  0.10566000000E+00  0.10566000000E+00 0.  1.
     999900   -1    0    0    0    0 -0.00000000000E+00 -0.00000000000E+00 -0.74505805969E-08  0.93827000000E+00  0.93827000000E+00 0.  1.
     999902    2    1    2    0    0 -0.81242292137E-02 -0.92534033273E-02  0.21008702393E-01  0.10195785288E+01  0.10192876837E+01 0.  0.
     999903    2    3    3    0    0  0.96741104369E-01  0.32236903918E-01 -0.74938198032E-01  0.12720865510E+00  0.12971089372E-01 0.  0.
         14    1    1    2    0    0  0.81242292137E-02  0.92534033273E-02 -0.21008702393E-01  0.24351471202E-01  0.00000000000E+00 0.  1.
     999901    1    3    3    0    0 -0.10486533358E+00 -0.41490307245E-01  0.95946900425E-01  0.89236987370E+00  0.88000000000E+00 0. -1.
        -11    1    4    4    0    0  0.62569337885E-01  0.19499212484E-01 -0.40477396007E-01  0.77031305580E-01  0.51100000000E-03 0. -1.
         11    1    4    4    0    0  0.34171766483E-01  0.12737691434E-01 -0.34460802025E-01  0.50177349520E-01  0.51100000000E-03 0.  1.
</event>
<event>
 8    1  0.1063984E+005  0.1043930E+01  0.7957747E-01            NaN
         13   -1    0    0    0    0  0.00000000000E+00  0.00000000000E+00  0.74505805969E-08  0.10566000000E+00  0.10566000000E+00 0.  1.
     999900   -1    0    0    0    0 -0.00000000000E+00 -0.00000000000E+00 -0.74505805969E-08  0.93827000000E+00  0.93827000000E+00 0. -1.
     999902    2    1    2    0    0  0.14605472001E-01 -0.20827312466E-01  0.12131749483E-01  0.10157470956E+01  0.10153560391E+01 0.  0.
     999903    2    3    3    0    0 -0.13681145102E-01  0.43883758897E-01  0.11642461518E+00  0.12677878494E+00  0.20129860003E-01 0.  0.
         14    1    1    2    0    0 -0.14605472001E-01  0.20827312466E-01 -0.12131749483E-01  0.28182904436E-01  0.00000000000E+00 0. -1.
     999901    1    3    3    0    0  0.28286617102E-01 -0.64711071363E-01 -0.10429286570E+00  0.88896831063E+00  0.88000000000E+00 0. -1.
        -11    1    4    4    0    0 -0.14467482820E-02  0.34995948040E-01  0.79594531397E-01  0.86961830760E-01  0.51100000000E-03 0. -1.
         11    1    4    4    0    0 -0.12234396820E-01  0.88878108570E-02  0.36830083784E-01  0.39816954177E-01  0.51100000000E-03 0.  1.
</event>
<event>
 8    1  0.1063984E+005  0.1043930E+01  0.7957747E-01            NaN
         13   -1    0    0    0    0  0.00000000000E+00  0.00000000000E+00  0.74505805969E-08  0.10566000000E+00  0.10566000000E+00 0. -1.
     999900   -1    0    0    0    0 -0.00000000000E+00 -0.00000000000E+00 -0.74505805969E-08  0.93827000000E+00  0.93827000000E+00 0. -1.
     999902    2    1    2    0    0 -0.22968163971E-01 -0.40014650392E-02 -0.24345947717E-02  0.10204891056E+01  0.10202198484E+01 0.  0.
     999903    2    3    3    0    0  0.23919076627E-01  0.11177927827E+00  0.57711352766E-01  0.12963494870E+00  0.20196296963E-01 0.  0.
         14    1    1    2    0    0  0.22968163971E-01  0.40014650392E-02  0.24345947717E-02  0.23440894402E-01  0.00000000000E+00 0.  1.
     999901    1    3    3    0    0 -0.46887240597E-01 -0.11578074331E+00 -0.60145947538E-01  0.89085415689E+00  0.88000000000E+00 0. -1.
        -11    1    4    4    0    0  0.18493087970E-01  0.40870895793E-01  0.19717932760E-01  0.49004922395E-01  0.51100000000E-03 0.  1.
         11    1    4    4    0    0  0.54259886566E-02  0.70908382473E-01  0.37993420006E-01  0.80630026309E-01  0.51100000000E-03 0. -1.
</event>
<event>
 8    1  0.1063984E+005  0.1043930E+01  0.7957747E-01            NaN
         13   -1    0    0    0    0  0.00000000000E+00  0.00000000000E+00  0.74505805969E-08  0.10566000000E+00  0.10566000000E+00 0.  1.
     999900   -1    0    0    0    0 -0.00000000000E+00 -0.00000000000E+00 -0.74505805969E-08  0.93827000000E+00  0.93827000000E+00 0. -1.
     999902    2    1    2    0    0  0.18455320037E-01 -0.59234838517E-02 -0.12236700530E-01  0.10210078854E+01  0.10207505467E+01 0.  0.
     999903    2    3    3    0    0  0.48322379572E-01  0.92299060618E-01 -0.79317702496E-01  0.13250376592E+00  0.20292390059E-01 0.  0.
         14    1    1    2    0    0 -0.18455320037E-01  0.59234838517E-02  0.12236700530E-01  0.22922114616E-01  0.00000000000E+00 0.  1.
     999901    1    3    3    0    0 -0.29867059535E-01 -0.98222544469E-01  0.67081001966E-01  0.88850411947E+00  0.88000000000E+00 0. -1.
        -11    1    4    4    0    0  0.30872771049E-01  0.45636054582E-01 -0.31607353136E-01  0.63522148605E-01  0.51100000000E-03 0. -1.
         11    1    4    4    0    0  0.17449608523E-01  0.46663006036E-01 -0.47710349359E-01  0.68981617311E-01  0.51100000000E-03 0.  1.
</event>
<event>
 8    1  0.1063984E+005  0.1043930E+01  0.7957747E-01            NaN
         13   -1    0    0    0    0  0.00000000000E+00  0.00000000000E+00  0.74505805969E-08  0.10566000000E+00  0.10566000000E+00 0. -1.
     999900   -1    0    0    0    0 -0.00000000000E+00 -0.00000000000E+00 -0.74505805969E-08  0.93827000000E+00  0.93827000000E+00 0. -1.
     999902    2    1    2    0    0  0.36082987566E-02 -0.23055591409E-01  0.43526584722E-02  0.10201913027E+01  0.10199150790E+01 0.  0.
     999903    2    3    3    0    0  0.14645285316E-01 -0.12998687242E+00  0.17357175746E-01  0.13355426792E+00  0.20600959822E-01 0.  0.
         14    1    1    2    0    0 -0.36082987566E-02  0.23055591409E-01 -0.43526584722E-02  0.23738697329E-01  0.00000000000E+00 0.  1.
     999901    1    3    3    0    0 -0.11036986560E-01  0.10693128101E+00 -0.13004517273E-01  0.88663703476E+00  0.88000000000E+00 0. -1.
        -11    1    4    4    0    0  0.96241834941E-02 -0.75966552760E-01 -0.47243604154E-04  0.76575488240E-01  0.51100000000E-03 0. -1.
         11    1    4    4    0    0  0.50211018222E-02 -0.54020319657E-01  0.17404419350E-01  0.56978779675E-01  0.51100000000E-03 0.  1.
</event>
<event>
 8    1  0.1063984E+005  0.1043930E+01  0.7957747E-01            NaN
         13   -1    0    0    0    0  0.00000000000E+00  0.00000000000E+00  0.74505805969E-08  0.10566000000E+00  0.10566000000E+00 0.  1.
     999900   -1    0    0    0    0 -0.00000000000E+00 -0.00000000000E+00 -0.74505805969E-08  0.93827000000E+00  0.93827000000E+00 0.  1.
     999902    2    1    2    0    0  0.18438948568E-01  0.10897286537E-01  0.11185183952E-01  0.10197669286E+01  0.10194806201E+01 0.  0.
     999903    2    3    3    0    0  0.82816299580E-01 -0.41069523255E-01 -0.89328447905E-01  0.13018951050E+00  0.20603199352E-01 0.  0.
         14    1    1    2    0    0 -0.18438948568E-01 -0.10897286537E-01 -0.11185183952E-01  0.24163071374E-01  0.00000000000E+00 0. -1.
     999901    1    3    3    0    0 -0.64377351012E-01  0.51966809792E-01  0.10051363186E+00  0.88957741812E+00  0.88000000000E+00 0. -1.
        -11    1    4    4    0    0  0.62233879827E-01 -0.33513256603E-01 -0.55485166753E-01  0.89861332157E-01  0.51100000000E-03 0. -1.
         11    1    4    4    0    0  0.20582419754E-01 -0.75562666515E-02 -0.33843281152E-01  0.40328178347E-01  0.51100000000E-03 0.  1.
</event>
<event>
 8    1  0.1240068E+005  0.1043930E+01  0.7957747E-01            NaN
         13   -1    0    0    0    0  0.00000000000E+00  0.00000000000E+00  0.74505805969E-08  0.10566000000E+00  0.10566000000E+00 0. -1.
     999900   -1    0    0    0    0 -0.00000000000E+00 -0.00000000000E+00 -0.74505805969E-08  0.93827000000E+00  0.93827000000E+00 0. -1.
     999902    2    1    2    0    0 -0.45644070061E-02  0.13336093453E-01  0.19580177463E-01  0.10198039031E+01  0.10195184806E+01 0.  0.
     999903    2    3    3    0    0  0.53251419480E-01 -0.26957878043E-01 -0.11067343972E+00  0.12742938607E+00  0.20668752042E-01 0.  0.
         14    1    1    2    0    0  0.45644070061E-02 -0.13336093453E-01 -0.19580177463E-01  0.24126096854E-01  0.00000000000E+00 0.  1.
     999901    1    3    3    0    0 -0.57815826486E-01  0.40293971496E-01  0.13025361718E+00  0.89237451707E+00  0.88000000000E+00 0.  1.
        -11    1    4    4    0    0  0.17884783486E-01 -0.19770252835E-01 -0.54260614435E-01  0.60458281297E-01  0.51100000000E-03 0.  1.
         11    1    4    4    0    0  0.35366635994E-01 -0.71876252079E-02 -0.56412825283E-01  0.66971104777E-01  0.51100000000E-03 0. -1.
</event>
<event>
 8    1  0.1063984E+005  0.1043930E+01  0.7957747E-01            NaN
         13   -1    0    0    0    0  0.00000000000E+00  0.00000000000E+00  0.74505805969E-08  0.10566000000E+00  0.10566000000E+00 0. -1.
     999900   -1    0    0    0    0 -0.00000000000E+00 -0.00000000000E+00 -0.74505805969E-08  0.93827000000E+00  0.93827000000E+00 0.  1.
     999902    2    1    2    0    0  0.13017910895E-01  0.73680995490E-02  0.18357688760E-01  0.10202496362E+01  0.10199747842E+01 0.  0.
     999903    2    3    3    0    0 -0.69175621374E-01  0.71171457215E-01  0.84193811258E-01  0.13167716291E+00  0.19990859471E-01 0.  0.
         14    1    1    2    0    0 -0.13017910895E-01 -0.73680995490E-02 -0.18357688760E-01  0.23680363841E-01  0.00000000000E+00 0.  1.
     999901    1    3    3    0    0  0.82193532269E-01 -0.63803357666E-01 -0.65836122497E-01  0.88857247325E+00  0.88000000000E+00 0. -1.
        -11    1    4    4    0    0 -0.47314369068E-01  0.48183603106E-01  0.68825933033E-01  0.96423956087E-01  0.51100000000E-03 0. -1.
         11    1    4    4    0    0 -0.21861252306E-01  0.22987854109E-01  0.15367878224E-01  0.35253206819E-01  0.51100000000E-03 0.  1.
</event>
<event>
 8    1  0.1063984E+005  0.1043930E+01  0.7957747E-01            NaN
         13   -1    0    0    0    0  0.00000000000E+00  0.00000000000E+00  0.74505805969E-08  0.10566000000E+00  0.10566000000E+00 0.  1.
     999900   -1    0    0    0    0 -0.00000000000E+00 -0.00000000000E+00 -0.74505805969E-08  0.93827000000E+00  0.93827000000E+00 0.  1.
     999902    2    1    2    0    0  0.68453189898E-02 -0.64530814775E-02  0.25531910037E-01  0.10167200922E+01  0.10163559252E+01 0.  0.
     999903    2    3    3    0    0 -0.43475025099E-01 -0.65457495487E-01  0.10159810844E+00  0.13004104968E+00  0.20340536858E-01 0.  0.
         14    1    1    2    0    0 -0.68453189898E-02  0.64530814775E-02 -0.25531910037E-01  0.27209907806E-01  0.00000000000E+00 0. -1.
     999901    1    3    3    0    0  0.50320344088E-01  0.59004414009E-01 -0.76066198402E-01  0.88667904252E+00  0.88000000000E+00 0.  1.
        -11    1    4    4    0    0 -0.63086191310E-02 -0.20754103150E-01  0.38858763689E-01  0.44506135637E-01  0.51100000000E-03 0. -1.
         11    1    4    4    0    0 -0.37166405968E-01 -0.44703392337E-01  0.62739344751E-01  0.85534914039E-01  0.51100000000E-03 0.  1.
</event>
<event>
 8    1  0.1063984E+005  0.1043930E+01  0.7957747E-01            NaN
         13   -1    0    0    0    0  0.00000000000E+00  0.00000000000E+00  0.74505805969E-08  0.10566000000E+00  0.10566000000E+00 0. -1.
     999900   -1    0    0    0    0 -0.00000000000E+00 -0.00000000000E+00 -0.74505805969E-08  0.93827000000E+00  0.93827000000E+00 0.  1.
     999902    2    1    2    0    0  0.16120344732E-01  0.14162129969E-01 -0.92624128269E-02  0.10205585702E+01  0.10202909249E+01 0.  0.
     999903    2    3    3    0    0 -0.10270045674E-01  0.35646822047E-01  0.12301334532E+00  0.13002225938E+00  0.19933264842E-01 0.  0.
         14    1    1    2    0    0 -0.16120344732E-01 -0.14162129969E-01  0.92624128269E-02  0.23371429800E-01  0.00000000000E+00 0.  1.
     999901    1    3    3    0    0  0.26390390406E-01 -0.21484692078E-01 -0.13227575814E+00  0.89053631082E+00  0.88000000000E+00 0.  1.
        -11    1    4    4    0    0 -0.14610974747E-01  0.19610286610E-01  0.86723552805E-01  0.90107045541E-01  0.51100000000E-03 0. -1.
         11    1    4    4    0    0  0.43409290725E-02  0.16036535437E-01  0.36289792513E-01  0.39915213837E-01  0.51100000000E-03 0.  1.
</event>
<event>
 8    1  0.1063984E+005  0.1043930E+01  0.7957747E-01            NaN
         13   -1    0    0    0    0  0.00000000000E+00  0.00000000000E+00  0.74505805969E-08  0.10566000000E+00  0.10566000000E+00 0.  1.
     999900   -1    0    0    0    0 -0.00000000000E+00 -0.00000000000E+00 -0.74505805969E-08  0.93827000000E+00  0.93827000000E+00 0.  1.
     999902    2    1    2    0    0  0.37698313991E-02 -0.14736601827E-01  0.65619632075E-02  0.10273638169E+01  0.10272302438E+01 0.  0.
     999903    2    3    3    0    0  0.12943326715E+00 -0.43037092868E-01 -0.34164063410E-02  0.13793041030E+00  0.20198124802E-01 0.  0.
         14    1    1    2    0    0 -0.37698313991E-02  0.14736601827E-01 -0.65619632075E-02  0.16566183124E-01  0.00000000000E+00 0. -1.
     999901    1    3    3    0    0 -0.12566343575E+00  0.28300491041E-01  0.99783695485E-02  0.88943340658E+00  0.88000000000E+00 0. -1.
        -11    1    4    4    0    0  0.43109991855E-01 -0.20360126731E-01  0.65315237461E-02  0.48124090451E-01  0.51100000000E-03 0.  1.
         11    1    4    4    0    0  0.86323275293E-01 -0.22676966136E-01 -0.99479300871E-02  0.89806319847E-01  0.51100000000E-03 0. -1.
</event>
<event>
 7    1  0.1094391E+005  0.1043930E+01  0.7957747E-01            NaN
         13   -1    0    0    0    0  0.00000000000E+00  0.00000000000E+00  0.74505805969E-08  0.10566000000E+00  0.10566000000E+00 0.  1.
     999900   -1    0    0    0    0 -0.00000000000E+00 -0.00000000000E+00 -0.74505805969E-08  0.93827000000E+00  0.93827000000E+00 0. -1.
     999903    2    1    2    0    0  0.61617976875E-01  0.80069006686E-01  0.31263621496E-01  0.10750009367E+00  0.19262274123E-01 0.  0.
         14    1    1    2    0    0  0.71978868491E-02  0.38750180505E-01  0.20216435844E-01  0.44295488964E-01  0.00000000000E+00 0.  1.
     999901    1    1    2    0    0 -0.68815863724E-01 -0.11881918719E+00 -0.51480057340E-01  0.89213441737E+00  0.88000000000E+00 0. -1.
        -11    1    3    3    0    0  0.19346904082E-01  0.14963110509E-01  0.13208430232E-01  0.27801459024E-01  0.51100000000E-03 0.  1.
         11    1    3    3    0    0  0.42271072793E-01  0.65105896176E-01  0.18055191265E-01  0.79698634647E-01  0.51100000000E-03 0. -1.
</event>
<event>
 8    1  0.1063984E+005  0.1043930E+01  0.7957747E-01            NaN
         13   -1    0    0    0    0  0.00000000000E+00  0.00000000000E+00  0.74505805969E-08  0.10566000000E+00  0.10566000000E+00 0.  1.
     999900   -1    0    0    0    0 -0.00000000000E+00 -0.00000000000E+00 -0.74505805969E-08  0.93827000000E+00  0.93827000000E+00 0.  1.
     999902    2    1    2    0    0 -0.12958655157E-01  0.94636019639E-02 -0.17607102905E-01  0.10201078133E+01  0.10198296202E+01 0.  0.
     999903    2    3    3    0    0 -0.76032037432E-01  0.55194426434E-01 -0.92773820313E-01  0.13347395695E+00  0.19519734173E-01 0.  0.
         14    1    1    2    0    0  0.12958655157E-01 -0.94636019639E-02  0.17607102905E-01  0.23822186682E-01  0.00000000000E+00 0.  1.
     999901    1    3    3    0    0  0.63073382274E-01 -0.45730824470E-01  0.75166717408E-01  0.88663385637E+00  0.88000000000E+00 0.  1.
        -11    1    4    4    0    0 -0.28236168388E-01  0.19106306280E-01 -0.47135327653E-01  0.58175015073E-01  0.51100000000E-03 0. -1.
         11    1    4    4    0    0 -0.47795869044E-01  0.36088120155E-01 -0.45638492660E-01  0.75298941873E-01  0.51100000000E-03 0.  1.
</event>
<event>
 8    1  0.1063984E+005  0.1043930E+01  0.7957747E-01            NaN
         13   -1    0    0    0    0  0.00000000000E+00  0.00000000000E+00  0.74505805969E-08  0.10566000000E+00  0.10566000000E+00 0.  1.
     999900   -1    0    0    0    0 -0.00000000000E+00 -0.00000000000E+00 -0.74505805969E-08  0.93827000000E+00  0.93827000000E+00 0. -1.
     999902    2    1    2    0    0 -0.43801525883E-02  0.13002846434E-01  0.18121410434E-01  0.10212001679E+01  0.10209471767E+01 0.  0.
     999903    2    3    3    0    0  0.38359742394E-01 -0.29915337836E-01  0.12202253792E+00  0.13301994211E+00  0.20938193896E-01 0.  0.
         14    1    1    2    0    0  0.43801525883E-02 -0.13002846434E-01 -0.18121410434E-01  0.22729832120E-01  0.00000000000E+00 0. -1.
     999901    1    3    3    0    0 -0.42739894982E-01  0.42918184270E-01 -0.10390112748E+00  0.88818022577E+00  0.88000000000E+00 0.  1.
        -11    1    4    4    0    0  0.30299420935E-01 -0.10979309621E-01  0.69632787585E-01  0.76730609125E-01  0.51100000000E-03 0.  1.
         11    1    4    4    0    0  0.80603214590E-02 -0.18936028215E-01  0.52389750332E-01  0.56289332981E-01  0.51100000000E-03 0. -1.
</event>
<event>
 8    1  0.1271862E+005  0.1043930E+01  0.7957747E-01            NaN
         13   -1    0    0    0    0  0.00000000000E+00  0.00000000000E+00  0.74505805969E-08  0.10566000000E+00  0.10566000000E+00 0. -1.
     999900   -1    0    0    0    0 -0.00000000000E+00 -0.00000000000E+00 -0.74505805969E-08  0.93827000000E+00  0.93827000000E+00 0.  1.
     999902    2    1    2    0    0  0.11588061177E-01  0.83769500653E-02  0.26674506790E-01  0.10136647432E+01  0.10132128236E+01 0.  0.
     999903    2    3    3    0    0  0.36902503860E-01  0.82538867439E-01 -0.81703179637E-01  0.12355995508E+00  0.20425315331E-01 0.  0.
         14    1    1    2    0    0 -0.11588061177E-01 -0.83769500653E-02 -0.26674506790E-01  0.30265256760E-01  0.00000000000E+00 0.  1.
     999901    1    3    3    0    0 -0.25314442683E-01 -0.74161917374E-01  0.10837768643E+00  0.89010478816E+00  0.88000000000E+00 0. -1.
        -11    1    4    4    0    0  0.19946759966E-01  0.49765030087E-01 -0.34968846850E-01  0.64011817844E-01  0.51100000000E-03 0.  1.
         11    1    4    4    0    0  0.16955743894E-01  0.32773837352E-01 -0.46734332786E-01  0.59548137232E-01  0.51100000000E-03 0. -1.
</event>
<event>
 8    1  0.1063984E+005  0.1043930E+01  0.7957747E-01            NaN
         13   -1    0    0    0    0  0.00000000000E+00  0.00000000000E+00  0.74505805969E-08  0.10566000000E+00  0.10566000000E+00 0. -1.
     999900   -1    0    0    0    0 -0.00000000000E+00 -0.00000000000E+00 -0.74505805969E-08  0.93827000000E+00  0.93827000000E+00 0. -1.
     999902    2    1    2    0    0 -0.16536773311E-01 -0.84117436254E-02  0.14624446248E-01  0.10203059290E+01  0.10200323975E+01 0.  0.
     999903    2    3    3    0    0 -0.36176019190E-01  0.18409949193E-01  0.12472744434E+00  0.13282197232E+00  0.20907184539E-01 0.  0.
         14    1    1    2    0    0  0.16536773311E-01  0.84117436254E-02 -0.14624446248E-01  0.23624070996E-01  0.00000000000E+00 0.  1.
     999901    1    3    3    0    0  0.19639245880E-01 -0.26821692819E-01 -0.11010299809E+00  0.88748395669E+00  0.88000000000E+00 0. -1.
        -11    1    4    4    0    0 -0.35296148806E-01  0.93863395694E-02  0.97283115986E-01  0.10391432658E+00  0.51100000000E-03 0. -1.
         11    1    4    4    0    0 -0.87987038471E-03  0.90236096238E-02  0.27444328354E-01  0.28907645742E-01  0.51100000000E-03 0.  1.
</event>
<event>
 8    1  0.1063984E+005  0.1043930E+01  0.7957747E-01            NaN
         13   -1    0    0    0    0  0.00000000000E+00  0.00000000000E+00  0.74505805969E-08  0.10566000000E+00  0.10566000000E+00 0. -1.
     999900   -1    0    0    0    0 -0.00000000000E+00 -0.00000000000E+00 -0.74505805969E-08  0.93827000000E+00  0.93827000000E+00 0.  1.
     999902    2    1    2    0    0 -0.60472242140E-02  0.26181906515E-02 -0.21504106808E-01  0.10214388806E+01  0.10211912340E+01 0.  0.
     999903    2    3    3    0    0 -0.33859099844E-01 -0.98954841071E-01 -0.82126041548E-01  0.13308894944E+00  0.54297834079E-02 0.  0.
         14    1    1    2    0    0  0.60472242140E-02 -0.26181906515E-02  0.21504106808E-01  0.22491119416E-01  0.00000000000E+00 0. -1.
     999901    1    3    3    0    0  0.27811875630E-01  0.10157303172E+00  0.60621934740E-01  0.88834993115E+00  0.88000000000E+00 0. -1.
        -11    1    4    4    0    0 -0.22572595152E-01 -0.62683933820E-01 -0.49318735415E-01  0.82893886355E-01  0.51100000000E-03 0. -1.
         11    1    4    4    0    0 -0.11286504692E-01 -0.36270907251E-01 -0.32807306134E-01  0.50195063081E-01  0.51100000000E-03 0.  1.
</event>
<event>
 8    1  0.1063984E+005  0.1043930E+01  0.7957747E-01            NaN
         13   -1    0    0    0    0  0.00000000000E+00  0.00000000000E+00  0.74505805969E-08  0.10566000000E+00  0.10566000000E+00 0.  1.
     999900   -1    0    0    0    0 -0.00000000000E+00 -0.00000000000E+00 -0.74505805969E-08  0.93827000000E+00  0.93827000000E+00 0.  1.
     999902    2    1    2    0    0  0.22150227636E-01 -0.66388483053E-02  0.48644550761E-02  0.10203001499E+01  0.10200264831E+01 0.  0.
     999903    2    3    3    0    0  0.57504454008E-01  0.47284672273E-01  0.10725794507E+00  0.13201973577E+00  0.19553551782E-01 0.  0.
         14    1    1    2    0    0 -0.22150227636E-01  0.66388483053E-02 -0.48644550761E-02  0.23629850070E-01  0.00000000000E+00 0.  1.
     999901    1    3    3    0    0 -0.35354226372E-01 -0.53923520578E-01 -0.10239349000E+00  0.88828041416E+00  0.88000000000E+00 0.  1.
        -11    1    4    4    0    0  0.37425571677E-01  0.36333252356E-01  0.59926085825E-01  0.79449200911E-01  0.51100000000E-03 0. -1.
         11    1    4    4    0    0  0.20078882331E-01  0.10951419917E-01  0.47331859250E-01  0.52570534855E-01  0.51100000000E-03 0.  1.
</event>
<event>
 8    1  0.1063984E+005  0.1043930E+01  0.7957747E-01            NaN
         13   -1    0    0    0    0  0.00000000000E+00  0.00000000000E+00  0.74505805969E-08  0.10566000000E+00  0.10566000000E+00 0.  1.
     999900   -1    0    0    0    0 -0.00000000000E+00 -0.00000000000E+00 -0.74505805969E-08  0.93827000000E+00  0.93827000000E+00 0. -1.
     999902    2    1    2    0    0  0.19334251727E-01 -0.51675606900E-02 -0.12975550191E-01  0.10200787553E+01  0.10197998750E+01 0.  0.
     999903    2    3    3    0    0 -0.79296499249E-01  0.27285623030E-03  0.97965017318E-01  0.12762963474E+00  0.20103974811E-01 0.  0.
         14    1    1    2    0    0 -0.19334251727E-01  0.51675606900E-02  0.12975550191E-01  0.23851244749E-01  0.00000000000E+00 0.  1.
     999901    1    3    3    0    0  0.98630750976E-01 -0.54404169203E-02 -0.11094056751E+00  0.89244912051E+00  0.88000000000E+00 0. -1.
        -11    1    4    4    0    0 -0.63406752978E-01 -0.71417149071E-02  0.82069339562E-01  0.10395700088E+00  0.51100000000E-03 0. -1.
         11    1    4    4    0    0 -0.15889746271E-01  0.74145711374E-02  0.15895677756E-01  0.23672633863E-01  0.51100000000E-03 0.  1.
</event>
<event>
 8    1  0.1063984E+005  0.1043930E+01  0.7957747E-01            NaN
         13   -1    0    0    0    0  0.00000000000E+00  0.00000000000E+00  0.74505805969E-08  0.10566000000E+00  0.10566000000E+00 0. -1.
     999900   -1    0    0    0    0 -0.00000000000E+00 -0.00000000000E+00 -0.74505805969E-08  0.93827000000E+00  0.93827000000E+00 0. -1.
     999902    2    1    2    0    0  0.22338740796E-01 -0.70479964297E-02  0.47507580080E-02  0.10200288851E+01  0.10197488235E+01 0.  0.
     999903    2    3    3    0    0  0.22745015701E-01  0.49458647487E-01 -0.11639920754E+00  0.12993311492E+00  0.19244357209E-01 0.  0.
         14    1    1    2    0    0 -0.22338740796E-01  0.70479964297E-02 -0.47507580080E-02  0.23901114946E-01  0.00000000000E+00 0. -1.
     999901    1    3    3    0    0 -0.40627490500E-03 -0.56506643917E-01  0.12114996555E+00  0.89009577014E+00  0.88000000000E+00 0.  1.
        -11    1    4    4    0    0  0.17122864094E-01  0.30752779548E-01 -0.93055298896E-01  0.99491083511E-01  0.51100000000E-03 0.  1.
         11    1    4    4    0    0  0.56221516065E-02  0.18705867939E-01 -0.23343908648E-01  0.30442031404E-01  0.51100000000E-03 0. -1.
</event>
<event>
 8    1  0.1063984E+005  0.1043930E+01  0.7957747E-01            NaN
         13   -1    0    0    0    0  0.00000000000E+00  0.00000000000E+00  0.74505805969E-08  0.10566000000E+00  0.10566000000E+00 0.  1.
     999900   -1    0    0    0    0 -0.00000000000E+00 -0.00000000000E+00 -0.74505805969E-08  0.93827000000E+00  0.93827000000E+00 0.  1.
     999902    2    1    2    0    0  0.14072062016E-01  0.32022025503E-03  0.19809217482E-01  0.10196291653E+01  0.10193395431E+01 0.  0.
     999903    2    3    3    0    0  0.38885983706E-01  0.55793255228E-01 -0.10731712438E+00  0.12841982113E+00  0.18699684944E-01 0.  0.
         14    1    1    2    0    0 -0.14072062016E-01 -0.32022025503E-03 -0.19809217482E-01  0.24300834711E-01  0.00000000000E+00 0. -1.
     999901    1    3    3    0    0 -0.24813921690E-01 -0.55473034973E-01  0.12712634186E+00  0.89120934416E+00  0.88000000000E+00 0. -1.
        -11    1    4    4    0    0  0.15086849798E-01  0.37400485646E-01 -0.65100806643E-01  0.76581887610E-01  0.51100000000E-03 0.  1.
         11    1    4    4    0    0  0.23799133908E-01  0.18392769582E-01 -0.42216317735E-01  0.51837933522E-01  0.51100000000E-03 0. -1.
</event>
<event>
 8    1  0.1063984E+005  0.1043930E+01  0.7957747E-01            NaN
         13   -1    0    0    0    0  0.00000000000E+00  0.00000000000E+00  0.74505805969E-08  0.10566000000E+00  0.10566000000E+00 0.  1.
     999900   -1    0    0    0    0 -0.00000000000E+00 -0.00000000000E+00 -0.74505805969E-08  0.93827000000E+00  0.93827000000E+00 0.  1.
     999902    2    1    2    0    0  0.17808103979E-02  0.24753517633E-01 -0.30321061492E-03  0.10191106556E+01  0.10188083865E+01 0.  0.
     999903    2    3    3    0    0  0.10075704873E+00 -0.15409995761E-01 -0.77148571225E-01  0.12932719146E+00  0.19600244169E-01 0.  0.
         14    1    1    2    0    0 -0.17808103979E-02 -0.24753517633E-01  0.30321061492E-03  0.24819344423E-01  0.00000000000E+00 0. -1.
     999901    1    3    3    0    0 -0.98976238333E-01  0.40163513394E-01  0.76845360610E-01  0.88978346411E+00  0.88000000000E+00 0. -1.
        -11    1    4    4    0    0  0.48782271703E-01 -0.16864834747E-01 -0.42246644117E-01  0.66702119484E-01  0.51100000000E-03 0.  1.
         11    1    4    4    0    0  0.51974777028E-01  0.14548389855E-02 -0.34901927109E-01  0.62625071980E-01  0.51100000000E-03 0. -1.
</event>
<event>
 8    1  0.1063984E+005  0.1043930E+01  0.7957747E-01            NaN
         13   -1    0    0    0    0  0.00000000000E+00  0.00000000000E+00  0.74505805969E-08  0.10566000000E+00  0.10566000000E+00 0.  1.
     999900   -1    0    0    0    0 -0.00000000000E+00 -0.00000000000E+00 -0.74505805969E-08  0.93827000000E+00  0.93827000000E+00 0.  1.
     999902    2    1    2    0    0 -0.21410389765E-02 -0.10419961829E-01 -0.21170625827E-01  0.10202370675E+01  0.10199619203E+01 0.  0.
     999903    2    3    3    0    0 -0.12613342138E+00  0.11214493342E-01  0.22818489593E-01  0.13019369619E+00  0.19857245811E-01 0.  0.
         14    1    1    2    0    0  0.21410389765E-02  0.10419961829E-01  0.21170625827E-01  0.23692932497E-01  0.00000000000E+00 0.  1.
     999901    1    3    3    0    0  0.12399238240E+00 -0.21634455171E-01 -0.43989115420E-01  0.89004337131E+00  0.88000000000E+00 0.  1.
        -11    1    4    4    0    0 -0.98531873216E-01  0.16907324510E-01  0.16892567932E-01  0.10139037249E+00  0.51100000000E-03 0.  1.
         11    1    4    4    0    0 -0.27601548160E-01 -0.56928311678E-02  0.59259216612E-02  0.28803323699E-01  0.51100000000E-03 0. -1.
</event>
<event>
 8    1  0.1063984E+005  0.1043930E+01  0.7957747E-01            NaN
         13   -1    0    0    0    0  0.00000000000E+00  0.00000000000E+00  0.74505805969E-08  0.10566000000E+00  0.10566000000E+00 0. -1.
     999900   -1    0    0    0    0 -0.00000000000E+00 -0.00000000000E+00 -0.74505805969E-08  0.93827000000E+00  0.93827000000E+00 0. -1.
     999902    2    1    2    0    0 -0.11543846751E-01  0.21365320709E-01 -0.52548259883E-02  0.10190834605E+01  0.10187805205E+01 0.  0.
     999903    2    3    3    0    0  0.48155706216E-01  0.44443907958E-01 -0.11009596140E+00  0.13055190709E+00  0.25068839864E-01 0.  0.
         14    1    1    2    0    0  0.11543846751E-01 -0.21365320709E-01  0.52548259883E-02  0.24846539457E-01  0.00000000000E+00 0. -1.
     999901    1    3    3    0    0 -0.59699552967E-01 -0.23078587249E-01  0.10484113541E+00  0.88853155346E+00  0.88000000000E+00 0.  1.
        -11    1    4    4    0    0  0.82662072474E-02  0.22394558666E-01 -0.46962448132E-01  0.52683765010E-01  0.51100000000E-03 0. -1.
         11    1    4    4    0    0  0.39889498968E-01  0.22049349292E-01 -0.63133513265E-01  0.77868142076E-01  0.51100000000E-03 0.  1.
</event>
<event>
 8    1  0.1063984E+005  0.1043930E+01  0.7957747E-01            NaN
         13   -1    0    0    0    0  0.00000000000E+00  0.00000000000E+00  0.74505805969E-08  0.10566000000E+00  0.10566000000E+00 0.  1.
     999900   -1    0    0    0    0 -0.00000000000E+00 -0.00000000000E+00 -0.74505805969E-08  0.93827000000E+00  0.93827000000E+00 0.  1.
     999902    2    1    2    0    0 -0.18199197408E-01  0.24709564255E-03 -0.14266579558E-01  0.10208041025E+01  0.10205421150E+01 0.  0.
     999903    2    3    3    0    0 -0.12756664569E+00 -0.12026839790E-02  0.30585453011E-01  0.13289923968E+00  0.21261289468E-01 0.  0.
         14    1    1    2    0    0  0.18199197408E-01 -0.24709564255E-03  0.14266579558E-01  0.23125897492E-01  0.00000000000E+00 0.  1.
     999901    1    3    3    0    0  0.10936744829E+00  0.14497796215E-02 -0.44852032569E-01  0.88790486283E+00  0.88000000000E+00 0.  1.
        -11    1    4    4    0    0 -0.10673483960E+00 -0.89172053356E-02  0.25711322032E-01  0.11015069558E+00  0.51100000000E-03 0.  1.
         11    1    4    4    0    0 -0.20831806093E-01  0.77145213566E-02  0.48741309792E-02  0.22748544100E-01  0.51100000000E-03 0. -1.
</event>
<event>
 8    1  0.1063984E+005  0.1043930E+01  0.7957747E-01            NaN
         13   -1    0    0    0    0  0.00000000000E+00  0.00000000000E+00  0.74505805969E-08  0.10566000000E+00  0.10566000000E+00 0. -1.
     999900   -1    0    0    0    0 -0.00000000000E+00 -0.00000000000E+00 -0.74505805969E-08  0.93827000000E+00  0.93827000000E+00 0. -1.
     999902    2    1    2    0    0 -0.13057037298E-03  0.77209095055E-02 -0.20865665300E-01  0.10216812814E+01  0.10214390022E+01 0.  0.
     999903    2    3    3    0    0 -0.10935616080E+00  0.71221592897E-01 -0.11841137062E-01  0.13261210043E+00  0.20358571987E-01 0.  0.
         14    1    1    2    0    0  0.13057037298E-03 -0.77209095055E-02  0.20865665300E-01  0.22248718629E-01  0.00000000000E+00 0. -1.
     999901    1    3    3    0    0  0.10922559043E+00 -0.63500683391E-01 -0.90245282382E-02  0.88906918094E+00  0.88000000000E+00 0. -1.
        -11    1    4    4    0    0 -0.37607998947E-01  0.22153455551E-01 -0.13441688367E-01  0.45673595050E-01  0.51100000000E-03 0. -1.
         11    1    4    4    0    0 -0.71748161851E-01  0.49068137346E-01  0.16005513049E-02  0.86938505377E-01  0.51100000000E-03 0.  1.
</event>
<event>
 8    1  0.1063984E+005  0.1043930E+01  0.7957747E-01            NaN
         13   -1    0    0    0    0  0.00000000000E+00  0.00000000000E+00  0.74505805969E-08  0.10566000000E+00  0.10566000000E+00 0.  1.
     999900   -1    0    0    0    0 -0.00000000000E+00 -0.00000000000E+00 -0.74505805969E-08  0.93827000000E+00  0.93827000000E+00 0. -1.
     999902    2    1    2    0    0 -0.23476647487E-01  0.31225328060E-02 -0.44707916613E-02  0.10198283161E+01  0.10195434778E+01 0.  0.
     999903    2    3    3    0    0  0.11942448690E+00  0.31048506720E-02  0.38482621348E-01  0.12726698476E+00  0.21074275715E-01 0.  0.
         14    1    1    2    0    0  0.23476647487E-01 -0.31225328060E-02  0.44707916613E-02  0.24101683892E-01  0.00000000000E+00 0.  1.
     999901    1    3    3    0    0 -0.14290113438E+00  0.17682134026E-04 -0.42953413009E-01  0.89256133134E+00  0.88000000000E+00 0. -1.
        -11    1    4    4    0    0  0.16303073030E-01 -0.97715268641E-03 -0.18868840929E-02  0.16448904832E-01  0.51100000000E-03 0.  1.
         11    1    4    4    0    0  0.10312141387E+00  0.40820033584E-02  0.40369505441E-01  0.11081807993E+00  0.51100000000E-03 0. -1.
</event>
<event>
 8    1  0.1063984E+005  0.1043930E+01  0.7957747E-01            NaN
         13   -1    0    0    0    0  0.00000000000E+00  0.00000000000E+00  0.74505805969E-08  0.10566000000E+00  0.10566000000E+00 0. -1.
     999900   -1    0    0    0    0 -0.00000000000E+00 -0.00000000000E+00 -0.74505805969E-08  0.93827000000E+00  0.93827000000E+00 0.  1.
     999902    2    1    2    0    0  0.74728434124E-02  0.24847374465E-01  0.11448193292E-02  0.10179579762E+01  0.10176265992E+01 0.  0.
     999903    2    3    3    0    0 -0.58734493540E-02  0.57301770581E-01 -0.11456783431E+00  0.12968953171E+00  0.19380290437E-01 0.  0.
         14    1    1    2    0    0 -0.74728434124E-02 -0.24847374465E-01 -0.11448193292E-02  0.25972023752E-01  0.00000000000E+00 0.  1.
     999901    1    3    3    0    0  0.13346292766E-01 -0.32454396116E-01  0.11571265364E+00  0.88826844454E+00  0.88000000000E+00 0. -1.
        -11    1    4    4    0    0  0.48513133697E-02  0.35921600430E-01 -0.59896301105E-01  0.70012317673E-01  0.51100000000E-03 0. -1.
         11    1    4    4    0    0 -0.10724762724E-01  0.21380170151E-01 -0.54671533201E-01  0.59677214033E-01  0.51100000000E-03 0.  1.
</event>
<event>
 8    1  0.1063984E+005  0.1043930E+01  0.7957747E-01            NaN
         13   -1    0    0    0    0  0.00000000000E+00  0.00000000000E+00  0.74505805969E-08  0.10566000000E+00  0.10566000000E+00 0.  1.
     999900   -1    0    0    0    0 -0.00000000000E+00 -0.00000000000E+00 -0.74505805969E-08  0.93827000000E+00  0.93827000000E+00 0.  1.
     999902    2    1    2    0    0 -0.14162473578E-02  0.14176072676E-01 -0.18952543954E-01  0.10202199659E+01  0.10199444167E+01 0.  0.
     999903    2    3    3    0    0 -0.66091627745E-01  0.91623260855E-02 -0.11306360978E+00  0.13282775547E+00  0.20193595231E-01 0.  0.
         14    1    1    2    0    0  0.14162473578E-02 -0.14176072676E-01  0.18952543954E-01  0.23710034067E-01  0.00000000000E+00 0.  1.
     999901    1    3    3    0    0  0.64675380387E-01  0.50137465908E-02  0.94111065829E-01  0.88739221047E+00  0.88000000000E+00 0. -1.
        -11    1    4    4    0    0 -0.20355197481E-01  0.21635717406E-02 -0.54304896358E-01  0.58037039868E-01  0.51100000000E-03 0. -1.
         11    1    4    4    0    0 -0.45736430264E-01  0.69987543448E-02 -0.58758713424E-01  0.74790715600E-01  0.51100000000E-03 0.  1.
</event>
<event>
 8    1  0.1063984E+005  0.1043930E+01  0.7957747E-01            NaN
         13   -1    0    0    0    0  0.00000000000E+00  0.00000000000E+00  0.74505805969E-08  0.10566000000E+00  0.10566000000E+00 0. -1.
     999900   -1    0    0    0    0 -0.00000000000E+00 -0.00000000000E+00 -0.74505805969E-08  0.93827000000E+00  0.93827000000E+00 0. -1.
     999902    2    1    2    0    0 -0.16621002334E-02  0.12382234437E-01 -0.19377403902E-01  0.10208742829E+01  0.10206139013E+01 0.  0.
     999903    2    3    3    0    0 -0.33241277555E-01  0.68022072115E-01 -0.10883669187E+00  0.13402818571E+00  0.19650553140E-01 0.  0.
         14    1    1    2    0    0  0.16621002334E-02 -0.12382234437E-01  0.19377403902E-01  0.23055717053E-01  0.00000000000E+00 0. -1.
     999901    1    3    3    0    0  0.31579177321E-01 -0.55639837678E-01  0.89459287973E-01  0.88684609724E+00  0.88000000000E+00 0.  1.
        -11    1    4    4    0    0 -0.32072355055E-01  0.66628711549E-01 -0.96641619092E-01  0.12168765271E+00  0.51100000000E-03 0. -1.
         11    1    4    4    0    0 -0.11689224998E-02  0.13933605655E-02 -0.12195072783E-01  0.12340532997E-01  0.51100000000E-03 0.  1.
</event>
<event>
 8    1  0.1063984E+005  0.1043930E+01  0.7957747E-01            NaN
         13   -1    0    0    0    0  0.00000000000E+00  0.00000000000E+00  0.74505805969E-08  0.10566000000E+00  0.10566000000E+00 0. -1.
     999900   -1    0    0    0    0 -0.00000000000E+00 -0.00000000000E+00 -0.74505805969E-08  0.93827000000E+00  0.93827000000E+00 0.  1.
     999902    2    1    2    0    0 -0.20494911818E-01  0.10518487387E-01 -0.51391762709E-02  0.10203272222E+01  0.10200541894E+01 0.  0.
     999903    2    3    3    0    0 -0.15805102672E-01 -0.12093575104E+00  0.38532352768E-01  0.12947964064E+00  0.20124064752E-01 0.  0.
         14    1    1    2    0    0  0.20494911818E-01 -0.10518487387E-01  0.51391762709E-02  0.23602777805E-01  0.00000000000E+00 0. -1.
     999901    1    3    3    0    0 -0.46898091461E-02  0.13145423842E+00 -0.43671529039E-01  0.89084758155E+00  0.88000000000E+00 0.  1.
        -11    1    4    4    0    0 -0.15794250658E-01 -0.96969528054E-01  0.38459054166E-01  0.10550785607E+00  0.51100000000E-03 0. -1.
         11    1    4    4    0    0 -0.10852014336E-04 -0.23966222982E-01  0.73298602469E-04  0.23971784570E-01  0.51100000000E-03 0.  1.
</event>
<event>
 8    1  0.1063984E+005  0.1043930E+01  0.7957747E-01            NaN
         13   -1    0    0    0    0  0.00000000000E+00  0.00000000000E+00  0.74505805969E-08  0.10566000000E+00  0.10566000000E+00 0.  1.
     999900   -1    0    0    0    0 -0.00000000000E+00 -0.00000000000E+00 -0.74505805969E-08  0.93827000000E+00  0.93827000000E+00 0. -1.
     999902    2    1    2    0    0 -0.20082556185E-01  0.60291282548E-02 -0.88981922349E-02  0.10211520002E+01  0.10208979235E+01 0.  0.
     999903    2    3    3    0    0 -0.49519796059E-01  0.11355023449E+00 -0.45217367457E-01  0.13337588997E+00  0.19966265351E-01 0.  0.
         14    1    1    2    0    0  0.20082556185E-01 -0.60291282548E-02  0.88981922349E-02  0.22777999813E-01  0.00000000000E+00 0.  1.
     999901    1    3    3    0    0  0.29437239874E-01 -0.10752110624E+00  0.36319175222E-01  0.88777611021E+00  0.88000000000E+00 0.  1.
        -11    1    4    4    0    0 -0.17086649405E-01  0.63615180969E-01 -0.25801618087E-01  0.70744819277E-01  0.51100000000E-03 0.  1.
         11    1    4    4    0    0 -0.32433146654E-01  0.49935053520E-01 -0.19415749369E-01  0.62631070696E-01  0.51100000000E-03 0. -1.
</event>
<event>
 8    1  0.1063984E+005  0.1043930E+01  0.7957747E-01            NaN
         13   -1    0    0    0    0  0.00000000000E+00  0.00000000000E+00  0.74505805969E-08  0.10566000000E+00  0.10566000000E+00 0. -1.
     999900   -1    0    0    0    0 -0.00000000000E+00 -0.00000000000E+00 -0.74505805969E-08  0.93827000000E+00  0.93827000000E+00 0.  1.
     999902    2    1    2    0    0 -0.15409662196E-01 -0.42587547338E-02  0.17762148272E-01  0.10200325400E+01  0.10197525652E+01 0.  0.
     999903    2    3    3    0    0  0.23296292185E-01  0.70371849541E-01 -0.10260337245E+00  0.12786902556E+00  0.18114116699E-01 0.  0.
         14    1    1    2    0    0  0.15409662196E-01  0.42587547338E-02 -0.17762148272E-01  0.23897459951E-01  0.00000000000E+00 0.  1.
     999901    1    3    3    0    0 -0.38705954381E-01 -0.74630604274E-01  0.12036552072E+00  0.89216351448E+00  0.88000000000E+00 0. -1.
        -11    1    4    4    0    0  0.54341905518E-02  0.44454400718E-01 -0.58206410468E-01  0.73443662155E-01  0.51100000000E-03 0.  1.
         11    1    4    4    0    0  0.17862101633E-01  0.25917448823E-01 -0.44396961980E-01  0.54425363410E-01  0.51100000000E-03 0. -1.
</event>
<event>
 8    1  0.1063984E+005  0.1043930E+01  0.7957747E-01            NaN
         13   -1    0    0    0    0  0.00000000000E+00  0.00000000000E+00  0.74505805969E-08  0.10566000000E+00  0.10566000000E+00 0. -1.
     999900   -1    0    0    0    0 -0.00000000000E+00 -0.00000000000E+00 -0.74505805969E-08  0.93827000000E+00  0.93827000000E+00 0.  1.
     999902    2    1    2    0    0 -0.17859389139E-01 -0.96039515257E-02 -0.56410931173E-02  0.10228820643E+01  0.10226654888E+01 0.  0.
     999903    2    3    3    0    0 -0.16947128005E-01 -0.13134126550E+00  0.89332354167E-02  0.13438152020E+00  0.20996597437E-01 0.  0.
         14    1    1    2    0    0  0.17859389139E-01  0.96039515257E-02  0.56410931173E-02  0.21047935692E-01  0.00000000000E+00 0.  1.
     999901    1    3    3    0    0 -0.91226113457E-03  0.12173731398E+00 -0.14574328534E-01  0.88850054411E+00  0.88000000000E+00 0.  1.
        -11    1    4    4    0    0 -0.45091234460E-02 -0.42830040595E-01 -0.68659048041E-02  0.43613602711E-01  0.51100000000E-03 0.  1.
         11    1    4    4    0    0 -0.12438004559E-01 -0.88511224907E-01  0.15799140221E-01  0.90767917486E-01  0.51100000000E-03 0. -1.
</event>
<event>
 8    1  0.1063984E+005  0.1043930E+01  0.7957747E-01            NaN
         13   -1    0    0    0    0  0.00000000000E+00  0.00000000000E+00  0.74505805969E-08  0.10566000000E+00  0.10566000000E+00 0. -1.
     999900   -1    0    0    0    0 -0.00000000000E+00 -0.00000000000E+00 -0.74505805969E-08  0.93827000000E+00  0.93827000000E+00 0. -1.
     999902    2    1    2    0    0 -0.34514448471E-02  0.13195601607E-01  0.19594190375E-01  0.10200559834E+01  0.10197765640E+01 0.  0.
     999903    2    3    3    0    0 -0.98999555435E-01 -0.62445169107E-01  0.55158481630E-01  0.13094643645E+00  0.20104725837E-01 0.  0.
         14    1    1    2    0    0  0.34514448471E-02 -0.13195601607E-01 -0.19594190375E-01  0.23874016624E-01  0.00000000000E+00 0.  1.
     999901    1    3    3    0    0  0.95548110588E-01  0.75640770713E-01 -0.35564291255E-01  0.88910954693E+00  0.88000000000E+00 0.  1.
        -11    1    4    4    0    0 -0.59037633455E-01 -0.39450769896E-01  0.43905191276E-01  0.83484922898E-01  0.51100000000E-03 0.  1.
         11    1    4    4    0    0 -0.39961921980E-01 -0.22994399211E-01  0.11253290354E-01  0.47461513547E-01  0.51100000000E-03 0. -1.
</event>
<event>
 8    1  0.1063984E+005  0.1043930E+01  0.7957747E-01            NaN
         13   -1    0    0    0    0  0.00000000000E+00  0.00000000000E+00  0.74505805969E-08  0.10566000000E+00  0.10566000000E+00 0. -1.
     999900   -1    0    0    0    0 -0.00000000000E+00 -0.00000000000E+00 -0.74505805969E-08  0.93827000000E+00  0.93827000000E+00 0.  1.
     999902    2    1    2    0    0 -0.55782707022E-02 -0.22907221275E-01 -0.72951108842E-03  0.10203420777E+01  0.10200693925E+01 0.  0.
     999903    2    3    3    0    0  0.26524515573E-01 -0.43918267959E-01  0.11962902304E+00  0.13132113888E+00  0.17371648705E-01 0.  0.
         14    1    1    2    0    0  0.55782707022E-02  0.22907221275E-01  0.72951108842E-03  0.23587922270E-01  0.00000000000E+00 0. -1.
     999901    1    3    3    0    0 -0.32102786275E-01  0.21011046684E-01 -0.12035853412E+00  0.88902093885E+00  0.88000000000E+00 0.  1.
        -11    1    4    4    0    0  0.96285169156E-02 -0.15033934074E-01  0.63577901184E-01  0.66038913920E-01  0.51100000000E-03 0.  1.
         11    1    4    4    0    0  0.16895998658E-01 -0.28884333885E-01  0.56051121851E-01  0.65282224965E-01  0.51100000000E-03 0. -1.
</event>
<event>
 8    1  0.1063984E+005  0.1043930E+01  0.7957747E-01            NaN
         13   -1    0    0    0    0  0.00000000000E+00  0.00000000000E+00  0.74505805969E-08  0.10566000000E+00  0.10566000000E+00 0.  1.
     999900   -1    0    0    0    0 -0.00000000000E+00 -0.00000000000E+00 -0.74505805969E-08  0.93827000000E+00  0.93827000000E+00 0.  1.
     999902    2    1    2    0    0  0.10241291981E-01  0.24844092141E-01 -0.23161149505E-01  0.10084539261E+01  0.10078297322E+01 0.  0.
     999903    2    3    3    0    0 -0.50957118067E-01 -0.77788255404E-01 -0.71627009418E-01  0.11905661117E+00  0.19909988070E-01 0.  0.
         14    1    1    2    0    0 -0.10241291981E-01 -0.24844092141E-01  0.23161149505E-01  0.35476073939E-01  0.00000000000E+00 0.  1.
     999901    1    3    3    0    0  0.61198410048E-01  0.10263234755E+00  0.48465859913E-01  0.88939731489E+00  0.88000000000E+00 0. -1.
        -11    1    4    4    0    0 -0.71459111997E-02 -0.27354077087E-01 -0.20317753250E-01  0.34819273374E-01  0.51100000000E-03 0. -1.
         11    1    4    4    0    0 -0.43811206867E-01 -0.50434178317E-01 -0.51309256168E-01  0.84237337797E-01  0.51100000000E-03 0.  1.
</event>
<event>
 8    1  0.1063984E+005  0.1043930E+01  0.7957747E-01            NaN
         13   -1    0    0    0    0  0.00000000000E+00  0.00000000000E+00  0.74505805969E-08  0.10566000000E+00  0.10566000000E+00 0.  1.
     999900   -1    0    0    0    0 -0.00000000000E+00 -0.00000000000E+00 -0.74505805969E-08  0.93827000000E+00  0.93827000000E+00 0. -1.
     999902    2    1    2    0    0 -0.93357685566E-02 -0.13584100024E-01 -0.17073491826E-01  0.10201984077E+01  0.10199223513E+01 0.  0.
     999903    2    3    3    0    0  0.33867832064E-01 -0.11723782180E+00 -0.46150357453E-01  0.13258581812E+00  0.23609463444E-01 0.  0.
         14    1    1    2    0    0  0.93357685566E-02  0.13584100024E-01  0.17073491826E-01  0.23731592259E-01  0.00000000000E+00 0.  1.
     999901    1    3    3    0    0 -0.43203600620E-01  0.10365372177E+00  0.29076865627E-01  0.88761258962E+00  0.88000000000E+00 0. -1.
        -11    1    4    4    0    0  0.32951691481E-02 -0.63061278736E-02 -0.93812284725E-02  0.11785328045E-01  0.51100000000E-03 0. -1.
         11    1    4    4    0    0  0.30572662915E-01 -0.11093169392E+00 -0.36769128980E-01  0.12080049007E+00  0.51100000000E-03 0.  1.
</event>
<event>
 8    1  0.1063984E+005  0.1043930E+01  0.7957747E-01            NaN
         13   -1    0    0    0    0  0.00000000000E+00  0.00000000000E+00  0.74505805969E-08  0.10566000000E+00  0.10566000000E+00 0. -1.
     999900   -1    0    0    0    0 -0.00000000000E+00 -0.00000000000E+00 -0.74505805969E-08  0.93827000000E+00  0.93827000000E+00 0. -1.
     999902    2    1    2    0    0  0.13972710222E-01 -0.50804017718E-02  0.17512986207E-01  0.10209571508E+01  0.10206986588E+01 0.  0.
     999903    2    3    3    0    0  0.97846302399E-01  0.62007657233E-01  0.62794617294E-01  0.13327138816E+00  0.19981253552E-01 0.  0.
         14    1    1    2    0    0 -0.13972710222E-01  0.50804017718E-02 -0.17512986207E-01  0.22972849170E-01  0.00000000000E+00 0.  1.
     999901    1    3    3    0    0 -0.83873592177E-01 -0.67088059005E-01 -0.45281631087E-01  0.88768576267E+00  0.88000000000E+00 0.  1.
        -11    1    4    4    0    0  0.20600911857E-01  0.41173454737E-02  0.11649062801E-01  0.24027315460E-01  0.51100000000E-03 0.  1.
         11    1    4    4    0    0  0.77245390542E-01  0.57890311759E-01  0.51145554493E-01  0.10924407270E+00  0.51100000000E-03 0. -1.
</event>
<event>
 8    1  0.1063984E+005  0.1043930E+01  0.7957747E-01            NaN
         13   -1    0    0    0    0  0.00000000000E+00  0.00000000000E+00  0.74505805969E-08  0.10566000000E+00  0.10566000000E+00 0. -1.
     999900   -1    0    0    0    0 -0.00000000000E+00 -0.00000000000E+00 -0.74505805969E-08  0.93827000000E+00  0.93827000000E+00 0. -1.
     999902    2    1    2    0    0 -0.43082698736E-02 -0.18449122092E-01 -0.14323396958E-01  0.10201794001E+01  0.10199028961E+01 0.  0.
     999903    2    3    3    0    0  0.52770056551E-01  0.11294404989E+00 -0.23981829942E-01  0.12854304691E+00  0.20177945108E-01 0.  0.
         14    1    1    2    0    0  0.43082698736E-02  0.18449122092E-01  0.14323396958E-01  0.23750599902E-01  0.00000000000E+00 0. -1.
     999901    1    3    3    0    0 -0.57078326425E-01 -0.13139317198E+00  0.96584329836E-02  0.89163635318E+00  0.88000000000E+00 0.  1.
        -11    1    4    4    0    0  0.30143434735E-01  0.51724937410E-01 -0.20121149210E-01  0.63160253120E-01  0.51100000000E-03 0.  1.
         11    1    4    4    0    0  0.22626621816E-01  0.61219112480E-01 -0.38606807320E-02  0.65382793794E-01  0.51100000000E-03 0. -1.
</event>
<event>
 8    1  0.1063984E+005  0.1043930E+01  0.7957747E-01            NaN
         13   -1    0    0    0    0  0.00000000000E+00  0.00000000000E+00  0.74505805969E-08  0.10566000000E+00  0.10566000000E+00 0.  1.
     999900   -1    0    0    0    0 -0.00000000000E+00 -0.00000000000E+00 -0.74505805969E-08  0.93827000000E+00  0.93827000000E+00 0.  1.
     999902    2    1    2    0    0  0.18552619336E-01 -0.55101978948E-02 -0.14529023413E-01  0.10197297007E+01  0.10194424986E+01 0.  0.
     999903    2    3    3    0    0  0.79415401350E-01  0.47226905231E-01 -0.92666117115E-01  0.13260463302E+00  0.21442781742E-01 0.  0.
         14    1    1    2    0    0 -0.18552619336E-01  0.55101978948E-02  0.14529023413E-01  0.24200299304E-01  0.00000000000E+00 0.  1.
     999901    1    3    3    0    0 -0.60862782014E-01 -0.52737103126E-01  0.78137093702E-01  0.88712506767E+00  0.88000000000E+00 0. -1.
        -11    1    4    4    0    0  0.20788301421E-01  0.20286578779E-01 -0.39302533730E-01  0.48873807229E-01  0.51100000000E-03 0.  1.
         11    1    4    4    0    0  0.58627099929E-01  0.26940326452E-01 -0.53363583385E-01  0.83730825794E-01  0.51100000000E-03 0. -1.
</event>
<event>
 8    1  0.1063984E+005  0.1043930E+01  0.7957747E-01            NaN
         13   -1    0    0    0    0  0.00000000000E+00  0.00000000000E+00  0.74505805969E-08  0.10566000000E+00  0.10566000000E+00 0.  1.
     999900   -1    0    0    0    0 -0.00000000000E+00 -0.00000000000E+00 -0.74505805969E-08  0.93827000000E+00  0.93827000000E+00 0. -1.
     999902    2    1    2    0    0  0.65511672468E-02  0.15858484814E-01 -0.12688408662E-01  0.10225897787E+01  0.10223670820E+01 0.  0.
     999903    2    3    3    0    0 -0.12816737195E+00 -0.56358251892E-02 -0.24274322263E-01  0.13200271184E+00  0.19412250093E-01 0.  0.
         14    1    1    2    0    0 -0.65511672468E-02 -0.15858484814E-01  0.12688408662E-01  0.21340221350E-01  0.00000000000E+00 0.  1.
     999901    1    3    3    0    0  0.13471853920E+00  0.21494310003E-01  0.11585913601E-01  0.89058706681E+00  0.88000000000E+00 0.  1.
        -11    1    4    4    0    0 -0.73551850469E-01 -0.12125513879E-01 -0.10313329099E-01  0.75256419476E-01  0.51100000000E-03 0. -1.
         11    1    4    4    0    0 -0.54615521485E-01  0.64896886900E-02 -0.13960993164E-01  0.56746292368E-01  0.51100000000E-03 0.  1.
</event>
<event>
 8    1  0.1063984E+005  0.1043930E+01  0.7957747E-01            NaN
         13   -1    0    0    0    0  0.00000000000E+00  0.00000000000E+00  0.74505805969E-08  0.10566000000E+00  0.10566000000E+00 0. -1.
     999900   -1    0    0    0    0 -0.00000000000E+00 -0.00000000000E+00 -0.74505805969E-08  0.93827000000E+00  0.93827000000E+00 0. -1.
     999902    2    1    2    0    0 -0.14139651698E-01 -0.80136555705E-03 -0.18507653402E-01  0.10206253830E+01  0.10203592835E+01 0.  0.
     999903    2    3    3    0    0  0.15645366247E-01 -0.11869706368E+00  0.46037810484E-01  0.12992191958E+00  0.20650781604E-01 0.  0.
         14    1    1    2    0    0  0.14139651698E-01  0.80136555705E-03  0.18507653402E-01  0.23304616953E-01  0.00000000000E+00 0. -1.
     999901    1    3    3    0    0 -0.29785017945E-01  0.11789569812E+00 -0.64545463886E-01  0.89070346347E+00  0.88000000000E+00 0. -1.
        -11    1    4    4    0    0  0.32949874553E-02 -0.90707547769E-01  0.36970873611E-01  0.98009299462E-01  0.51100000000E-03 0. -1.
         11    1    4    4    0    0  0.12350378792E-01 -0.27989515912E-01  0.90669368727E-02  0.31912620114E-01  0.51100000000E-03 0.  1.
</event>
<event>
 8    1  0.1063984E+005  0.1043930E+01  0.7957747E-01            NaN
         13   -1    0    0    0    0  0.00000000000E+00  0.00000000000E+00  0.74505805969E-08  0.10566000000E+00  0.10566000000E+00 0. -1.
     999900   -1    0    0    0    0 -0.00000000000E+00 -0.00000000000E+00 -0.74505805969E-08  0.93827000000E+00  0.93827000000E+00 0. -1.
     999902    2    1    2    0    0  0.76131035747E-03 -0.13511308056E-01  0.25748534466E-01  0.10148418226E+01  0.10144248631E+01 0.  0.
     999903    2    3    3    0    0 -0.64976816974E-01  0.71018378700E-01  0.80013763265E-01  0.12669122477E+00  0.19566994239E-01 0.  0.
         14    1    1    2    0    0 -0.76131035747E-03  0.13511308056E-01 -0.25748534466E-01  0.29088177427E-01  0.00000000000E+00 0.  1.
     999901    1    3    3    0    0  0.65738127332E-01 -0.84529686757E-01 -0.54265228799E-01  0.88815059781E+00  0.88000000000E+00 0. -1.
        -11    1    4    4    0    0 -0.36182452264E-01  0.32733249317E-01  0.51479727245E-01  0.70929957711E-01  0.51100000000E-03 0. -1.
         11    1    4    4    0    0 -0.28794364711E-01  0.38285129383E-01  0.28534036020E-01  0.55761267055E-01  0.51100000000E-03 0.  1.
</event>
<event>
 8    1  0.1063984E+005  0.1043930E+01  0.7957747E-01            NaN
         13   -1    0    0    0    0  0.00000000000E+00  0.00000000000E+00  0.74505805969E-08  0.10566000000E+00  0.10566000000E+00 0. -1.
     999900   -1    0    0    0    0 -0.00000000000E+00 -0.00000000000E+00 -0.74505805969E-08  0.93827000000E+00  0.93827000000E+00 0.  1.
     999902    2    1    2    0    0 -0.43933979078E-02 -0.21376806250E-01 -0.35608206841E-02  0.10218178035E+01  0.10215785209E+01 0.  0.
     999903    2    3    3    0    0 -0.24998138204E-01  0.12529092234E+00 -0.51317916386E-02  0.12943983094E+00  0.20139821620E-01 0.  0.
         14    1    1    2    0    0  0.43933979078E-02  0.21376806250E-01  0.35608206841E-02  0.22112196511E-01  0.00000000000E+00 0. -1.
     999901    1    3    3    0    0  0.20604740297E-01 -0.14666772859E+00  0.15709709545E-02  0.89237797254E+00  0.88000000000E+00 0. -1.
        -11    1    4    4    0    0 -0.16480929368E-01  0.46895923557E-01  0.48783701852E-02  0.49949057006E-01  0.51100000000E-03 0. -1.
         11    1    4    4    0    0 -0.85172088361E-02  0.78394998783E-01 -0.10010161824E-01  0.79490773938E-01  0.51100000000E-03 0.  1.
</event>
<event>
 8    1  0.1063984E+005  0.1043930E+01  0.7957747E-01            NaN
         13   -1    0    0    0    0  0.00000000000E+00  0.00000000000E+00  0.74505805969E-08  0.10566000000E+00  0.10566000000E+00 0. -1.
     999900   -1    0    0    0    0 -0.00000000000E+00 -0.00000000000E+00 -0.74505805969E-08  0.93827000000E+00  0.93827000000E+00 0.  1.
     999902    2    1    2    0    0  0.25885605259E-01 -0.20527493978E-01  0.11055628628E-01  0.10090922404E+01  0.10084906941E+01 0.  0.
     999903    2    3    3    0    0  0.79149646014E-01  0.88544302639E-01  0.13327360080E-01  0.12075735107E+00  0.17319333633E-01 0.  0.
         14    1    1    2    0    0 -0.25885605259E-01  0.20527493978E-01 -0.11055628628E-01  0.34837759587E-01  0.00000000000E+00 0.  1.
     999901    1    3    3    0    0 -0.53264040755E-01 -0.10907179662E+00 -0.22717314511E-02  0.88833488934E+00  0.88000000000E+00 0.  1.
        -11    1    4    4    0    0  0.67154258585E-01  0.65868090815E-01  0.13924765323E-01  0.95091850566E-01  0.51100000000E-03 0. -1.
         11    1    4    4    0    0  0.11995387429E-01  0.22676211824E-01 -0.59740524351E-03  0.25665500508E-01  0.51100000000E-03 0.  1.
</event>
<event>
 8    1  0.1063984E+005  0.1043930E+01  0.7957747E-01            NaN
         13   -1    0    0    0    0  0.00000000000E+00  0.00000000000E+00  0.74505805969E-08  0.10566000000E+00  0.10566000000E+00 0.  1.
     999900   -1    0    0    0    0 -0.00000000000E+00 -0.00000000000E+00 -0.74505805969E-08  0.93827000000E+00  0.93827000000E+00 0. -1.
     999902    2    1    2    0    0 -0.24095230197E-02  0.36494110409E-02  0.22177634051E-01  0.10213253223E+01  0.10210751405E+01 0.  0.
     999903    2    3    3    0    0  0.62343617662E-01  0.75915951778E-01 -0.82463139123E-01  0.12982932480E+00  0.20137672806E-01 0.  0.
         14    1    1    2    0    0  0.24095230197E-02 -0.36494110409E-02 -0.22177634051E-01  0.22604677707E-01  0.00000000000E+00 0. -1.
     999901    1    3    3    0    0 -0.64753140682E-01 -0.72266540738E-01  0.10464077317E+00  0.89149599749E+00  0.88000000000E+00 0.  1.
        -11    1    4    4    0    0  0.44463838108E-01  0.53820052134E-01 -0.46050065870E-01  0.83633130986E-01  0.51100000000E-03 0. -1.
         11    1    4    4    0    0  0.17879779554E-01  0.22095899645E-01 -0.36413073253E-01  0.46196193812E-01  0.51100000000E-03 0.  1.
</event>
<event>
 8    1  0.1063984E+005  0.1043930E+01  0.7957747E-01            NaN
         13   -1    0    0    0    0  0.00000000000E+00  0.00000000000E+00  0.74505805969E-08  0.10566000000E+00  0.10566000000E+00 0. -1.
     999900   -1    0    0    0    0 -0.00000000000E+00 -0.00000000000E+00 -0.74505805969E-08  0.93827000000E+00  0.93827000000E+00 0.  1.
     999902    2    1    2    0    0 -0.18083250834E-01 -0.13281326029E-01  0.69513963551E-02  0.10204412901E+01  0.10201709205E+01 0.  0.
     999903    2    3    3    0    0  0.59074653902E-01  0.11107408174E+00  0.13779098929E-01  0.12832906216E+00  0.21241898657E-01 0.  0.
         14    1    1    2    0    0  0.18083250834E-01  0.13281326029E-01 -0.69513963551E-02  0.23488709907E-01  0.00000000000E+00 0. -1.
     999901    1    3    3    0    0 -0.77157904735E-01 -0.12435540777E+00 -0.68277025740E-02  0.89211222793E+00  0.88000000000E+00 0. -1.
        -11    1    4    4    0    0  0.22314248785E-01  0.47583713949E-01 -0.44051943882E-02  0.52742794680E-01  0.51100000000E-03 0.  1.
         11    1    4    4    0    0  0.36760405116E-01  0.63490367795E-01  0.18184293317E-01  0.75586267480E-01  0.51100000000E-03 0. -1.
</event>
<event>
 8    1  0.1063984E+005  0.1043930E+01  0.7957747E-01            NaN
         13   -1    0    0    0    0  0.00000000000E+00  0.00000000000E+00  0.74505805969E-08  0.10566000000E+00  0.10566000000E+00 0. -1.
     999900   -1    0    0    0    0 -0.00000000000E+00 -0.00000000000E+00 -0.74505805969E-08  0.93827000000E+00  0.93827000000E+00 0.  1.
     999902    2    1    2    0    0  0.20574315759E-01 -0.15392418799E-01 -0.46402717941E-02  0.10178194437E+01  0.10174844760E+01 0.  0.
     999903    2    3    3    0    0 -0.62760933915E-01  0.16617145588E-01 -0.10825092134E+00  0.12725527270E+00  0.16142431885E-01 0.  0.
         14    1    1    2    0    0 -0.20574315759E-01  0.15392418799E-01  0.46402717941E-02  0.26110556251E-01  0.00000000000E+00 0. -1.
     999901    1    3    3    0    0  0.83335249674E-01 -0.32009564387E-01  0.10361064954E+00  0.89056417105E+00  0.88000000000E+00 0. -1.
        -11    1    4    4    0    0 -0.19826080134E-01 -0.19980731626E-02 -0.28320089744E-01  0.34631695800E-01  0.51100000000E-03 0.  1.
         11    1    4    4    0    0 -0.42934853781E-01  0.18615218750E-01 -0.79930831593E-01  0.92623576904E-01  0.51100000000E-03 0. -1.
</event>
<event>
 8    1  0.1063984E+005  0.1043930E+01  0.7957747E-01            NaN
         13   -1    0    0    0    0  0.00000000000E+00  0.00000000000E+00  0.74505805969E-08  0.10566000000E+00  0.10566000000E+00 0.  1.
     999900   -1    0    0    0    0 -0.00000000000E+00 -0.00000000000E+00 -0.74505805969E-08  0.93827000000E+00  0.93827000000E+00 0.  1.
     999902    2    1    2    0    0  0.12390505626E-02  0.24323133738E-01  0.60800515703E-02  0.10188278665E+01  0.10185185832E+01 0.  0.
     999903    2    3    3    0    0  0.12726360387E+00  0.12301169664E-01 -0.81254898979E-02  0.12965492880E+00  0.19925695237E-01 0.  0.
         14    1    1    2    0    0 -0.12390505626E-02 -0.24323133738E-01 -0.60800515703E-02  0.25102133539E-01  0.00000000000E+00 0. -1.
     999901    1    3    3    0    0 -0.12602455331E+00  0.12021964074E-01  0.14205541468E-01  0.88917293766E+00  0.88000000000E+00 0. -1.
        -11    1    4    4    0    0  0.56564596496E-01  0.15170213613E-01 -0.14794875877E-02  0.58584460076E-01  0.51100000000E-03 0. -1.
         11    1    4    4    0    0  0.70699007376E-01 -0.28690439486E-02 -0.66460023102E-02  0.71070468726E-01  0.51100000000E-03 0.  1.
</event>
<event>
 8    1  0.1063984E+005  0.1043930E+01  0.7957747E-01            NaN
         13   -1    0    0    0    0  0.00000000000E+00  0.00000000000E+00  0.74505805969E-08  0.10566000000E+00  0.10566000000E+00 0.  1.
     999900   -1    0    0    0    0 -0.00000000000E+00 -0.00000000000E+00 -0.74505805969E-08  0.93827000000E+00  0.93827000000E+00 0.  1.
     999902    2    1    2    0    0 -0.24737675242E-01 -0.17187102396E-02 -0.29031982556E-03  0.10191309914E+01  0.10188292236E+01 0.  0.
     999903    2    3    3    0    0 -0.43211344532E-01  0.10952979843E+00  0.52409177803E-01  0.13037076267E+00  0.19642219850E-01 0.  0.
         14    1    1    2    0    0  0.24737675242E-01  0.17187102396E-02  0.29031982556E-03  0.24799008586E-01  0.00000000000E+00 0. -1.
     999901    1    3    3    0    0  0.18473669290E-01 -0.11124850867E+00 -0.52699497629E-01  0.88876022874E+00  0.88000000000E+00 0.  1.
        -11    1    4    4    0    0 -0.26473059620E-02  0.12941181795E-01  0.12712885549E-01  0.18340147085E-01  0.51100000000E-03 0. -1.
         11    1    4    4    0    0 -0.40564038570E-01  0.96588616640E-01  0.39696292254E-01  0.11203061559E+00  0.51100000000E-03 0.  1.
</event>
<event>
 8    1  0.1063984E+005  0.1043930E+01  0.7957747E-01            NaN
         13   -1    0    0    0    0  0.00000000000E+00  0.00000000000E+00  0.74505805969E-08  0.10566000000E+00  0.10566000000E+00 0.  1.
     999900   -1    0    0    0    0 -0.00000000000E+00 -0.00000000000E+00 -0.74505805969E-08  0.93827000000E+00  0.93827000000E+00 0. -1.
     999902    2    1    2    0    0 -0.20930663448E-01  0.11484374927E-01 -0.14682655121E-02  0.10200105656E+01  0.10197300694E+01 0.  0.
     999903    2    3    3    0    0 -0.91051840762E-01 -0.92774203743E-01 -0.32180802507E-02  0.13108430733E+00  0.16590629940E-01 0.  0.
         14    1    1    2    0    0  0.20930663448E-01 -0.11484374927E-01  0.14682655121E-02  0.23919434430E-01  0.00000000000E+00 0. -1.
     999901    1    3    3    0    0  0.70121177314E-01  0.10425857867E+00  0.17498147387E-02  0.88892625824E+00  0.88000000000E+00 0.  1.
        -11    1    4    4    0    0 -0.39917200417E-01 -0.50278222774E-01  0.32430521516E-02  0.64281109843E-01  0.51100000000E-03 0. -1.
         11    1    4    4    0    0 -0.51134640345E-01 -0.42495980970E-01 -0.64611324023E-02  0.66803197489E-01  0.51100000000E-03 0.  1.
</event>
<event>
 8    1  0.1063984E+005  0.1043930E+01  0.7957747E-01            NaN
         13   -1    0    0    0    0  0.00000000000E+00  0.00000000000E+00  0.74505805969E-08  0.10566000000E+00  0.10566000000E+00 0.  1.
     999900   -1    0    0    0    0 -0.00000000000E+00 -0.00000000000E+00 -0.74505805969E-08  0.93827000000E+00  0.93827000000E+00 0.  1.
     999902    2    1    2    0    0  0.25559562054E-02  0.16152150141E-01 -0.20130650498E-01  0.10179941569E+01  0.10176637144E+01 0.  0.
     999903    2    3    3    0    0 -0.71180677389E-01  0.59850820878E-01 -0.90595985628E-01  0.13102627227E+00  0.17647714316E-01 0.  0.
         14    1    1    2    0    0 -0.25559562054E-02 -0.16152150141E-01  0.20130650498E-01  0.25935843070E-01  0.00000000000E+00 0.  1.
     999901    1    3    3    0    0  0.73736633594E-01 -0.43698670736E-01  0.70465335130E-01  0.88696788466E+00  0.88000000000E+00 0.  1.
        -11    1    4    4    0    0 -0.30139605255E-01  0.15027530686E-01 -0.36440285062E-01  0.49622353631E-01  0.51100000000E-03 0.  1.
         11    1    4    4    0    0 -0.41041072133E-01  0.44823290192E-01 -0.54155700566E-01  0.81403918642E-01  0.51100000000E-03 0. -1.
</event>
<event>
 8    1  0.1063984E+005  0.1043930E+01  0.7957747E-01            NaN
         13   -1    0    0    0    0  0.00000000000E+00  0.00000000000E+00  0.74505805969E-08  0.10566000000E+00  0.10566000000E+00 0.  1.
     999900   -1    0    0    0    0 -0.00000000000E+00 -0.00000000000E+00 -0.74505805969E-08  0.93827000000E+00  0.93827000000E+00 0.  1.
     999902    2    1    2    0    0  0.91015058504E-02  0.24549029085E-01 -0.47934504726E-02  0.10173129114E+01  0.10169646456E+01 0.  0.
     999903    2    3    3    0    0  0.52569341754E-01  0.97153920045E-01 -0.66315882126E-01  0.13111545455E+00  0.24311444342E-01 0.  0.
         14    1    1    2    0    0 -0.91015058504E-02 -0.24549029085E-01  0.47934504726E-02  0.26617088594E-01  0.00000000000E+00 0.  1.
     999901    1    3    3    0    0 -0.43467835904E-01 -0.72604890960E-01  0.61522431653E-01  0.88619745686E+00  0.88000000000E+00 0. -1.
        -11    1    4    4    0    0  0.39762090560E-01  0.51456429810E-01 -0.31530580117E-01  0.72271893693E-01  0.51100000000E-03 0. -1.
         11    1    4    4    0    0  0.12807251194E-01  0.45697490235E-01 -0.34785302009E-01  0.58843560853E-01  0.51100000000E-03 0.  1.
</event>
<event>
 8    1  0.1063984E+005  0.1043930E+01  0.7957747E-01            NaN
         13   -1    0    0    0    0  0.00000000000E+00  0.00000000000E+00  0.74505805969E-08  0.10566000000E+00  0.10566000000E+00 0. -1.
     999900   -1    0    0    0    0 -0.00000000000E+00 -0.00000000000E+00 -0.74505805969E-08  0.93827000000E+00  0.93827000000E+00 0.  1.
     999902    2    1    2    0    0 -0.23249892830E-01  0.48895437763E-02 -0.44361622375E-02  0.10197609146E+01  0.10194744618E+01 0.  0.
     999903    2    3    3    0    0 -0.12938732026E+00  0.19710039096E-01  0.13795457249E-01  0.13307202182E+00  0.19704924903E-01 0.  0.
         14    1    1    2    0    0  0.23249892830E-01 -0.48895437763E-02  0.44361622375E-02  0.24169085426E-01  0.00000000000E+00 0. -1.
     999901    1    3    3    0    0  0.10613742743E+00 -0.14820495320E-01 -0.18231619487E-01  0.88668889275E+00  0.88000000000E+00 0. -1.
        -11    1    4    4    0    0 -0.64858279422E-01  0.81547396906E-04  0.50395097083E-02  0.65055828629E-01  0.51100000000E-03 0.  1.
         11    1    4    4    0    0 -0.64529040838E-01  0.19628491699E-01  0.87559475410E-02  0.68016193191E-01  0.51100000000E-03 0. -1.
</event>
<event>
 8    1  0.1096878E+005  0.1043930E+01  0.7957747E-01            NaN
         13   -1    0    0    0    0  0.00000000000E+00  0.00000000000E+00  0.74505805969E-08  0.10566000000E+00  0.10566000000E+00 0.  1.
     999900   -1    0    0    0    0 -0.00000000000E+00 -0.00000000000E+00 -0.74505805969E-08  0.93827000000E+00  0.93827000000E+00 0. -1.
     999902    2    1    2    0    0  0.11909245411E-01 -0.18599074546E-01 -0.23956665587E-02  0.10217152545E+01  0.10214737228E+01 0.  0.
     999903    2    3    3    0    0 -0.39798187257E-01 -0.54773931386E-01 -0.11221673723E+00  0.13264667084E+00  0.20456390238E-01 0.  0.
         14    1    1    2    0    0 -0.11909245411E-01  0.18599074546E-01  0.23956665587E-02  0.22214745519E-01  0.00000000000E+00 0. -1.
     999901    1    3    3    0    0  0.51707432667E-01  0.36174856840E-01  0.10982107067E+00  0.88906858364E+00  0.88000000000E+00 0.  1.
        -11    1    4    4    0    0 -0.12269162852E-01 -0.11086174628E-01 -0.44574248816E-01  0.47545351018E-01  0.51100000000E-03 0. -1.
         11    1    4    4    0    0 -0.27529024405E-01 -0.43687756758E-01 -0.67642488412E-01  0.85101319818E-01  0.51100000000E-03 0.  1.
</event>
<event>
 8    1  0.1063984E+005  0.1043930E+01  0.7957747E-01            NaN
         13   -1    0    0    0    0  0.00000000000E+00  0.00000000000E+00  0.74505805969E-08  0.10566000000E+00  0.10566000000E+00 0. -1.
     999900   -1    0    0    0    0 -0.00000000000E+00 -0.00000000000E+00 -0.74505805969E-08  0.93827000000E+00  0.93827000000E+00 0. -1.
     999902    2    1    2    0    0 -0.11434360206E-01 -0.16434254286E-01  0.12787044676E-01  0.10201742045E+01  0.10198975781E+01 0.  0.
     999903    2    3    3    0    0 -0.60773270971E-01 -0.11045353297E-01 -0.11254106244E+00  0.12990991634E+00  0.19892343634E-01 0.  0.
         14    1    1    2    0    0  0.11434360206E-01  0.16434254286E-01 -0.12787044676E-01  0.23755795478E-01  0.00000000000E+00 0.  1.
     999901    1    3    3    0    0  0.49338910765E-01 -0.53889009884E-02  0.12532810712E+00  0.89026428818E+00  0.88000000000E+00 0.  1.
        -11    1    4    4    0    0 -0.35078033291E-01 -0.93311590716E-02 -0.46280531199E-01  0.58819109465E-01  0.51100000000E-03 0.  1.
         11    1    4    4    0    0 -0.25695237680E-01 -0.17141942257E-02 -0.66260531243E-01  0.71090806880E-01  0.51100000000E-03 0. -1.
</event>
<event>
 8    1  0.1063984E+005  0.1043930E+01  0.7957747E-01            NaN
         13   -1    0    0    0    0  0.00000000000E+00  0.00000000000E+00  0.74505805969E-08  0.10566000000E+00  0.10566000000E+00 0.  1.
     999900   -1    0    0    0    0 -0.00000000000E+00 -0.00000000000E+00 -0.74505805969E-08  0.93827000000E+00  0.93827000000E+00 0. -1.
     999902    2    1    2    0    0 -0.14892009517E-01 -0.17444678678E-01 -0.55431397081E-02  0.10203330689E+01  0.10200601729E+01 0.  0.
     999903    2    3    3    0    0 -0.33258848254E-01  0.88866221288E-01 -0.86902522938E-01  0.13001924921E+00  0.18697604087E-01 0.  0.
         14    1    1    2    0    0  0.14892009517E-01  0.17444678678E-01  0.55431397081E-02  0.23596931144E-01  0.00000000000E+00 0.  1.
     999901    1    3    3    0    0  0.18366838737E-01 -0.10631089997E+00  0.81359383229E-01  0.89031381965E+00  0.88000000000E+00 0.  1.
        -11    1    4    4    0    0 -0.19005436516E-01  0.26879314545E-01 -0.33456034518E-01  0.46939019315E-01  0.51100000000E-03 0. -1.
         11    1    4    4    0    0 -0.14253411737E-01  0.61986906743E-01 -0.53446488419E-01  0.83080229893E-01  0.51100000000E-03 0.  1.
</event>
<event>
 8    1  0.1500896E+005  0.1043930E+01  0.7957747E-01            NaN
         13   -1    0    0    0    0  0.00000000000E+00  0.00000000000E+00  0.74505805969E-08  0.10566000000E+00  0.10566000000E+00 0.  1.
     999900   -1    0    0    0    0 -0.00000000000E+00 -0.00000000000E+00 -0.74505805969E-08  0.93827000000E+00  0.93827000000E+00 0. -1.
     999902    2    1    2    0    0 -0.16939114401E-02 -0.21443128679E-01  0.95212119877E-02  0.10204070201E+01  0.10201358518E+01 0.  0.
     999903    2    3    3    0    0 -0.50167827593E-01  0.10626260136E+00 -0.47924708386E-01  0.12801780697E+00  0.16829434148E-01 0.  0.
         14    1    1    2    0    0  0.16939114401E-02  0.21443128679E-01 -0.95212119877E-02  0.23522979854E-01  0.00000000000E+00 0. -1.
     999901    1    3    3    0    0  0.48473916153E-01 -0.12770573004E+00  0.57445920374E-01  0.89238921318E+00  0.88000000000E+00 0.  1.
        -11    1    4    4    0    0 -0.41917571427E-01  0.70753110903E-01 -0.33982035268E-01  0.88983848752E-01  0.51100000000E-03 0.  1.
         11    1    4    4    0    0 -0.82502561663E-02  0.35509490455E-01 -0.13942673118E-01  0.39033958214E-01  0.51100000000E-03 0. -1.
</event>
<event>
 8    1  0.1063984E+005  0.1043930E+01  0.7957747E-01            NaN
         13   -1    0    0    0    0  0.00000000000E+00  0.00000000000E+00  0.74505805969E-08  0.10566000000E+00  0.10566000000E+00 0.  1.
     999900   -1    0    0    0    0 -0.00000000000E+00 -0.00000000000E+00 -0.74505805969E-08  0.93827000000E+00  0.93827000000E+00 0.  1.
     999902    2    1    2    0    0  0.16467848169E-01  0.15545316799E-01  0.11688280234E-01  0.10184454401E+01  0.10181265401E+01 0.  0.
     999903    2    3    3    0    0  0.82628145217E-01  0.98128442169E-01  0.24394114980E-01  0.13201518582E+00  0.19399352970E-01 0.  0.
         14    1    1    2    0    0 -0.16467848169E-01 -0.15545316799E-01 -0.11688280234E-01  0.25484559885E-01  0.00000000000E+00 0. -1.
     999901    1    3    3    0    0 -0.66160297048E-01 -0.82583125370E-01 -0.12705834746E-01  0.88643025430E+00  0.88000000000E+00 0.  1.
        -11    1    4    4    0    0  0.25899298049E-01  0.18424791685E-01  0.84508425668E-02  0.32892619980E-01  0.51100000000E-03 0.  1.
         11    1    4    4    0    0  0.56728847168E-01  0.79703650484E-01  0.15943272413E-01  0.99122565835E-01  0.51100000000E-03 0. -1.
</event>
<event>
 8    1  0.1063984E+005  0.1043930E+01  0.7957747E-01            NaN
         13   -1    0    0    0    0  0.00000000000E+00  0.00000000000E+00  0.74505805969E-08  0.10566000000E+00  0.10566000000E+00 0.  1.
     999900   -1    0    0    0    0 -0.00000000000E+00 -0.00000000000E+00 -0.74505805969E-08  0.93827000000E+00  0.93827000000E+00 0. -1.
     999902    2    1    2    0    0  0.15488113865E-01 -0.11853217915E-01  0.12678282410E-01  0.10206680291E+01  0.10204029137E+01 0.  0.
     999903    2    3    3    0    0  0.54759104808E-01 -0.33850864038E-01 -0.11206988158E+00  0.13073083378E+00  0.19658382149E-01 0.  0.
         14    1    1    2    0    0 -0.15488113865E-01  0.11853217915E-01 -0.12678282410E-01  0.23261970916E-01  0.00000000000E+00 0. -1.
     999901    1    3    3    0    0 -0.39270990943E-01  0.21997646123E-01  0.12474816399E+00  0.88993719530E+00  0.88000000000E+00 0.  1.
        -11    1    4    4    0    0  0.17747507873E-01 -0.32688313649E-02 -0.42756760973E-01  0.46411862967E-01  0.51100000000E-03 0. -1.
         11    1    4    4    0    0  0.37011596935E-01 -0.30582032673E-01 -0.69313120606E-01  0.84318970814E-01  0.51100000000E-03 0.  1.
</event>
<event>
 8    1  0.1063984E+005  0.1043930E+01  0.7957747E-01            NaN
         13   -1    0    0    0    0  0.00000000000E+00  0.00000000000E+00  0.74505805969E-08  0.10566000000E+00  0.10566000000E+00 0.  1.
     999900   -1    0    0    0    0 -0.00000000000E+00 -0.00000000000E+00 -0.74505805969E-08  0.93827000000E+00  0.93827000000E+00 0.  1.
     999902    2    1    2    0    0  0.18208489738E-01 -0.46072690107E-02  0.13135350011E-01  0.10210102826E+01  0.10207529984E+01 0.  0.
     999903    2    3    3    0    0  0.84117140202E-01  0.36397451837E-01  0.95403077408E-01  0.13377112863E+00  0.19811610263E-01 0.  0.
         14    1    1    2    0    0 -0.18208489738E-01  0.46072690107E-02 -0.13135350011E-01  0.22919717411E-01  0.00000000000E+00 0.  1.
     999901    1    3    3    0    0 -0.65908650464E-01 -0.41004720848E-01 -0.82267727397E-01  0.88723915395E+00  0.88000000000E+00 0.  1.
        -11    1    4    4    0    0  0.56869909542E-01  0.34233755707E-01  0.69583289111E-01  0.96167727880E-01  0.51100000000E-03 0.  1.
         11    1    4    4    0    0  0.27247230660E-01  0.21636961300E-02  0.25819788298E-01  0.37603400755E-01  0.51100000000E-03 0. -1.
</event>
<event>
 8    1  0.1063984E+005  0.1043930E+01  0.7957747E-01            NaN
         13   -1    0    0    0    0  0.00000000000E+00  0.00000000000E+00  0.74505805969E-08  0.10566000000E+00  0.10566000000E+00 0.  1.
     999900   -1    0    0    0    0 -0.00000000000E+00 -0.00000000000E+00 -0.74505805969E-08  0.93827000000E+00  0.93827000000E+00 0.  1.
     999902    2    1    2    0    0 -0.16000682525E-02  0.83937359032E-02  0.25037066997E-01  0.10174749486E+01  0.10171309656E+01 0.  0.
     999903    2    3    3    0    0  0.80936288320E-01 -0.47651673509E-01 -0.80785286273E-01  0.12553789447E+00  0.20301125961E-01 0.  0.
         14    1    1    2    0    0  0.16000682525E-02 -0.83937359032E-02 -0.25037066997E-01  0.26455051401E-01  0.00000000000E+00 0. -1.
     999901    1    3    3    0    0 -0.82536356572E-01  0.56045409412E-01  0.10582235327E+00  0.89193705413E+00  0.88000000000E+00 0. -1.
        -11    1    4    4    0    0  0.16351192193E-01 -0.19675901619E-01 -0.18844005540E-01  0.31778298514E-01  0.51100000000E-03 0. -1.
         11    1    4    4    0    0  0.64585096127E-01 -0.27975771890E-01 -0.61941280733E-01  0.93759595959E-01  0.51100000000E-03 0.  1.
</event>
<event>
 8    1  0.1063984E+005  0.1043930E+01  0.7957747E-01            NaN
         13   -1    0    0    0    0  0.00000000000E+00  0.00000000000E+00  0.74505805969E-08  0.10566000000E+00  0.10566000000E+00 0.  1.
     999900   -1    0    0    0    0 -0.00000000000E+00 -0.00000000000E+00 -0.74505805969E-08  0.93827000000E+00  0.93827000000E+00 0.  1.
     999902    2    1    2    0    0  0.82369088106E-02 -0.21295451192E-01 -0.74005506957E-02  0.10199276864E+01  0.10196452199E+01 0.  0.
     999903    2    3    3    0    0 -0.40882663425E-01  0.83972659932E-01  0.85304274940E-01  0.12746575874E+00  0.15744857708E-01 0.  0.
         14    1    1    2    0    0 -0.82369088106E-02  0.21295451192E-01  0.74005506957E-02  0.24002313614E-01  0.00000000000E+00 0.  1.
     999901    1    3    3    0    0  0.49119572236E-01 -0.10526811112E+00 -0.92704825635E-01  0.89246192764E+00  0.88000000000E+00 0. -1.
        -11    1    4    4    0    0 -0.14717870157E-01  0.15358170132E-01  0.19076648189E-01  0.28577416238E-01  0.51100000000E-03 0.  1.
         11    1    4    4    0    0 -0.26164793269E-01  0.68614489800E-01  0.66227626751E-01  0.98888342505E-01  0.51100000000E-03 0. -1.
</event>
<event>
 8    1  0.1063984E+005  0.1043930E+01  0.7957747E-01            NaN
         13   -1    0    0    0    0  0.00000000000E+00  0.00000000000E+00  0.74505805969E-08  0.10566000000E+00  0.10566000000E+00 0. -1.
     999900   -1    0    0    0    0 -0.00000000000E+00 -0.00000000000E+00 -0.74505805969E-08  0.93827000000E+00  0.93827000000E+00 0. -1.
     999902    2    1    2    0    0  0.10872225553E-01  0.17867339392E-01  0.12251962336E-01  0.10196904108E+01  0.10194022641E+01 0.  0.
     999903    2    3    3    0    0 -0.88803208622E-01 -0.23365465424E-02  0.93156527575E-01  0.13014618035E+00  0.19194278257E-01 0.  0.
         14    1    1    2    0    0 -0.10872225553E-01 -0.17867339392E-01 -0.12251962336E-01  0.24239589240E-01  0.00000000000E+00 0. -1.
     999901    1    3    3    0    0  0.99675434175E-01  0.20203885935E-01 -0.80904565238E-01  0.88954423041E+00  0.88000000000E+00 0. -1.
        -11    1    4    4    0    0 -0.68267939838E-01 -0.85094253146E-02  0.77238116581E-01  0.10343553404E+00  0.51100000000E-03 0. -1.
         11    1    4    4    0    0 -0.20535268785E-01  0.61728787723E-02  0.15918410993E-01  0.26710646304E-01  0.51100000000E-03 0.  1.
</event>
<event>
 8    1  0.1063984E+005  0.1043930E+01  0.7957747E-01            NaN
         13   -1    0    0    0    0  0.00000000000E+00  0.00000000000E+00  0.74505805969E-08  0.10566000000E+00  0.10566000000E+00 0.  1.
     999900   -1    0    0    0    0 -0.00000000000E+00 -0.00000000000E+00 -0.74505805969E-08  0.93827000000E+00  0.93827000000E+00 0.  1.
     999902    2    1    2    0    0 -0.61187957022E-02  0.22472344011E-01 -0.41245161165E-02  0.10202771452E+01  0.10200029390E+01 0.  0.
     999903    2    3    3    0    0 -0.62840401792E-01 -0.10772138412E+00 -0.24138636844E-01  0.12866718987E+00  0.20488027428E-01 0.  0.
         14    1    1    2    0    0  0.61187957022E-02 -0.22472344011E-01  0.41245161165E-02  0.23652854783E-01  0.00000000000E+00 0.  1.
     999901    1    3    3    0    0  0.56721606090E-01  0.13019372813E+00  0.20014120728E-01  0.89160995534E+00  0.88000000000E+00 0.  1.
        -11    1    4    4    0    0 -0.38774334147E-01 -0.76925920429E-01 -0.24554003671E-01  0.89577935005E-01  0.51100000000E-03 0.  1.
         11    1    4    4    0    0 -0.24066067645E-01 -0.30795463686E-01  0.41536682651E-03  0.39089254868E-01  0.51100000000E-03 0. -1.
</event>
<event>
 8    1  0.1063984E+005  0.1043930E+01  0.7957747E-01            NaN
         13   -1    0    0    0    0  0.00000000000E+00  0.00000000000E+00  0.74505805969E-08  0.10566000000E+00  0.10566000000E+00 0. -1.
     999900   -1    0    0    0    0 -0.00000000000E+00 -0.00000000000E+00 -0.74505805969E-08  0.93827000000E+00  0.93827000000E+00 0.  1.
     999902    2    1    2    0    0  0.25882160061E-02  0.11367044352E-01  0.21030040615E-01  0.10198848099E+01  0.10196013212E+01 0.  0.
     999903    2    3    3    0    0  0.10999693584E+00  0.31386280967E-01  0.63388191414E-01  0.13211703852E+00  0.18772973379E-01 0.  0.
         14    1    1    2    0    0 -0.25882160061E-02 -0.11367044352E-01 -0.21030040615E-01  0.24045190115E-01  0.00000000000E+00 0.  1.
     999901    1    3    3    0    0 -0.10740871984E+00 -0.20019236614E-01 -0.42358150798E-01  0.88776777136E+00  0.88000000000E+00 0.  1.
        -11    1    4    4    0    0  0.31753504675E-01  0.58203861589E-02  0.27120286587E-01  0.42165543038E-01  0.51100000000E-03 0.  1.
         11    1    4    4    0    0  0.78243431168E-01  0.25565894808E-01  0.36267904827E-01  0.89951495484E-01  0.51100000000E-03 0. -1.
</event>
<event>
 8    1  0.1063984E+005  0.1043930E+01  0.7957747E-01            NaN
         13   -1    0    0    0    0  0.00000000000E+00  0.00000000000E+00  0.74505805969E-08  0.10566000000E+00  0.10566000000E+00 0.  1.
     999900   -1    0    0    0    0 -0.00000000000E+00 -0.00000000000E+00 -0.74505805969E-08  0.93827000000E+00  0.93827000000E+00 0.  1.
     999902    2    1    2    0    0  0.17868552985E-01 -0.11068958619E-01 -0.10096970860E-01  0.10206114269E+01  0.10203450048E+01 0.  0.
     999903    2    3    3    0    0 -0.19315278551E-02  0.76399179268E-01 -0.10466460730E+00  0.13101277796E+00  0.19212042441E-01 0.  0.
         14    1    1    2    0    0 -0.17868552985E-01  0.11068958619E-01  0.10096970860E-01  0.23318573096E-01  0.00000000000E+00 0.  1.
     999901    1    3    3    0    0  0.19800080840E-01 -0.87468137887E-01  0.94567636437E-01  0.88959864895E+00  0.88000000000E+00 0. -1.
        -11    1    4    4    0    0  0.50355310649E-02  0.63875334652E-01 -0.90219628242E-01  0.11065829111E+00  0.51100000000E-03 0.  1.
         11    1    4    4    0    0 -0.69670589200E-02  0.12523844616E-01 -0.14444979055E-01  0.20354486848E-01  0.51100000000E-03 0. -1.
</event>
<event>
 8    1  0.1063984E+005  0.1043930E+01  0.7957747E-01            NaN
         13   -1    0    0    0    0  0.00000000000E+00  0.00000000000E+00  0.74505805969E-08  0.10566000000E+00  0.10566000000E+00 0. -1.
     999900   -1    0    0    0    0 -0.00000000000E+00 -0.00000000000E+00 -0.74505805969E-08  0.93827000000E+00  0.93827000000E+00 0.  1.
     999902    2    1    2    0    0  0.15163980511E-01 -0.27665685652E-02 -0.18816495066E-01  0.10196059236E+01  0.10193157405E+01 0.  0.
     999903    2    3    3    0    0  0.54123124239E-01 -0.18485885396E-01 -0.11756802345E+00  0.13308645051E+00  0.24874135870E-01 0.  0.
         14    1    1    2    0    0 -0.15163980511E-01  0.27665685652E-02  0.18816495066E-01  0.24324076409E-01  0.00000000000E+00 0. -1.
     999901    1    3    3    0    0 -0.38959143728E-01  0.15719316831E-01  0.98751528380E-01  0.88651947309E+00  0.88000000000E+00 0. -1.
        -11    1    4    4    0    0  0.27991515515E-01 -0.19986445769E-01 -0.50618080444E-01  0.61199952158E-01  0.51100000000E-03 0. -1.
         11    1    4    4    0    0  0.26131608724E-01  0.15005603722E-02 -0.66949943002E-01  0.71886498349E-01  0.51100000000E-03 0.  1.
</event>
<event>
 8    1  0.1063984E+005  0.1043930E+01  0.7957747E-01            NaN
         13   -1    0    0    0    0  0.00000000000E+00  0.00000000000E+00  0.74505805969E-08  0.10566000000E+00  0.10566000000E+00 0.  1.
     999900   -1    0    0    0    0 -0.00000000000E+00 -0.00000000000E+00 -0.74505805969E-08  0.93827000000E+00  0.93827000000E+00 0. -1.
     999902    2    1    2    0    0  0.67685117108E-02 -0.12377309414E-01 -0.19272366273E-01  0.10200462264E+01  0.10197665759E+01 0.  0.
     999903    2    3    3    0    0  0.98983852738E-01  0.78810181397E-01  0.20149648297E-01  0.12966826013E+00  0.19975023518E-01 0.  0.
         14    1    1    2    0    0 -0.67685117108E-02  0.12377309414E-01  0.19272366273E-01  0.23883773589E-01  0.00000000000E+00 0.  1.
     999901    1    3    3    0    0 -0.92215341027E-01 -0.91187490811E-01 -0.39422014570E-01  0.89037796628E+00  0.88000000000E+00 0.  1.
        -11    1    4    4    0    0  0.19721502281E-01  0.68871120154E-02  0.57515219693E-02  0.21672819155E-01  0.51100000000E-03 0.  1.
         11    1    4    4    0    0  0.79262350457E-01  0.71923069382E-01  0.14398126328E-01  0.10799544098E+00  0.51100000000E-03 0. -1.
</event>
<event>
 8    1  0.1063984E+005  0.1043930E+01  0.7957747E-01            NaN
         13   -1    0    0    0    0  0.00000000000E+00  0.00000000000E+00  0.74505805969E-08  0.10566000000E+00  0.10566000000E+00 0.  1.
     999900   -1    0    0    0    0 -0.00000000000E+00 -0.00000000000E+00 -0.74505805969E-08  0.93827000000E+00  0.93827000000E+00 0.  1.
     999902    2    1    2    0    0  0.54992693005E-02  0.18827180249E-01 -0.56295424984E-02  0.10235242060E+01  0.10233207727E+01 0.  0.
     999903    2    3    3    0    0  0.97200085424E-01 -0.66853692921E-01  0.57255491946E-01  0.13239863729E+00  0.18273886656E-01 0.  0.
         14    1    1    2    0    0 -0.54992693005E-02 -0.18827180249E-01  0.56295424984E-02  0.20405793974E-01  0.00000000000E+00 0. -1.
     999901    1    3    3    0    0 -0.91700816124E-01  0.85680873170E-01 -0.62885034444E-01  0.89112556874E+00  0.88000000000E+00 0. -1.
        -11    1    4    4    0    0  0.87066773050E-01 -0.64112809448E-01  0.47649107486E-01  0.11815995036E+00  0.51100000000E-03 0. -1.
         11    1    4    4    0    0  0.10133312374E-01 -0.27408834730E-02  0.96063844599E-02  0.14238686923E-01  0.51100000000E-03 0.  1.
</event>
<event>
 8    1  0.1063984E+005  0.1043930E+01  0.7957747E-01            NaN
         13   -1    0    0    0    0  0.00000000000E+00  0.00000000000E+00  0.74505805969E-08  0.10566000000E+00  0.10566000000E+00 0.  1.
     999900   -1    0    0    0    0 -0.00000000000E+00 -0.00000000000E+00 -0.74505805969E-08  0.93827000000E+00  0.93827000000E+00 0.  1.
     999902    2    1    2    0    0 -0.13222309722E-01  0.27474015888E-02  0.19431534883E-01  0.10202664788E+01  0.10199920222E+01 0.  0.
     999903    2    3    3    0    0  0.18723586921E-01  0.10116492851E+00 -0.75566997423E-01  0.12912604590E+00  0.19448628849E-01 0.  0.
         14    1    1    2    0    0  0.13222309722E-01 -0.27474015888E-02 -0.19431534883E-01  0.23663521247E-01  0.00000000000E+00 0. -1.
     999901    1    3    3    0    0 -0.31945896643E-01 -0.98417526919E-01  0.94998532306E-01  0.89114043285E+00  0.88000000000E+00 0.  1.
        -11    1    4    4    0    0  0.91251463624E-02  0.18760410401E-01 -0.88615736907E-02  0.22671786516E-01  0.51100000000E-03 0. -1.
         11    1    4    4    0    0  0.95984405583E-02  0.82404518107E-01 -0.66705423732E-01  0.10645425939E+00  0.51100000000E-03 0.  1.
</event>
<event>
 8    1  0.1063984E+005  0.1043930E+01  0.7957747E-01            NaN
         13   -1    0    0    0    0  0.00000000000E+00  0.00000000000E+00  0.74505805969E-08  0.10566000000E+00  0.10566000000E+00 0. -1.
     999900   -1    0    0    0    0 -0.00000000000E+00 -0.00000000000E+00 -0.74505805969E-08  0.93827000000E+00  0.93827000000E+00 0. -1.
     999902    2    1    2    0    0  0.12029457783E-01  0.12279959975E-01 -0.16276390857E-01  0.10202566781E+01  0.10199819915E+01 0.  0.
     999903    2    3    3    0    0 -0.20484193745E-01 -0.72546193479E-01  0.10091124686E+00  0.12785230994E+00  0.21922158438E-01 0.  0.
         14    1    1    2    0    0 -0.12029457783E-01 -0.12279959975E-01  0.16276390857E-01  0.23673321923E-01  0.00000000000E+00 0. -1.
     999901    1    3    3    0    0  0.32513651528E-01  0.84826153454E-01 -0.11718763772E+00  0.89240436814E+00  0.88000000000E+00 0. -1.
        -11    1    4    4    0    0 -0.10701761629E-01 -0.27073965778E-01  0.56393626367E-01  0.63466759337E-01  0.51100000000E-03 0. -1.
         11    1    4    4    0    0 -0.97824321155E-02 -0.45472227701E-01  0.44517620496E-01  0.64385550598E-01  0.51100000000E-03 0.  1.
</event>
<event>
 8    1  0.1063984E+005  0.1043930E+01  0.7957747E-01            NaN
         13   -1    0    0    0    0  0.00000000000E+00  0.00000000000E+00  0.74505805969E-08  0.10566000000E+00  0.10566000000E+00 0. -1.
     999900   -1    0    0    0    0 -0.00000000000E+00 -0.00000000000E+00 -0.74505805969E-08  0.93827000000E+00  0.93827000000E+00 0. -1.
     999902    2    1    2    0    0  0.21926585551E-01 -0.86967064237E-02 -0.31532233058E-02  0.10201318767E+01  0.10198542519E+01 0.  0.
     999903    2    3    3    0    0 -0.92506955036E-01  0.82832913163E-01  0.22121269724E-01  0.12765694343E+00  0.19700670013E-01 0.  0.
         14    1    1    2    0    0 -0.21926585551E-01  0.86967064237E-02  0.31532233058E-02  0.23798123324E-01  0.00000000000E+00 0. -1.
     999901    1    3    3    0    0  0.11443354059E+00 -0.91529619586E-01 -0.25274493029E-01  0.89247493324E+00  0.88000000000E+00 0.  1.
        -11    1    4    4    0    0 -0.62606405152E-01  0.55720646605E-01  0.54683081060E-02  0.83991165837E-01  0.51100000000E-03 0.  1.
         11    1    4    4    0    0 -0.29900549884E-01  0.27112266558E-01  0.16652961618E-01  0.43665777594E-01  0.51100000000E-03 0. -1.
</event>
<event>
 8    1  0.1063984E+005  0.1043930E+01  0.7957747E-01            NaN
         13   -1    0    0    0    0  0.00000000000E+00  0.00000000000E+00  0.74505805969E-08  0.10566000000E+00  0.10566000000E+00 0. -1.
     999900   -1    0    0    0    0 -0.00000000000E+00 -0.00000000000E+00 -0.74505805969E-08  0.93827000000E+00  0.93827000000E+00 0.  1.
     999902    2    1    2    0    0 -0.15563501558E-01 -0.73232288338E-02  0.17136125524E-01  0.10196503983E+01  0.10193612881E+01 0.  0.
     999903    2    3    3    0    0 -0.11682033006E+00  0.55832116271E-01  0.81123802206E-02  0.13154963210E+00  0.21800923590E-01 0.  0.
         14    1    1    2    0    0  0.15563501558E-01  0.73232288338E-02 -0.17136125524E-01  0.24279601712E-01  0.00000000000E+00 0.  1.
     999901    1    3    3    0    0  0.10125682850E+00 -0.63155345105E-01  0.90237453035E-02  0.88810076619E+00  0.88000000000E+00 0. -1.
        -11    1    4    4    0    0 -0.11079845124E+00  0.53176336490E-01  0.12635623250E-01  0.12354731748E+00  0.51100000000E-03 0.  1.
         11    1    4    4    0    0 -0.60218788131E-02  0.26557797811E-02 -0.45232430296E-02  0.80023146145E-02  0.51100000000E-03 0. -1.
</event>
<event>
 8    1  0.1063984E+005  0.1043930E+01  0.7957747E-01            NaN
         13   -1    0    0    0    0  0.00000000000E+00  0.00000000000E+00  0.74505805969E-08  0.10566000000E+00  0.10566000000E+00 0.  1.
     999900   -1    0    0    0    0 -0.00000000000E+00 -0.00000000000E+00 -0.74505805969E-08  0.93827000000E+00  0.93827000000E+00 0.  1.
     999902    2    1    2    0    0 -0.18974246588E-01 -0.14171837540E-01 -0.19743690318E-03  0.10202466304E+01  0.10199717079E+01 0.  0.
     999903    2    3    3    0    0 -0.84374378228E-01 -0.81718076973E-01 -0.59633327969E-01  0.13324477202E+00  0.20028870656E-01 0.  0.
         14    1    1    2    0    0  0.18974246588E-01  0.14171837540E-01  0.19743690318E-03  0.23683369570E-01  0.00000000000E+00 0.  1.
     999901    1    3    3    0    0  0.65400131640E-01  0.67546239432E-01  0.59435891066E-01  0.88700185841E+00  0.88000000000E+00 0. -1.
        -11    1    4    4    0    0 -0.83835236836E-01 -0.75837058537E-01 -0.54979518021E-01  0.12570845201E+00  0.51100000000E-03 0. -1.
         11    1    4    4    0    0 -0.53914139211E-03 -0.58810184359E-02 -0.46538099477E-02  0.75363200114E-02  0.51100000000E-03 0.  1.
</event>
<event>
 8    1  0.1063984E+005  0.1043930E+01  0.7957747E-01            NaN
         13   -1    0    0    0    0  0.00000000000E+00  0.00000000000E+00  0.74505805969E-08  0.10566000000E+00  0.10566000000E+00 0. -1.
     999900   -1    0    0    0    0 -0.00000000000E+00 -0.00000000000E+00 -0.74505805969E-08  0.93827000000E+00  0.93827000000E+00 0.  1.
     999902    2    1    2    0    0  0.12037420811E-01  0.18940876218E-01  0.76866485000E-02  0.10202078404E+01  0.10199320059E+01 0.  0.
     999903    2    3    3    0    0  0.99755121127E-03 -0.17531278099E-01  0.12840541232E+00  0.13114928399E+00  0.20095869189E-01 0.  0.
         14    1    1    2    0    0 -0.12037420811E-01 -0.18940876218E-01 -0.76866485000E-02  0.23722159616E-01  0.00000000000E+00 0. -1.
     999901    1    3    3    0    0  0.11039869600E-01  0.36472154316E-01 -0.12071876382E+00  0.88905855639E+00  0.88000000000E+00 0.  1.
        -11    1    4    4    0    0 -0.76668366463E-02 -0.16076688785E-01  0.81448818776E-01  0.83375125232E-01  0.51100000000E-03 0.  1.
         11    1    4    4    0    0  0.86643878576E-02 -0.14545893142E-02  0.46956593540E-01  0.47774158757E-01  0.51100000000E-03 0. -1.
</event>
<event>
 8    1  0.1098205E+005  0.1043930E+01  0.7957747E-01            NaN
         13   -1    0    0    0    0  0.00000000000E+00  0.00000000000E+00  0.74505805969E-08  0.10566000000E+00  0.10566000000E+00 0.  1.
     999900   -1    0    0    0    0 -0.00000000000E+00 -0.00000000000E+00 -0.74505805969E-08  0.93827000000E+00  0.93827000000E+00 0. -1.
     999902    2    1    2    0    0  0.13731705732E-01 -0.13182502597E-01 -0.17598971762E-01  0.10180058428E+01  0.10176757019E+01 0.  0.
     999903    2    3    3    0    0 -0.10420141037E+00 -0.12990017106E-01  0.66803407390E-01  0.12613588678E+00  0.20515658127E-01 0.  0.
         14    1    1    2    0    0 -0.13731705732E-01  0.13182502597E-01  0.17598971762E-01  0.25924157154E-01  0.00000000000E+00 0.  1.
     999901    1    3    3    0    0  0.11793311610E+00 -0.19248549120E-03 -0.84402379152E-01  0.89186995606E+00  0.88000000000E+00 0. -1.
        -11    1    4    4    0    0 -0.38669779589E-01 -0.43622169102E-03  0.35236971360E-01  0.52320621312E-01  0.51100000000E-03 0. -1.
         11    1    4    4    0    0 -0.65531630779E-01 -0.12553795415E-01  0.31566436030E-01  0.73815265470E-01  0.51100000000E-03 0.  1.
</event>
<event>
 8    1  0.1063984E+005  0.1043930E+01  0.7957747E-01            NaN
         13   -1    0    0    0    0  0.00000000000E+00  0.00000000000E+00  0.74505805969E-08  0.10566000000E+00  0.10566000000E+00 0.  1.
     999900   -1    0    0    0    0 -0.00000000000E+00 -0.00000000000E+00 -0.74505805969E-08  0.93827000000E+00  0.93827000000E+00 0. -1.
     999902    2    1    2    0    0  0.22484318626E-01 -0.17800396804E-02  0.91134293426E-02  0.10196037237E+01  0.10193134874E+01 0.  0.
     999903    2    3    3    0    0  0.58697153585E-01  0.11218380356E+00 -0.26031970296E-01  0.13082122717E+00  0.20148657052E-01 0.  0.
         14    1    1    2    0    0 -0.22484318626E-01  0.17800396804E-02 -0.91134293426E-02  0.24326276323E-01  0.00000000000E+00 0. -1.
     999901    1    3    3    0    0 -0.36212834958E-01 -0.11396384324E+00  0.35145399639E-01  0.88878249651E+00  0.88000000000E+00 0. -1.
        -11    1    4    4    0    0  0.28969764182E-01  0.35222034694E-01 -0.69024089670E-02  0.46127468338E-01  0.51100000000E-03 0. -1.
         11    1    4    4    0    0  0.29727389403E-01  0.76961768865E-01 -0.19129561329E-01  0.84693758832E-01  0.51100000000E-03 0.  1.
</event>
<event>
 8    1  0.1282569E+005  0.1043930E+01  0.7957747E-01            NaN
         13   -1    0    0    0    0  0.00000000000E+00  0.00000000000E+00  0.74505805969E-08  0.10566000000E+00  0.10566000000E+00 0. -1.
     999900   -1    0    0    0    0 -0.00000000000E+00 -0.00000000000E+00 -0.74505805969E-08  0.93827000000E+00  0.93827000000E+00 0. -1.
     999902    2    1    2    0    0 -0.65029616481E-02  0.21585858054E-01  0.82390819192E-03  0.10213708200E+01  0.10211216555E+01 0.  0.
     999903    2    3    3    0    0  0.31854969810E-02 -0.74387011368E-02 -0.12950981087E+00  0.13124545264E+00  0.19674756984E-01 0.  0.
         14    1    1    2    0    0  0.65029616481E-02 -0.21585858054E-01 -0.82390819192E-03  0.22559180013E-01  0.00000000000E+00 0.  1.
     999901    1    3    3    0    0 -0.96884586291E-02  0.29024559191E-01  0.13033371906E+00  0.89012536734E+00  0.88000000000E+00 0.  1.
        -11    1    4    4    0    0 -0.85002378811E-03 -0.13692225543E-01 -0.78134754582E-01  0.79331586240E-01  0.51100000000E-03 0. -1.
         11    1    4    4    0    0  0.40355207691E-02  0.62535244058E-02 -0.51375056287E-01  0.51913866402E-01  0.51100000000E-03 0.  1.
</event>
<event>
 8    1  0.1063984E+005  0.1043930E+01  0.7957747E-01            NaN
         13   -1    0    0    0    0  0.00000000000E+00  0.00000000000E+00  0.74505805969E-08  0.10566000000E+00  0.10566000000E+00 0.  1.
     999900   -1    0    0    0    0 -0.00000000000E+00 -0.00000000000E+00 -0.74505805969E-08  0.93827000000E+00  0.93827000000E+00 0. -1.
     999902    2    1    2    0    0 -0.19565902763E-01  0.10146565009E-01  0.17704223521E-02  0.10218186516E+01  0.10215793875E+01 0.  0.
     999903    2    3    3    0    0 -0.46161092792E-01 -0.11456722740E+00  0.40973926874E-01  0.13176373818E+00  0.20647613290E-01 0.  0.
         14    1    1    2    0    0  0.19565902763E-01 -0.10146565009E-01 -0.17704223521E-02  0.22111348393E-01  0.00000000000E+00 0. -1.
     999901    1    3    3    0    0  0.26595190029E-01  0.12471379241E+00 -0.39203504522E-01  0.89005491343E+00  0.88000000000E+00 0.  1.
        -11    1    4    4    0    0 -0.10137413415E-01 -0.26542458591E-01  0.56287192331E-03  0.28422653018E-01  0.51100000000E-03 0. -1.
         11    1    4    4    0    0 -0.36023679377E-01 -0.88024768806E-01  0.40411054951E-01  0.10334108516E+00  0.51100000000E-03 0.  1.
</event>
<event>
 8    1  0.1063984E+005  0.1043930E+01  0.7957747E-01            NaN
         13   -1    0    0    0    0  0.00000000000E+00  0.00000000000E+00  0.74505805969E-08  0.10566000000E+00  0.10566000000E+00 0.  1.
     999900   -1    0    0    0    0 -0.00000000000E+00 -0.00000000000E+00 -0.74505805969E-08  0.93827000000E+00  0.93827000000E+00 0.  1.
     999902    2    1    2    0    0  0.22264130276E-01 -0.64299838902E-02  0.23822758789E-02  0.10206338323E+01  0.10203679279E+01 0.  0.
     999903    2    3    3    0    0  0.22145934534E-01 -0.93859392419E-01  0.87777433467E-01  0.13218785852E+00  0.21650038132E-01 0.  0.
         14    1    1    2    0    0 -0.22264130276E-01  0.64299838902E-02 -0.23822758789E-02  0.23296167671E-01  0.00000000000E+00 0. -1.
     999901    1    3    3    0    0  0.11819574211E-03  0.87429408529E-01 -0.85395157589E-01  0.88844597381E+00  0.88000000000E+00 0.  1.
        -11    1    4    4    0    0  0.27581603799E-02 -0.49722634999E-01  0.53112157914E-01  0.72808724197E-01  0.51100000000E-03 0. -1.
         11    1    4    4    0    0  0.19387774154E-01 -0.44136757420E-01  0.34665275554E-01  0.59379134319E-01  0.51100000000E-03 0.  1.
</event>
<event>
 8    1  0.1063984E+005  0.1043930E+01  0.7957747E-01            NaN
         13   -1    0    0    0    0  0.00000000000E+00  0.00000000000E+00  0.74505805969E-08  0.10566000000E+00  0.10566000000E+00 0. -1.
     999900   -1    0    0    0    0 -0.00000000000E+00 -0.00000000000E+00 -0.74505805969E-08  0.93827000000E+00  0.93827000000E+00 0.  1.
     999902    2    1    2    0    0  0.11271395519E-01  0.82760628310E-02  0.18170266455E-01  0.10210019352E+01  0.10207444614E+01 0.  0.
     999903    2    3    3    0    0  0.88575730828E-01  0.90048818538E-01 -0.30729153522E-01  0.13248975344E+00  0.25589139883E-01 0.  0.
         14    1    1    2    0    0 -0.11271395519E-01 -0.82760628310E-02 -0.18170266455E-01  0.22928064811E-01  0.00000000000E+00 0.  1.
     999901    1    3    3    0    0 -0.77304335309E-01 -0.81772755707E-01  0.48899419977E-01  0.88851218174E+00  0.88000000000E+00 0.  1.
        -11    1    4    4    0    0  0.49696968058E-01  0.61204500902E-01 -0.87656828848E-02  0.79327661520E-01  0.51100000000E-03 0. -1.
         11    1    4    4    0    0  0.38878762769E-01  0.28844317636E-01 -0.21963470637E-01  0.53162091925E-01  0.51100000000E-03 0.  1.
</event>
<event>
 8    1  0.1063984E+005  0.1043930E+01  0.7957747E-01            NaN
         13   -1    0    0    0    0  0.00000000000E+00  0.00000000000E+00  0.74505805969E-08  0.10566000000E+00  0.10566000000E+00 0.  1.
     999900   -1    0    0    0    0 -0.00000000000E+00 -0.00000000000E+00 -0.74505805969E-08  0.93827000000E+00  0.93827000000E+00 0.  1.
     999902    2    1    2    0    0  0.23858796881E-02  0.81177603266E-03  0.23599787427E-01  0.10201960292E+01  0.10199199168E+01 0.  0.
     999903    2    3    3    0    0  0.42000752010E-01 -0.34651179647E-02  0.12507184174E+00  0.13346934769E+00  0.19875385950E-01 0.  0.
         14    1    1    2    0    0 -0.23858796881E-02 -0.81177603266E-03 -0.23599787427E-01  0.23733970776E-01  0.00000000000E+00 0. -1.
     999901    1    3    3    0    0 -0.39614872322E-01  0.42768939973E-02 -0.10147205431E+00  0.88672668153E+00  0.88000000000E+00 0.  1.
        -11    1    4    4    0    0  0.41770741607E-01  0.13027693087E-02  0.11230246997E+00  0.11982736726E+00  0.51100000000E-03 0. -1.
         11    1    4    4    0    0  0.23001040294E-03 -0.47678872733E-02  0.12769371768E-01  0.13641980435E-01  0.51100000000E-03 0.  1.
</event>
<event>
 8    1  0.1063984E+005  0.1043930E+01  0.7957747E-01            NaN
         13   -1    0    0    0    0  0.00000000000E+00  0.00000000000E+00  0.74505805969E-08  0.10566000000E+00  0.10566000000E+00 0.  1.
     999900   -1    0    0    0    0 -0.00000000000E+00 -0.00000000000E+00 -0.74505805969E-08  0.93827000000E+00  0.93827000000E+00 0. -1.
     999902    2    1    2    0    0 -0.14413270151E-01  0.18234084669E-01 -0.38394673057E-02  0.10203722898E+01  0.10201003108E+01 0.  0.
     999903    2    3    3    0    0 -0.76884112061E-01  0.52474189840E-01 -0.92630531322E-01  0.13303985834E+00  0.21318566726E-01 0.  0.
         14    1    1    2    0    0  0.14413270151E-01 -0.18234084669E-01  0.38394673057E-02  0.23557710189E-01  0.00000000000E+00 0. -1.
     999901    1    3    3    0    0  0.62470841910E-01 -0.34240105171E-01  0.88791064017E-01  0.88733243147E+00  0.88000000000E+00 0.  1.
        -11    1    4    4    0    0 -0.32167112858E-01  0.32616440620E-01 -0.36493236688E-01  0.58571091789E-01  0.51100000000E-03 0.  1.
         11    1    4    4    0    0 -0.44716999203E-01  0.19857749220E-01 -0.56137294634E-01  0.74468766551E-01  0.51100000000E-03 0. -1.
</event>
<event>
 8    1  0.1063984E+005  0.1043930E+01  0.7957747E-01            NaN
         13   -1    0    0    0    0  0.00000000000E+00  0.00000000000E+00  0.74505805969E-08  0.10566000000E+00  0.10566000000E+00 0.  1.
     999900   -1    0    0    0    0 -0.00000000000E+00 -0.00000000000E+00 -0.74505805969E-08  0.93827000000E+00  0.93827000000E+00 0.  1.
     999902    2    1    2    0    0  0.10893148164E-01  0.20475587230E-01  0.68353046168E-02  0.10197508408E+01  0.10194641463E+01 0.  0.
     999903    2    3    3    0    0  0.17601668591E-01  0.10390625204E+00  0.78322398026E-01  0.13289342015E+00  0.20492318942E-01 0.  0.
         14    1    1    2    0    0 -0.10893148164E-01 -0.20475587230E-01 -0.68353046168E-02  0.24179159178E-01  0.00000000000E+00 0. -1.
     999901    1    3    3    0    0 -0.67085204270E-02 -0.83430664814E-01 -0.71487093409E-01  0.88685742067E+00  0.88000000000E+00 0.  1.
        -11    1    4    4    0    0  0.61388334919E-02  0.85007141656E-01  0.61122861605E-01  0.10488167019E+00  0.51100000000E-03 0.  1.
         11    1    4    4    0    0  0.11462835099E-01  0.18899110388E-01  0.17199536421E-01  0.28011749964E-01  0.51100000000E-03 0. -1.
</event>
<event>
 8    1  0.1063984E+005  0.1043930E+01  0.7957747E-01            NaN
         13   -1    0    0    0    0  0.00000000000E+00  0.00000000000E+00  0.74505805969E-08  0.10566000000E+00  0.10566000000E+00 0. -1.
     999900   -1    0    0    0    0 -0.00000000000E+00 -0.00000000000E+00 -0.74505805969E-08  0.93827000000E+00  0.93827000000E+00 0. -1.
     999902    2    1    2    0    0 -0.55424992616E-02 -0.11553185976E-01  0.19843935143E-01  0.10203084597E+01  0.10200349875E+01 0.  0.
     999903    2    3    3    0    0  0.72414079120E-02  0.12536943667E+00 -0.20360053609E-01  0.12872133912E+00  0.19614222448E-01 0.  0.
         14    1    1    2    0    0  0.55424992616E-02  0.11553185976E-01 -0.19843935143E-01  0.23621540302E-01  0.00000000000E+00 0.  1.
     999901    1    3    3    0    0 -0.12783907174E-01 -0.13692262264E+00  0.40203988753E-01  0.89158712058E+00  0.88000000000E+00 0. -1.
        -11    1    4    4    0    0  0.81318841252E-02  0.18594510405E-01 -0.24233211541E-02  0.20445463141E-01  0.51100000000E-03 0. -1.
         11    1    4    4    0    0 -0.89047621323E-03  0.10677492626E+00 -0.17936732455E-01  0.10827587598E+00  0.51100000000E-03 0.  1.
</event>
<event>
 8    1  0.1063984E+005  0.1043930E+01  0.7957747E-01            NaN
         13   -1    0    0    0    0  0.00000000000E+00  0.00000000000E+00  0.74505805969E-08  0.10566000000E+00  0.10566000000E+00 0. -1.
     999900   -1    0    0    0    0 -0.00000000000E+00 -0.00000000000E+00 -0.74505805969E-08  0.93827000000E+00  0.93827000000E+00 0. -1.
     999902    2    1    2    0    0  0.15535332471E-01  0.14128161304E-01 -0.11940628949E-01  0.10197736320E+01  0.10194874842E+01 0.  0.
     999903    2    3    3    0    0 -0.46484715186E-01 -0.65450807982E-01 -0.99910280292E-01  0.12965119195E+00  0.19563498022E-01 0.  0.
         14    1    1    2    0    0 -0.15535332471E-01 -0.14128161304E-01  0.11940628949E-01  0.24156368033E-01  0.00000000000E+00 0. -1.
     999901    1    3    3    0    0  0.62020047657E-01  0.79578969286E-01  0.87969651343E-01  0.89012244002E+00  0.88000000000E+00 0.  1.
        -11    1    4    4    0    0 -0.26333154793E-01 -0.21522247919E-01 -0.36059442949E-01  0.49570018596E-01  0.51100000000E-03 0.  1.
         11    1    4    4    0    0 -0.20151560393E-01 -0.43928560063E-01 -0.63850837342E-01  0.80081173354E-01  0.51100000000E-03 0. -1.
</event>
<event>
 8    1  0.1063984E+005  0.1043930E+01  0.7957747E-01            NaN
         13   -1    0    0    0    0  0.00000000000E+00  0.00000000000E+00  0.74505805969E-08  0.10566000000E+00  0.10566000000E+00 0.  1.
     999900   -1    0    0    0    0 -0.00000000000E+00 -0.00000000000E+00 -0.74505805969E-08  0.93827000000E+00  0.93827000000E+00 0.  1.
     999902    2    1    2    0    0  0.40917580805E-02  0.12514552779E-02  0.22845664743E-01  0.10206870866E+01  0.10204224105E+01 0.  0.
     999903    2    3    3    0    0 -0.33680708197E-01 -0.10437998033E+00  0.71036969626E-01  0.13225748263E+00  0.20401476880E-01 0.  0.
         14    1    1    2    0    0 -0.40917580805E-02 -0.12514552779E-02 -0.22845664743E-01  0.23242913372E-01  0.00000000000E+00 0. -1.
     999901    1    3    3    0    0  0.37772466278E-01  0.10563143561E+00 -0.48191304883E-01  0.88842960400E+00  0.88000000000E+00 0.  1.
        -11    1    4    4    0    0 -0.22032231008E-01 -0.41736812755E-01  0.37304618217E-01  0.60160422235E-01  0.51100000000E-03 0. -1.
         11    1    4    4    0    0 -0.11648477189E-01 -0.62643167575E-01  0.33732351409E-01  0.72097060392E-01  0.51100000000E-03 0.  1.
</event>
<event>
 8    1  0.1063984E+005  0.1043930E+01  0.7957747E-01            NaN
         13   -1    0    0    0    0  0.00000000000E+00  0.00000000000E+00  0.74505805969E-08  0.10566000000E+00  0.10566000000E+00 0.  1.
     999900   -1    0    0    0    0 -0.00000000000E+00 -0.00000000000E+00 -0.74505805969E-08  0.93827000000E+00  0.93827000000E+00 0. -1.
     999902    2    1    2    0    0  0.14121791449E-03  0.20928637870E-01 -0.18682246262E-01  0.10158755146E+01  0.10154880635E+01 0.  0.
     999903    2    3    3    0    0 -0.49971209827E-01 -0.11142272734E+00 -0.14275098166E-01  0.12455763514E+00  0.19966974401E-01 0.  0.
         14    1    1    2    0    0 -0.14121791449E-03 -0.20928637870E-01  0.18682246262E-01  0.28054485398E-01  0.00000000000E+00 0.  1.
     999901    1    3    3    0    0  0.50112427741E-01  0.13235136521E+00 -0.44071480952E-02  0.89131787946E+00  0.88000000000E+00 0.  1.
        -11    1    4    4    0    0 -0.82542197254E-02 -0.36790648796E-01 -0.96870564747E-02  0.38933072911E-01  0.51100000000E-03 0.  1.
         11    1    4    4    0    0 -0.41716990101E-01 -0.74632078539E-01 -0.45880416917E-02  0.85624562234E-01  0.51100000000E-03 0. -1.
</event>
<event>
 8    1  0.1063984E+005  0.1043930E+01  0.7957747E-01            NaN
         13   -1    0    0    0    0  0.00000000000E+00  0.00000000000E+00  0.74505805969E-08  0.10566000000E+00  0.10566000000E+00 0.  1.
     999900   -1    0    0    0    0 -0.00000000000E+00 -0.00000000000E+00 -0.74505805969E-08  0.93827000000E+00  0.93827000000E+00 0.  1.
     999902    2    1    2    0    0 -0.18431590550E-01  0.16187817205E-01 -0.39614240988E-02  0.10190812206E+01  0.10187782253E+01 0.  0.
     999903    2    3    3    0    0  0.67022502803E-01 -0.42692777939E-01  0.97642923846E-01  0.12717720668E+00  0.18033639427E-01 0.  0.
         14    1    1    2    0    0  0.18431590550E-01 -0.16187817205E-01  0.39614240988E-02  0.24848779385E-01  0.00000000000E+00 0.  1.
     999901    1    3    3    0    0 -0.85454093353E-01  0.58880595144E-01 -0.10160434794E+00  0.89190401394E+00  0.88000000000E+00 0.  1.
        -11    1    4    4    0    0  0.38028007396E-01 -0.33919408678E-01  0.65770373705E-01  0.83202516848E-01  0.51100000000E-03 0. -1.
         11    1    4    4    0    0  0.28994495408E-01 -0.87733692612E-02  0.31872550141E-01  0.43974689830E-01  0.51100000000E-03 0.  1.
</event>
<event>
 8    1  0.1063984E+005  0.1043930E+01  0.7957747E-01            NaN
         13   -1    0    0    0    0  0.00000000000E+00  0.00000000000E+00  0.74505805969E-08  0.10566000000E+00  0.10566000000E+00 0. -1.
     999900   -1    0    0    0    0 -0.00000000000E+00 -0.00000000000E+00 -0.74505805969E-08  0.93827000000E+00  0.93827000000E+00 0.  1.
     999902    2    1    2    0    0 -0.21525497150E-01 -0.12517064485E-02  0.85432011799E-02  0.10207373270E+01  0.10204738069E+01 0.  0.
     999903    2    3    3    0    0  0.74025340718E-01  0.42829620725E-01 -0.94003099022E-01  0.12855524368E+00  0.19384028816E-01 0.  0.
         14    1    1    2    0    0  0.21525497150E-01  0.12517064485E-02 -0.85432011799E-02  0.23192673045E-01  0.00000000000E+00 0. -1.
     999901    1    3    3    0    0 -0.95550837868E-01 -0.44081327173E-01  0.10254630020E+00  0.89218208327E+00  0.88000000000E+00 0.  1.
        -11    1    4    4    0    0  0.58384771376E-01  0.38146954852E-01 -0.65367571005E-01  0.95588451987E-01  0.51100000000E-03 0. -1.
         11    1    4    4    0    0  0.15640569342E-01  0.46826658729E-02 -0.28635528018E-01  0.32966791698E-01  0.51100000000E-03 0.  1.
</event>
<event>
 8    1  0.1063984E+005  0.1043930E+01  0.7957747E-01            NaN
         13   -1    0    0    0    0  0.00000000000E+00  0.00000000000E+00  0.74505805969E-08  0.10566000000E+00  0.10566000000E+00 0. -1.
     999900   -1    0    0    0    0 -0.00000000000E+00 -0.00000000000E+00 -0.74505805969E-08  0.93827000000E+00  0.93827000000E+00 0. -1.
     999902    2    1    2    0    0 -0.12864455049E-01  0.11309293286E-01  0.17526253307E-01  0.10194235953E+01  0.10191289922E+01 0.  0.
     999903    2    3    3    0    0  0.46511531239E-01  0.17894808573E-01 -0.11549730214E+00  0.12742351507E+00  0.20336633913E-01 0.  0.
         14    1    1    2    0    0  0.12864455049E-01 -0.11309293286E-01 -0.17526253307E-01  0.24506404740E-01  0.00000000000E+00 0.  1.
     999901    1    3    3    0    0 -0.59375986288E-01 -0.65855152871E-02  0.13302355544E+00  0.89200008019E+00  0.88000000000E+00 0.  1.
        -11    1    4    4    0    0  0.39105218449E-01  0.57379079937E-02 -0.87348783074E-01  0.95876027888E-01  0.51100000000E-03 0.  1.
         11    1    4    4    0    0  0.74063127900E-02  0.12156900579E-01 -0.28148519064E-01  0.31547487179E-01  0.51100000000E-03 0. -1.
</event>
<event>
 8    1  0.1063984E+005  0.1043930E+01  0.7957747E-01            NaN
         13   -1    0    0    0    0  0.00000000000E+00  0.00000000000E+00  0.74505805969E-08  0.10566000000E+00  0.10566000000E+00 0. -1.
     999900   -1    0    0    0    0 -0.00000000000E+00 -0.00000000000E+00 -0.74505805969E-08  0.93827000000E+00  0.93827000000E+00 0.  1.
     999902    2    1    2    0    0 -0.13088431492E-01  0.19004487511E-01 -0.51711180370E-02  0.10202822084E+01  0.10200081209E+01 0.  0.
     999903    2    3    3    0    0 -0.12026435725E+00  0.47886246165E-01  0.20637997599E-01  0.13293394225E+00  0.22111034817E-01 0.  0.
         14    1    1    2    0    0  0.13088431492E-01 -0.19004487511E-01  0.51711180370E-02  0.23647791572E-01  0.00000000000E+00 0. -1.
     999901    1    3    3    0    0  0.10717592576E+00 -0.28881758653E-01 -0.25809115636E-01  0.88734826618E+00  0.88000000000E+00 0.  1.
        -11    1    4    4    0    0 -0.53712772651E-01  0.25818742771E-01  0.19836900012E-01  0.62812683012E-01  0.51100000000E-03 0.  1.
         11    1    4    4    0    0 -0.66551584596E-01  0.22067503393E-01  0.80109758616E-03  0.70121259235E-01  0.51100000000E-03 0. -1.
</event>
<event>
 8    1  0.1063984E+005  0.1043930E+01  0.7957747E-01            NaN
         13   -1    0    0    0    0  0.00000000000E+00  0.00000000000E+00  0.74505805969E-08  0.10566000000E+00  0.10566000000E+00 0. -1.
     999900   -1    0    0    0    0 -0.00000000000E+00 -0.00000000000E+00 -0.74505805969E-08  0.93827000000E+00  0.93827000000E+00 0. -1.
     999902    2    1    2    0    0  0.82425039439E-02  0.18592050711E-02 -0.23370009416E-01  0.10190793892E+01  0.10187763487E+01 0.  0.
     999903    2    3    3    0    0 -0.87795112111E-02  0.78458969397E-01 -0.10371276179E+00  0.13194229119E+00  0.20482713446E-01 0.  0.
         14    1    1    2    0    0 -0.82425039439E-02 -0.18592050711E-02  0.23370009416E-01  0.24850610754E-01  0.00000000000E+00 0. -1.
     999901    1    3    3    0    0  0.17022015155E-01 -0.76599764326E-01  0.80342752370E-01  0.88713709806E+00  0.88000000000E+00 0.  1.
        -11    1    4    4    0    0 -0.10232229119E-01  0.64526714985E-01 -0.95455971615E-01  0.11567410729E+00  0.51100000000E-03 0.  1.
         11    1    4    4    0    0  0.14527179077E-02  0.13932254413E-01 -0.82567901715E-02  0.16268183896E-01  0.51100000000E-03 0. -1.
</event>
<event>
 8    1  0.1063984E+005  0.1043930E+01  0.7957747E-01            NaN
         13   -1    0    0    0    0  0.00000000000E+00  0.00000000000E+00  0.74505805969E-08  0.10566000000E+00  0.10566000000E+00 0.  1.
     999900   -1    0    0    0    0 -0.00000000000E+00 -0.00000000000E+00 -0.74505805969E-08  0.93827000000E+00  0.93827000000E+00 0.  1.
     999902    2    1    2    0    0 -0.40211349311E-02  0.11214056591E-01 -0.20638010527E-01  0.10201003531E+01  0.10198219837E+01 0.  0.
     999903    2    3    3    0    0 -0.11803822110E+00 -0.32599053949E-02  0.50917388908E-01  0.12974673422E+00  0.17262268860E-01 0.  0.
         14    1    1    2    0    0  0.40211349311E-02 -0.11214056591E-01  0.20638010527E-01  0.23829646868E-01  0.00000000000E+00 0.  1.
     999901    1    3    3    0    0  0.11401708616E+00  0.14473961986E-01 -0.71555399435E-01  0.89035361891E+00  0.88000000000E+00 0.  1.
        -11    1    4    4    0    0 -0.49551965367E-01  0.52235465670E-03  0.12422587451E-01  0.51090624640E-01  0.51100000000E-03 0.  1.
         11    1    4    4    0    0 -0.68486255729E-01 -0.37822600516E-02  0.38494801457E-01  0.78656109585E-01  0.51100000000E-03 0. -1.
</event>
<event>
 8    1  0.1063984E+005  0.1043930E+01  0.7957747E-01            NaN
         13   -1    0    0    0    0  0.00000000000E+00  0.00000000000E+00  0.74505805969E-08  0.10566000000E+00  0.10566000000E+00 0. -1.
     999900   -1    0    0    0    0 -0.00000000000E+00 -0.00000000000E+00 -0.74505805969E-08  0.93827000000E+00  0.93827000000E+00 0.  1.
     999902    2    1    2    0    0  0.88165019348E-02 -0.19287162501E-01 -0.12191803317E-01  0.10194684912E+01  0.10191749797E+01 0.  0.
     999903    2    3    3    0    0 -0.54889008319E-01  0.81676239422E-01  0.76966837043E-01  0.12694327381E+00  0.22514205297E-01 0.  0.
         14    1    1    2    0    0 -0.88165019348E-02  0.19287162501E-01  0.12191803317E-01  0.24461508781E-01  0.00000000000E+00 0. -1.
     999901    1    3    3    0    0  0.63705510253E-01 -0.10096340192E+00 -0.89158640361E-01  0.89252521741E+00  0.88000000000E+00 0.  1.
        -11    1    4    4    0    0 -0.44851151487E-01  0.64074304452E-01  0.71450486259E-01  0.10593665743E+00  0.51100000000E-03 0. -1.
         11    1    4    4    0    0 -0.10037856831E-01  0.17601934970E-01  0.55163507840E-02  0.21006616373E-01  0.51100000000E-03 0.  1.
</event>
<event>
 8    1  0.1063984E+005  0.1043930E+01  0.7957747E-01            NaN
         13   -1    0    0    0    0  0.00000000000E+00  0.00000000000E+00  0.74505805969E-08  0.10566000000E+00  0.10566000000E+00 0. -1.
     999900   -1    0    0    0    0 -0.00000000000E+00 -0.00000000000E+00 -0.74505805969E-08  0.93827000000E+00  0.93827000000E+00 0. -1.
     999902    2    1    2    0    0  0.82072087109E-02 -0.18912132914E-01  0.10547283924E-01  0.10207724474E+01  0.10205097339E+01 0.  0.
     999903    2    3    3    0    0  0.91695449351E-01  0.81000508892E-01  0.41565348346E-01  0.13065170126E+00  0.19314527849E-01 0.  0.
         14    1    1    2    0    0 -0.82072087109E-02  0.18912132914E-01 -0.10547283924E-01  0.23157552642E-01  0.00000000000E+00 0. -1.
     999901    1    3    3    0    0 -0.83488240640E-01 -0.99912641806E-01 -0.31018064421E-01  0.89012074610E+00  0.88000000000E+00 0. -1.
        -11    1    4    4    0    0  0.78074807834E-01  0.76979487170E-01  0.37288960123E-01  0.11581124613E+00  0.51100000000E-03 0. -1.
         11    1    4    4    0    0  0.13620641517E-01  0.40210217220E-02  0.42763882231E-02  0.14840455123E-01  0.51100000000E-03 0.  1.
</event>
<event>
 8    1  0.1063984E+005  0.1043930E+01  0.7957747E-01            NaN
         13   -1    0    0    0    0  0.00000000000E+00  0.00000000000E+00  0.74505805969E-08  0.10566000000E+00  0.10566000000E+00 0. -1.
     999900   -1    0    0    0    0 -0.00000000000E+00 -0.00000000000E+00 -0.74505805969E-08  0.93827000000E+00  0.93827000000E+00 0. -1.
     999902    2    1    2    0    0  0.15037744486E-01  0.13829618625E-01  0.10084034027E-01  0.10211466760E+01  0.10208924792E+01 0.  0.
     999903    2    3    3    0    0 -0.15580581402E-02  0.98991919956E-01 -0.84610231730E-01  0.13182387622E+00  0.20416054126E-01 0.  0.
         14    1    1    2    0    0 -0.15037744486E-01 -0.13829618625E-01 -0.10084034027E-01  0.22783324006E-01  0.00000000000E+00 0.  1.
     999901    1    3    3    0    0  0.16595802626E-01 -0.85162301332E-01  0.94694265757E-01  0.88932279978E+00  0.88000000000E+00 0.  1.
        -11    1    4    4    0    0 -0.44494328296E-02  0.64911456363E-01 -0.66827664968E-01  0.93271070251E-01  0.51100000000E-03 0.  1.
         11    1    4    4    0    0  0.28913746894E-02  0.34080463593E-01 -0.17782566762E-01  0.38552805967E-01  0.51100000000E-03 0. -1.
</event>
<event>
 8    1  0.1063984E+005  0.1043930E+01  0.7957747E-01            NaN
         13   -1    0    0    0    0  0.00000000000E+00  0.00000000000E+00  0.74505805969E-08  0.10566000000E+00  0.10566000000E+00 0. -1.
     999900   -1    0    0    0    0 -0.00000000000E+00 -0.00000000000E+00 -0.74505805969E-08  0.93827000000E+00  0.93827000000E+00 0. -1.
     999902    2    1    2    0    0 -0.58289961544E-03 -0.19360450714E-01  0.14117538751E-01  0.10199618602E+01  0.10196802070E+01 0.  0.
     999903    2    3    3    0    0  0.97059590607E-01 -0.57393551905E-01  0.66467083088E-01  0.13220004111E+00  0.18557850282E-01 0.  0.
         14    1    1    2    0    0  0.58289961544E-03  0.19360450714E-01 -0.14117538751E-01  0.23968139773E-01  0.00000000000E+00 0.  1.
     999901    1    3    3    0    0 -0.97642490222E-01  0.38033101191E-01 -0.52349544337E-01  0.88776181911E+00  0.88000000000E+00 0. -1.
        -11    1    4    4    0    0  0.18453128397E-01 -0.19967953631E-01  0.16864910170E-01  0.31998803663E-01  0.51100000000E-03 0.  1.
         11    1    4    4    0    0  0.78606462210E-01 -0.37425598274E-01  0.49602172918E-01  0.10020123745E+00  0.51100000000E-03 0. -1.
</event>
<event>
 8    1  0.1063984E+005  0.1043930E+01  0.7957747E-01            NaN
         13   -1    0    0    0    0  0.00000000000E+00  0.00000000000E+00  0.74505805969E-08  0.10566000000E+00  0.10566000000E+00 0.  1.
     999900   -1    0    0    0    0 -0.00000000000E+00 -0.00000000000E+00 -0.74505805969E-08  0.93827000000E+00  0.93827000000E+00 0. -1.
     999902    2    1    2    0    0 -0.10362166390E-01 -0.12710729311E-01 -0.17637731190E-01  0.10198462567E+01  0.10195618473E+01 0.  0.
     999903    2    3    3    0    0  0.56966881417E-01  0.64147524958E-01 -0.96206355283E-01  0.13045690400E+00  0.20080101289E-01 0.  0.
         14    1    1    2    0    0  0.10362166390E-01  0.12710729311E-01  0.17637731190E-01  0.24083743343E-01  0.00000000000E+00 0.  1.
     999901    1    3    3    0    0 -0.67329047807E-01 -0.76858254269E-01  0.78568624093E-01  0.88938935266E+00  0.88000000000E+00 0.  1.
        -11    1    4    4    0    0  0.44925998050E-01  0.38492473857E-01 -0.71944054569E-01  0.93146250344E-01  0.51100000000E-03 0. -1.
         11    1    4    4    0    0  0.12040883367E-01  0.25655051101E-01 -0.24262300714E-01  0.37310653656E-01  0.51100000000E-03 0.  1.
</event>
<event>
 8    1  0.1063984E+005  0.1043930E+01  0.7957747E-01            NaN
         13   -1    0    0    0    0  0.00000000000E+00  0.00000000000E+00  0.74505805969E-08  0.10566000000E+00  0.10566000000E+00 0.  1.
     999900   -1    0    0    0    0 -0.00000000000E+00 -0.00000000000E+00 -0.74505805969E-08  0.93827000000E+00  0.93827000000E+00 0. -1.
     999902    2    1    2    0    0 -0.11383914924E-01  0.13723970242E-01  0.14186593484E-01  0.10211440325E+01  0.10208897761E+01 0.  0.
     999903    2    3    3    0    0 -0.58016991772E-01 -0.43960334585E-01 -0.10577760654E+00  0.12991256308E+00  0.19745623543E-01 0.  0.
         14    1    1    2    0    0  0.11383914924E-01 -0.13723970242E-01 -0.14186593484E-01  0.22785967455E-01  0.00000000000E+00 0. -1.
     999901    1    3    3    0    0  0.46633076848E-01  0.57684304827E-01  0.11996420002E+00  0.89123146947E+00  0.88000000000E+00 0. -1.
        -11    1    4    4    0    0 -0.75488558311E-02 -0.37285504178E-03 -0.50288753535E-02  0.90925768384E-02  0.51100000000E-03 0. -1.
         11    1    4    4    0    0 -0.50468135941E-01 -0.43587479543E-01 -0.10074873119E+00  0.12081998624E+00  0.51100000000E-03 0.  1.
</event>
<event>
 8    1  0.1063984E+005  0.1043930E+01  0.7957747E-01            NaN
         13   -1    0    0    0    0  0.00000000000E+00  0.00000000000E+00  0.74505805969E-08  0.10566000000E+00  0.10566000000E+00 0. -1.
     999900   -1    0    0    0    0 -0.00000000000E+00 -0.00000000000E+00 -0.74505805969E-08  0.93827000000E+00  0.93827000000E+00 0.  1.
     999902    2    1    2    0    0 -0.18330962225E-01  0.27170870805E-02 -0.14707438551E-01  0.10202716931E+01  0.10199973589E+01 0.  0.
     999903    2    3    3    0    0  0.10729504817E+00  0.47039418878E-01  0.47708047324E-01  0.12805980318E+00  0.19957983874E-01 0.  0.
         14    1    1    2    0    0  0.18330962225E-01 -0.27170870805E-02  0.14707438551E-01  0.23658306935E-01  0.00000000000E+00 0. -1.
     999901    1    3    3    0    0 -0.12562601039E+00 -0.44322331797E-01 -0.62415485875E-01  0.89221188989E+00  0.88000000000E+00 0.  1.
        -11    1    4    4    0    0  0.43182250357E-01  0.11683194200E-01  0.25757932816E-01  0.51623018088E-01  0.51100000000E-03 0.  1.
         11    1    4    4    0    0  0.64112797810E-01  0.35356224678E-01  0.21950114508E-01  0.76436785087E-01  0.51100000000E-03 0. -1.
</event>
<event>
 8    1  0.1063984E+005  0.1043930E+01  0.7957747E-01            NaN
         13   -1    0    0    0    0  0.00000000000E+00  0.00000000000E+00  0.74505805969E-08  0.10566000000E+00  0.10566000000E+00 0. -1.
     999900   -1    0    0    0    0 -0.00000000000E+00 -0.00000000000E+00 -0.74505805969E-08  0.93827000000E+00  0.93827000000E+00 0.  1.
     999902    2    1    2    0    0  0.36429010458E-03 -0.11261008330E-01 -0.20266334040E-01  0.10207423457E+01  0.10204789410E+01 0.  0.
     999903    2    3    3    0    0 -0.54251712176E-01  0.10466115427E+00  0.48266588099E-01  0.12882440279E+00  0.19205669491E-01 0.  0.
         14    1    1    2    0    0 -0.36429010458E-03  0.11261008330E-01  0.20266334040E-01  0.23187654287E-01  0.00000000000E+00 0. -1.
     999901    1    3    3    0    0  0.54616002280E-01 -0.11592216260E+00 -0.68532922139E-01  0.89191794292E+00  0.88000000000E+00 0. -1.
        -11    1    4    4    0    0 -0.33182886813E-01  0.62863359880E-01  0.39084658180E-01  0.81121992201E-01  0.51100000000E-03 0. -1.
         11    1    4    4    0    0 -0.21068825363E-01  0.41797794392E-01  0.91819299194E-02  0.47702410591E-01  0.51100000000E-03 0.  1.
</event>
<event>
 8    1  0.1063984E+005  0.1043930E+01  0.7957747E-01            NaN
         13   -1    0    0    0    0  0.00000000000E+00  0.00000000000E+00  0.74505805969E-08  0.10566000000E+00  0.10566000000E+00 0.  1.
     999900   -1    0    0    0    0 -0.00000000000E+00 -0.00000000000E+00 -0.74505805969E-08  0.93827000000E+00  0.93827000000E+00 0.  1.
     999902    2    1    2    0    0 -0.40805431036E-02 -0.18096472155E-01  0.10013208763E-01  0.10228492627E+01  0.10226320045E+01 0.  0.
     999903    2    3    3    0    0 -0.11889485949E+00 -0.17528048458E-01 -0.53609179694E-01  0.13311308904E+00  0.20048197694E-01 0.  0.
         14    1    1    2    0    0  0.40805431036E-02  0.18096472155E-01 -0.10013208763E-01  0.21080737326E-01  0.00000000000E+00 0.  1.
     999901    1    3    3    0    0  0.11481431639E+00 -0.56842369707E-03  0.63622388457E-01  0.88973617363E+00  0.88000000000E+00 0. -1.
        -11    1    4    4    0    0 -0.17899107106E-01 -0.90861310683E-02 -0.13058805553E-01  0.23952647796E-01  0.51100000000E-03 0. -1.
         11    1    4    4    0    0 -0.10099575239E+00 -0.84419173894E-02 -0.40550374141E-01  0.10916044125E+00  0.51100000000E-03 0.  1.
</event>
<event>
 8    1  0.1063984E+005  0.1043930E+01  0.7957747E-01            NaN
         13   -1    0    0    0    0  0.00000000000E+00  0.00000000000E+00  0.74505805969E-08  0.10566000000E+00  0.10566000000E+00 0. -1.
     999900   -1    0    0    0    0 -0.00000000000E+00 -0.00000000000E+00 -0.74505805969E-08  0.93827000000E+00  0.93827000000E+00 0.  1.
     999902    2    1    2    0    0 -0.10371488571E-01 -0.78084879347E-02 -0.16577913654E-01  0.10228737069E+01  0.10226569575E+01 0.  0.
     999903    2    3    3    0    0 -0.28359942906E-01  0.10821915172E+00 -0.70021017867E-01  0.13346819585E+00  0.19878259472E-01 0.  0.
         14    1    1    2    0    0  0.10371488571E-01  0.78084879347E-02  0.16577913654E-01  0.21056293124E-01  0.00000000000E+00 0. -1.
     999901    1    3    3    0    0  0.17988454335E-01 -0.11602763966E+00  0.53443104212E-01  0.88940551102E+00  0.88000000000E+00 0.  1.
        -11    1    4    4    0    0 -0.25644387608E-01  0.59399773393E-01 -0.38433253459E-01  0.75255191098E-01  0.51100000000E-03 0. -1.
         11    1    4    4    0    0 -0.27155552983E-02  0.48819378329E-01 -0.31587764408E-01  0.58213004752E-01  0.51100000000E-03 0.  1.
</event>
<event>
 8    1  0.1063984E+005  0.1043930E+01  0.7957747E-01            NaN
         13   -1    0    0    0    0  0.00000000000E+00  0.00000000000E+00  0.74505805969E-08  0.10566000000E+00  0.10566000000E+00 0.  1.
     999900   -1    0    0    0    0 -0.00000000000E+00 -0.00000000000E+00 -0.74505805969E-08  0.93827000000E+00  0.93827000000E+00 0.  1.
     999902    2    1    2    0    0 -0.12514247746E-01  0.20929338230E-02 -0.20159817336E-01  0.10201097354E+01  0.10198315877E+01 0.  0.
     999903    2    3    3    0    0 -0.53099336727E-01 -0.24289519222E-01 -0.11825724809E+00  0.13333677171E+00  0.19606061801E-01 0.  0.
         14    1    1    2    0    0  0.12514247746E-01 -0.20929338230E-02  0.20159817336E-01  0.23820264559E-01  0.00000000000E+00 0.  1.
     999901    1    3    3    0    0  0.40585088981E-01  0.26382453045E-01  0.98097430758E-01  0.88677296373E+00  0.88000000000E+00 0. -1.
        -11    1    4    4    0    0 -0.12125756813E-01 -0.14660054241E-01 -0.29538224577E-01  0.35138568564E-01  0.51100000000E-03 0. -1.
         11    1    4    4    0    0 -0.40973579914E-01 -0.96294649813E-02 -0.88719023518E-01  0.98198203149E-01  0.51100000000E-03 0.  1.
</event>
<event>
 8    1  0.1063984E+005  0.1043930E+01  0.7957747E-01            NaN
         13   -1    0    0    0    0  0.00000000000E+00  0.00000000000E+00  0.74505805969E-08  0.10566000000E+00  0.10566000000E+00 0. -1.
     999900   -1    0    0    0    0 -0.00000000000E+00 -0.00000000000E+00 -0.74505805969E-08  0.93827000000E+00  0.93827000000E+00 0.  1.
     999902    2    1    2    0    0 -0.15322323834E-01  0.11307314657E-01 -0.14619327355E-01  0.10199226323E+01  0.10196400454E+01 0.  0.
     999903    2    3    3    0    0 -0.12903838330E-01  0.49980881407E-01 -0.12064080092E+00  0.13271237158E+00  0.19843718733E-01 0.  0.
         14    1    1    2    0    0  0.15322323834E-01 -0.11307314657E-01  0.14619327355E-01  0.24007367717E-01  0.00000000000E+00 0. -1.
     999901    1    3    3    0    0 -0.24184855040E-02 -0.38673566750E-01  0.10602147357E+00  0.88721026070E+00  0.88000000000E+00 0. -1.
        -11    1    4    4    0    0 -0.28248718383E-02 -0.11524191581E-02 -0.86779586099E-02  0.92128202769E-02  0.51100000000E-03 0.  1.
         11    1    4    4    0    0 -0.10078966491E-01  0.51133300565E-01 -0.11196284231E+00  0.12349955130E+00  0.51100000000E-03 0. -1.
</event>
<event>
 8    1  0.1063984E+005  0.1043930E+01  0.7957747E-01            NaN
         13   -1    0    0    0    0  0.00000000000E+00  0.00000000000E+00  0.74505805969E-08  0.10566000000E+00  0.10566000000E+00 0. -1.
     999900   -1    0    0    0    0 -0.00000000000E+00 -0.00000000000E+00 -0.74505805969E-08  0.93827000000E+00  0.93827000000E+00 0.  1.
     999902    2    1    2    0    0 -0.20043583293E-01  0.60519348783E-02 -0.11390356741E-01  0.10200949130E+01  0.10198164149E+01 0.  0.
     999903    2    3    3    0    0  0.23217003833E-01  0.10138558993E+00 -0.77609459046E-01  0.13141895758E+00  0.20727932013E-01 0.  0.
         14    1    1    2    0    0  0.20043583293E-01 -0.60519348783E-02  0.11390356741E-01  0.23835087029E-01  0.00000000000E+00 0.  1.
     999901    1    3    3    0    0 -0.43260587126E-01 -0.95333655049E-01  0.66219102305E-01  0.88867595539E+00  0.88000000000E+00 0. -1.
        -11    1    4    4    0    0  0.13158156075E-02  0.52056156267E-01 -0.38735122832E-01  0.64901815366E-01  0.51100000000E-03 0. -1.
         11    1    4    4    0    0  0.21901188225E-01  0.49329433660E-01 -0.38874336214E-01  0.66517142212E-01  0.51100000000E-03 0.  1.
</event>
<event>
 8    1  0.1063984E+005  0.1043930E+01  0.7957747E-01            NaN
         13   -1    0    0    0    0  0.00000000000E+00  0.00000000000E+00  0.74505805969E-08  0.10566000000E+00  0.10566000000E+00 0.  1.
     999900   -1    0    0    0    0 -0.00000000000E+00 -0.00000000000E+00 -0.74505805969E-08  0.93827000000E+00  0.93827000000E+00 0. -1.
     999902    2    1    2    0    0 -0.12752815893E-03 -0.95224203683E-02  0.22381889765E-01  0.10196063131E+01  0.10193161394E+01 0.  0.
     999903    2    3    3    0    0 -0.36271223591E-01  0.73672895883E-01 -0.94836087770E-01  0.12721184788E+00  0.21110979348E-01 0.  0.
         14    1    1    2    0    0  0.12752815893E-03  0.95224203683E-02 -0.22381889765E-01  0.24323686862E-01  0.00000000000E+00 0. -1.
     999901    1    3    3    0    0  0.36143695432E-01 -0.83195316251E-01  0.11721797754E+00  0.89239446526E+00  0.88000000000E+00 0.  1.
        -11    1    4    4    0    0 -0.14377072299E-01  0.41719709582E-01 -0.36935204338E-01  0.57547413634E-01  0.51100000000E-03 0.  1.
         11    1    4    4    0    0 -0.21894151293E-01  0.31953186300E-01 -0.57900883432E-01  0.69664434246E-01  0.51100000000E-03 0. -1.
</event>
<event>
 8    1  0.1063984E+005  0.1043930E+01  0.7957747E-01            NaN
         13   -1    0    0    0    0  0.00000000000E+00  0.00000000000E+00  0.74505805969E-08  0.10566000000E+00  0.10566000000E+00 0. -1.
     999900   -1    0    0    0    0 -0.00000000000E+00 -0.00000000000E+00 -0.74505805969E-08  0.93827000000E+00  0.93827000000E+00 0. -1.
     999902    2    1    2    0    0 -0.14074967236E-01  0.15407192465E-01  0.62728194936E-02  0.10221393014E+01  0.10219070001E+01 0.  0.
     999903    2    3    3    0    0 -0.22166124477E-01 -0.12334933394E+00 -0.30422885789E-01  0.13047489408E+00  0.19792694262E-01 0.  0.
         14    1    1    2    0    0  0.14074967236E-01 -0.15407192465E-01 -0.62728194936E-02  0.21790698629E-01  0.00000000000E+00 0. -1.
     999901    1    3    3    0    0  0.80911572415E-02  0.13875652641E+00  0.36695705283E-01  0.89166440729E+00  0.88000000000E+00 0.  1.
        -11    1    4    4    0    0 -0.14939451285E-01 -0.56178421485E-01 -0.22961895149E-01  0.62503695851E-01  0.51100000000E-03 0.  1.
         11    1    4    4    0    0 -0.72266731917E-02 -0.67170912460E-01 -0.74609906398E-02  0.67971198227E-01  0.51100000000E-03 0. -1.
</event>
<event>
 8    1  0.1181921E+005  0.1043930E+01  0.7957747E-01            NaN
         13   -1    0    0    0    0  0.00000000000E+00  0.00000000000E+00  0.74505805969E-08  0.10566000000E+00  0.10566000000E+00 0.  1.
     999900   -1    0    0    0    0 -0.00000000000E+00 -0.00000000000E+00 -0.74505805969E-08  0.93827000000E+00  0.93827000000E+00 0.  1.
     999902    2    1    2    0    0 -0.16592908580E-01 -0.13975401397E-02  0.15109337606E-01  0.10214451203E+01  0.10211976126E+01 0.  0.
     999903    2    3    3    0    0  0.11121428229E+00 -0.48375291407E-01 -0.39567885274E-01  0.12929536499E+00  0.21044915237E-01 0.  0.
         14    1    1    2    0    0  0.16592908580E-01  0.13975401397E-02 -0.15109337606E-01  0.22484879730E-01  0.00000000000E+00 0. -1.
     999901    1    3    3    0    0 -0.12780719087E+00  0.46977751267E-01  0.54677222879E-01  0.89214975528E+00  0.88000000000E+00 0. -1.
        -11    1    4    4    0    0  0.58138859788E-01 -0.14281913495E-01 -0.22331257000E-01  0.63898718537E-01  0.51100000000E-03 0. -1.
         11    1    4    4    0    0  0.53075422504E-01 -0.34093377912E-01 -0.17236628273E-01  0.65396646448E-01  0.51100000000E-03 0.  1.
</event>
<event>
 8    1  0.1063984E+005  0.1043930E+01  0.7957747E-01            NaN
         13   -1    0    0    0    0  0.00000000000E+00  0.00000000000E+00  0.74505805969E-08  0.10566000000E+00  0.10566000000E+00 0. -1.
     999900   -1    0    0    0    0 -0.00000000000E+00 -0.00000000000E+00 -0.74505805969E-08  0.93827000000E+00  0.93827000000E+00 0. -1.
     999902    2    1    2    0    0  0.79063474226E-02  0.28874459658E-02  0.22210478812E-01  0.10201780939E+01  0.10199015591E+01 0.  0.
     999903    2    3    3    0    0  0.52493381068E-04 -0.10239986784E+00  0.80837097704E-01  0.13193027831E+00  0.19627182207E-01 0.  0.
         14    1    1    2    0    0 -0.79063474226E-02 -0.28874459658E-02 -0.22210478812E-01  0.23751906088E-01  0.00000000000E+00 0.  1.
     999901    1    3    3    0    0  0.78538540415E-02  0.10528731381E+00 -0.58626618892E-01  0.88824781560E+00  0.88000000000E+00 0. -1.
        -11    1    4    4    0    0 -0.10212215724E-03 -0.76774957863E-01  0.70692474489E-01  0.10436518411E+00  0.51100000000E-03 0. -1.
         11    1    4    4    0    0  0.15461553830E-03 -0.25624909977E-01  0.10144623215E-01  0.27565094204E-01  0.51100000000E-03 0.  1.
</event>
<event>
 8    1  0.1063984E+005  0.1043930E+01  0.7957747E-01            NaN
         13   -1    0    0    0    0  0.00000000000E+00  0.00000000000E+00  0.74505805969E-08  0.10566000000E+00  0.10566000000E+00 0. -1.
     999900   -1    0    0    0    0 -0.00000000000E+00 -0.00000000000E+00 -0.74505805969E-08  0.93827000000E+00  0.93827000000E+00 0. -1.
     999902    2    1    2    0    0 -0.94877773862E-02  0.20577336775E-02  0.21505913629E-01  0.10203343117E+01  0.10200614447E+01 0.  0.
     999903    2    3    3    0    0  0.66425436177E-01  0.75819526900E-01 -0.77008620280E-01  0.12853347541E+00  0.20726492048E-01 0.  0.
         14    1    1    2    0    0  0.94877773862E-02 -0.20577336775E-02 -0.21505913629E-01  0.23595688348E-01  0.00000000000E+00 0.  1.
     999901    1    3    3    0    0 -0.75913213564E-01 -0.73761793222E-01  0.98514533908E-01  0.89180083624E+00  0.88000000000E+00 0.  1.
        -11    1    4    4    0    0  0.49756356967E-01  0.67137534529E-01 -0.57489682993E-01  0.10143208749E+00  0.51100000000E-03 0. -1.
         11    1    4    4    0    0  0.16669079210E-01  0.86819923711E-02 -0.19518937286E-01  0.27101387917E-01  0.51100000000E-03 0.  1.
</event>
<event>
 8    1  0.1063984E+005  0.1043930E+01  0.7957747E-01            NaN
         13   -1    0    0    0    0  0.00000000000E+00  0.00000000000E+00  0.74505805969E-08  0.10566000000E+00  0.10566000000E+00 0.  1.
     999900   -1    0    0    0    0 -0.00000000000E+00 -0.00000000000E+00 -0.74505805969E-08  0.93827000000E+00  0.93827000000E+00 0.  1.
     999902    2    1    2    0    0 -0.23183414486E-01  0.24158157446E-02  0.18106593116E-02  0.10205508349E+01  0.10202830104E+01 0.  0.
     999903    2    3    3    0    0 -0.82722090035E-01 -0.49850336160E-01  0.88857598555E-01  0.13271426541E+00  0.19733302486E-01 0.  0.
         14    1    1    2    0    0  0.23183414486E-01 -0.24158157446E-02 -0.18106593116E-02  0.23379165085E-01  0.00000000000E+00 0. -1.
     999901    1    3    3    0    0  0.59538675548E-01  0.52266151905E-01 -0.87046939243E-01  0.88783656951E+00  0.88000000000E+00 0.  1.
        -11    1    4    4    0    0 -0.43560658033E-01 -0.24708740494E-01  0.59131270486E-01  0.77490780454E-01  0.51100000000E-03 0. -1.
         11    1    4    4    0    0 -0.39161432002E-01 -0.25141595666E-01  0.29726328069E-01  0.55223484955E-01  0.51100000000E-03 0.  1.
</event>
<event>
 8    1  0.1063984E+005  0.1043930E+01  0.7957747E-01            NaN
         13   -1    0    0    0    0  0.00000000000E+00  0.00000000000E+00  0.74505805969E-08  0.10566000000E+00  0.10566000000E+00 0. -1.
     999900   -1    0    0    0    0 -0.00000000000E+00 -0.00000000000E+00 -0.74505805969E-08  0.93827000000E+00  0.93827000000E+00 0.  1.
     999902    2    1    2    0    0 -0.69927357380E-02 -0.45941126000E-02 -0.24459570739E-01  0.10180789879E+01  0.10177507312E+01 0.  0.
     999903    2    3    3    0    0  0.10593202598E+00 -0.54344130448E-02 -0.71618328129E-01  0.12961027363E+00  0.20457544637E-01 0.  0.
         14    1    1    2    0    0  0.69927357380E-02  0.45941126000E-02  0.24459570739E-01  0.25851012058E-01  0.00000000000E+00 0. -1.
     999901    1    3    3    0    0 -0.11292476172E+00  0.84030044477E-03  0.47158757390E-01  0.88846871431E+00  0.88000000000E+00 0. -1.
        -11    1    4    4    0    0  0.88519298560E-01 -0.96735398985E-02 -0.52371325507E-01  0.10330663313E+00  0.51100000000E-03 0.  1.
         11    1    4    4    0    0  0.17412727421E-01  0.42391268537E-02 -0.19247002621E-01  0.26303640502E-01  0.51100000000E-03 0. -1.
</event>
<event>
 8    1  0.1063984E+005  0.1043930E+01  0.7957747E-01            NaN
         13   -1    0    0    0    0  0.00000000000E+00  0.00000000000E+00  0.74505805969E-08  0.10566000000E+00  0.10566000000E+00 0. -1.
     999900   -1    0    0    0    0 -0.00000000000E+00 -0.00000000000E+00 -0.74505805969E-08  0.93827000000E+00  0.93827000000E+00 0. -1.
     999902    2    1    2    0    0  0.10375717652E-02 -0.19212359093E-01 -0.13295671789E-01  0.10205426918E+01  0.10202746785E+01 0.  0.
     999903    2    3    3    0    0 -0.97314875273E-01 -0.63514989893E-01 -0.60844201175E-01  0.13268189775E+00  0.19953202369E-01 0.  0.
         14    1    1    2    0    0 -0.10375717652E-02  0.19212359093E-01  0.13295671789E-01  0.23387308212E-01  0.00000000000E+00 0. -1.
     999901    1    3    3    0    0  0.98352447038E-01  0.44302630800E-01  0.47548529386E-01  0.88786079403E+00  0.88000000000E+00 0. -1.
        -11    1    4    4    0    0 -0.81682306475E-01 -0.58187171085E-01 -0.58184226014E-01  0.11594572587E+00  0.51100000000E-03 0. -1.
         11    1    4    4    0    0 -0.15632568797E-01 -0.53278188079E-02 -0.26599751612E-02  0.16736171884E-01  0.51100000000E-03 0.  1.
</event>
<event>
 8    1  0.1063984E+005  0.1043930E+01  0.7957747E-01            NaN
         13   -1    0    0    0    0  0.00000000000E+00  0.00000000000E+00  0.74505805969E-08  0.10566000000E+00  0.10566000000E+00 0.  1.
     999900   -1    0    0    0    0 -0.00000000000E+00 -0.00000000000E+00 -0.74505805969E-08  0.93827000000E+00  0.93827000000E+00 0.  1.
     999902    2    1    2    0    0 -0.21950271643E-01 -0.59269696295E-02  0.76920305462E-02  0.10199276933E+01  0.10196452269E+01 0.  0.
     999903    2    3    3    0    0  0.45259923915E-01  0.11508312347E+00 -0.27987572989E-01  0.12839323677E+00  0.20222091539E-01 0.  0.
         14    1    1    2    0    0  0.21950271643E-01  0.59269696295E-02 -0.76920305462E-02  0.24002306725E-01  0.00000000000E+00 0. -1.
     999901    1    3    3    0    0 -0.67210195558E-01 -0.12101009310E+00  0.35679603535E-01  0.89153445650E+00  0.88000000000E+00 0.  1.
        -11    1    4    4    0    0  0.18700196534E-01  0.59372076354E-01 -0.47034690204E-02  0.62426953657E-01  0.51100000000E-03 0.  1.
         11    1    4    4    0    0  0.26559727381E-01  0.55711047120E-01 -0.23284103969E-01  0.65966283118E-01  0.51100000000E-03 0. -1.
</event>
<event>
 8    1  0.1063984E+005  0.1043930E+01  0.7957747E-01            NaN
         13   -1    0    0    0    0  0.00000000000E+00  0.00000000000E+00  0.74505805969E-08  0.10566000000E+00  0.10566000000E+00 0.  1.
     999900   -1    0    0    0    0 -0.00000000000E+00 -0.00000000000E+00 -0.74505805969E-08  0.93827000000E+00  0.93827000000E+00 0.  1.
     999902    2    1    2    0    0  0.10574377626E-01 -0.87860064121E-02  0.18226424757E-01  0.10210998898E+01  0.10208446361E+01 0.  0.
     999903    2    3    3    0    0 -0.39810269797E-01  0.92190722090E-01  0.82729624754E-01  0.13155192867E+00  0.19435336487E-01 0.  0.
         14    1    1    2    0    0 -0.10574377626E-01  0.87860064121E-02 -0.18226424757E-01  0.22830110168E-01  0.00000000000E+00 0. -1.
     999901    1    3    3    0    0  0.50384647423E-01 -0.10097672850E+00 -0.64503199997E-01  0.88954796116E+00  0.88000000000E+00 0.  1.
        -11    1    4    4    0    0 -0.32739744008E-01  0.61557665774E-01  0.65661514364E-01  0.95775428179E-01  0.51100000000E-03 0. -1.
         11    1    4    4    0    0 -0.70705257881E-02  0.30633056316E-01  0.17068110391E-01  0.35776500493E-01  0.51100000000E-03 0.  1.
</event>
<event>
 8    1  0.1063984E+005  0.1043930E+01  0.7957747E-01            NaN
         13   -1    0    0    0    0  0.00000000000E+00  0.00000000000E+00  0.74505805969E-08  0.10566000000E+00  0.10566000000E+00 0.  1.
     999900   -1    0    0    0    0 -0.00000000000E+00 -0.00000000000E+00 -0.74505805969E-08  0.93827000000E+00  0.93827000000E+00 0.  1.
     999902    2    1    2    0    0 -0.60161996518E-02  0.21816301366E-01 -0.26476376641E-02  0.10211450126E+01  0.10208907783E+01 0.  0.
     999903    2    3    3    0    0  0.34333391579E-01  0.12656747552E+00  0.17290063316E-01  0.13379028655E+00  0.20069550292E-01 0.  0.
         14    1    1    2    0    0  0.60161996518E-02 -0.21816301366E-01  0.26476376641E-02  0.22784987354E-01  0.00000000000E+00 0.  1.
     999901    1    3    3    0    0 -0.40349591231E-01 -0.10475117416E+00 -0.19937700980E-01  0.88735472609E+00  0.88000000000E+00 0.  1.
        -11    1    4    4    0    0  0.24920832009E-02  0.75921655196E-02 -0.37514775808E-02  0.88422938764E-02  0.51100000000E-03 0. -1.
         11    1    4    4    0    0  0.31841308378E-01  0.11897531000E+00  0.21041540896E-01  0.12494799268E+00  0.51100000000E-03 0.  1.
</event>
<event>
 8    1  0.1063984E+005  0.1043930E+01  0.7957747E-01            NaN
         13   -1    0    0    0    0  0.00000000000E+00  0.00000000000E+00  0.74505805969E-08  0.10566000000E+00  0.10566000000E+00 0. -1.
     999900   -1    0    0    0    0 -0.00000000000E+00 -0.00000000000E+00 -0.74505805969E-08  0.93827000000E+00  0.93827000000E+00 0. -1.
     999902    2    1    2    0    0 -0.16572124301E-02  0.14185172420E-01  0.17350534480E-01  0.10214576500E+01  0.10212104211E+01 0.  0.
     999903    2    3    3    0    0  0.67665039250E-01  0.53339406520E-01  0.10056966315E+00  0.13395325448E+00  0.20138704381E-01 0.  0.
         14    1    1    2    0    0  0.16572124301E-02 -0.14185172420E-01 -0.17350534480E-01  0.22472350041E-01  0.00000000000E+00 0.  1.
     999901    1    3    3    0    0 -0.69322251680E-01 -0.39154234100E-01 -0.83219128670E-01  0.88750439548E+00  0.88000000000E+00 0. -1.
        -11    1    4    4    0    0  0.82602717384E-02  0.12805410379E-01  0.97138952030E-02  0.18078481827E-01  0.51100000000E-03 0.  1.
         11    1    4    4    0    0  0.59404767511E-01  0.40533996141E-01  0.90855767947E-01  0.11587477265E+00  0.51100000000E-03 0. -1.
</event>
<event>
 8    1  0.1063984E+005  0.1043930E+01  0.7957747E-01            NaN
         13   -1    0    0    0    0  0.00000000000E+00  0.00000000000E+00  0.74505805969E-08  0.10566000000E+00  0.10566000000E+00 0. -1.
     999900   -1    0    0    0    0 -0.00000000000E+00 -0.00000000000E+00 -0.74505805969E-08  0.93827000000E+00  0.93827000000E+00 0.  1.
     999902    2    1    2    0    0  0.19975400921E-01  0.11135379226E-01 -0.34420080335E-02  0.10208029437E+01  0.10205409297E+01 0.  0.
     999903    2    3    3    0    0  0.32172073424E-02  0.99038414283E-01  0.84811705782E-01  0.13187296976E+00  0.19454993907E-01 0.  0.
         14    1    1    2    0    0 -0.19975400921E-01 -0.11135379226E-01  0.34420080335E-02  0.23127056271E-01  0.00000000000E+00 0. -1.
     999901    1    3    3    0    0  0.16758193579E-01 -0.87903035057E-01 -0.88253713816E-01  0.88892997397E+00  0.88000000000E+00 0.  1.
        -11    1    4    4    0    0  0.66364335234E-02  0.66182717705E-01  0.45838716978E-01  0.80781454975E-01  0.51100000000E-03 0.  1.
         11    1    4    4    0    0 -0.34192261810E-02  0.32855696578E-01  0.38972988804E-01  0.51091514781E-01  0.51100000000E-03 0. -1.
</event>
<event>
 8    1  0.1063984E+005  0.1043930E+01  0.7957747E-01            NaN
         13   -1    0    0    0    0  0.00000000000E+00  0.00000000000E+00  0.74505805969E-08  0.10566000000E+00  0.10566000000E+00 0. -1.
     999900   -1    0    0    0    0 -0.00000000000E+00 -0.00000000000E+00 -0.74505805969E-08  0.93827000000E+00  0.93827000000E+00 0.  1.
     999902    2    1    2    0    0  0.22073612986E-01 -0.99555360844E-02  0.37187567856E-02  0.10194313012E+01  0.10191368857E+01 0.  0.
     999903    2    3    3    0    0  0.88352389136E-01  0.80677789991E-01 -0.48765298165E-01  0.13074583833E+00  0.20034207527E-01 0.  0.
         14    1    1    2    0    0 -0.22073612986E-01  0.99555360844E-02 -0.37187567856E-02  0.24498698762E-01  0.00000000000E+00 0. -1.
     999901    1    3    3    0    0 -0.66278776149E-01 -0.90633326075E-01  0.52484054950E-01  0.88868546291E+00  0.88000000000E+00 0. -1.
        -11    1    4    4    0    0  0.47584178845E-01  0.34315827887E-01 -0.15812863041E-01  0.60762964695E-01  0.51100000000E-03 0.  1.
         11    1    4    4    0    0  0.40768210291E-01  0.46361962104E-01 -0.32952435124E-01  0.69982873634E-01  0.51100000000E-03 0. -1.
</event>
<event>
 8    1  0.1063984E+005  0.1043930E+01  0.7957747E-01            NaN
         13   -1    0    0    0    0  0.00000000000E+00  0.00000000000E+00  0.74505805969E-08  0.10566000000E+00  0.10566000000E+00 0.  1.
     999900   -1    0    0    0    0 -0.00000000000E+00 -0.00000000000E+00 -0.74505805969E-08  0.93827000000E+00  0.93827000000E+00 0. -1.
     999902    2    1    2    0    0 -0.19182037017E-01 -0.17831483892E-01 -0.10259106409E-01  0.10158024045E+01  0.10154129029E+01 0.  0.
     999903    2    3    3    0    0 -0.14790404821E-02  0.59489695921E-01  0.10739546672E+00  0.12443572381E+00  0.20229968049E-01 0.  0.
         14    1    1    2    0    0  0.19182037017E-01  0.17831483892E-01  0.10259106409E-01  0.28127595457E-01  0.00000000000E+00 0.  1.
     999901    1    3    3    0    0 -0.17702996535E-01 -0.77321179813E-01 -0.11765457313E+00  0.89136668073E+00  0.88000000000E+00 0. -1.
        -11    1    4    4    0    0 -0.69705348226E-02  0.37161415239E-01  0.50661418140E-01  0.63217082717E-01  0.51100000000E-03 0. -1.
         11    1    4    4    0    0  0.54914943404E-02  0.22328280682E-01  0.56734048582E-01  0.61218641098E-01  0.51100000000E-03 0.  1.
</event>
<event>
 8    1  0.1063984E+005  0.1043930E+01  0.7957747E-01            NaN
         13   -1    0    0    0    0  0.00000000000E+00  0.00000000000E+00  0.74505805969E-08  0.10566000000E+00  0.10566000000E+00 0.  1.
     999900   -1    0    0    0    0 -0.00000000000E+00 -0.00000000000E+00 -0.74505805969E-08  0.93827000000E+00  0.93827000000E+00 0. -1.
     999902    2    1    2    0    0  0.21493108038E-01  0.90479790467E-02 -0.42404147577E-02  0.10202276639E+01  0.10199522957E+01 0.  0.
     999903    2    3    3    0    0 -0.22839674093E-01  0.36215922847E-01  0.12074569380E+00  0.12987659829E+00  0.21334583016E-01 0.  0.
         14    1    1    2    0    0 -0.21493108038E-01 -0.90479790467E-02  0.42404147577E-02  0.23702336072E-01  0.00000000000E+00 0. -1.
     999901    1    3    3    0    0  0.44332782131E-01 -0.27167943801E-01 -0.12498610856E+00  0.89035106563E+00  0.88000000000E+00 0. -1.
        -11    1    4    4    0    0 -0.51820251556E-02  0.27773964381E-01  0.71710223576E-01  0.77076998959E-01  0.51100000000E-03 0.  1.
         11    1    4    4    0    0 -0.17657648937E-01  0.84419584660E-02  0.49035470226E-01  0.52799599336E-01  0.51100000000E-03 0. -1.
</event>
<event>
 8    1  0.1063984E+005  0.1043930E+01  0.7957747E-01            NaN
         13   -1    0    0    0    0  0.00000000000E+00  0.00000000000E+00  0.74505805969E-08  0.10566000000E+00  0.10566000000E+00 0. -1.
     999900   -1    0    0    0    0 -0.00000000000E+00 -0.00000000000E+00 -0.74505805969E-08  0.93827000000E+00  0.93827000000E+00 0.  1.
     999902    2    1    2    0    0 -0.49563636713E-02 -0.15338637001E-01 -0.18241540293E-01  0.10195867644E+01  0.10192961184E+01 0.  0.
     999903    2    3    3    0    0  0.21733289403E-01 -0.11179460716E+00  0.60009908364E-01  0.13046394896E+00  0.21196292604E-01 0.  0.
         14    1    1    2    0    0  0.49563636713E-02  0.15338637001E-01  0.18241540293E-01  0.24343235573E-01  0.00000000000E+00 0. -1.
     999901    1    3    3    0    0 -0.26689653074E-01  0.96455970155E-01 -0.78251448657E-01  0.88912281546E+00  0.88000000000E+00 0.  1.
        -11    1    4    4    0    0  0.65790011182E-02 -0.30522949969E-01  0.27557526267E-01  0.41648674715E-01  0.51100000000E-03 0. -1.
         11    1    4    4    0    0  0.15154288285E-01 -0.81271657187E-01  0.32452382096E-01  0.88815274249E-01  0.51100000000E-03 0.  1.
</event>
<event>
 8    1  0.1260654E+005  0.1043930E+01  0.7957747E-01            NaN
         13   -1    0    0    0    0  0.00000000000E+00  0.00000000000E+00  0.74505805969E-08  0.10566000000E+00  0.10566000000E+00 0.  1.
     999900   -1    0    0    0    0 -0.00000000000E+00 -0.00000000000E+00 -0.74505805969E-08  0.93827000000E+00  0.93827000000E+00 0.  1.
     999902    2    1    2    0    0 -0.61746196089E-03  0.23453048795E-01 -0.59817122040E-02  0.10197182748E+01  0.10194307982E+01 0.  0.
     999903    2    3    3    0    0  0.45403272066E-01  0.17094358218E-01 -0.12018814534E+00  0.13112306307E+00  0.19859335156E-01 0.  0.
         14    1    1    2    0    0  0.61746196089E-03 -0.23453048795E-01  0.59817122040E-02  0.24211725217E-01  0.00000000000E+00 0.  1.
     999901    1    3    3    0    0 -0.46020734027E-01  0.63586905773E-02  0.11420643313E+00  0.88859521171E+00  0.88000000000E+00 0. -1.
        -11    1    4    4    0    0  0.80398822022E-02  0.59481978433E-02 -0.48430191983E-01  0.49454680061E-01  0.51100000000E-03 0.  1.
         11    1    4    4    0    0  0.37363389864E-01  0.11146160375E-01 -0.71757953353E-01  0.81668383011E-01  0.51100000000E-03 0. -1.
</event>
<event>
 8    1  0.1063984E+005  0.1043930E+01  0.7957747E-01            NaN
         13   -1    0    0    0    0  0.00000000000E+00  0.00000000000E+00  0.74505805969E-08  0.10566000000E+00  0.10566000000E+00 0.  1.
     999900   -1    0    0    0    0 -0.00000000000E+00 -0.00000000000E+00 -0.74505805969E-08  0.93827000000E+00  0.93827000000E+00 0.  1.
     999902    2    1    2    0    0 -0.10699635855E-01  0.18195498700E-01  0.86193621907E-02  0.10211297416E+01  0.10208751625E+01 0.  0.
     999903    2    3    3    0    0 -0.32889819018E-02 -0.93542940563E-01  0.88625675288E-01  0.13043259509E+00  0.19926173972E-01 0.  0.
         14    1    1    2    0    0  0.10699635855E-01 -0.18195498700E-01 -0.86193621907E-02  0.22800258441E-01  0.00000000000E+00 0. -1.
     999901    1    3    3    0    0 -0.74106539536E-02  0.11173843926E+00 -0.80006313098E-01  0.89069714647E+00  0.88000000000E+00 0.  1.
        -11    1    4    4    0    0 -0.26033246268E-02 -0.70991954467E-01  0.54582329113E-01  0.89588652577E-01  0.51100000000E-03 0.  1.
         11    1    4    4    0    0 -0.68565727503E-03 -0.22550986097E-01  0.34043346175E-01  0.40843942508E-01  0.51100000000E-03 0. -1.
</event>
<event>
 8    1  0.1063984E+005  0.1043930E+01  0.7957747E-01            NaN
         13   -1    0    0    0    0  0.00000000000E+00  0.00000000000E+00  0.74505805969E-08  0.10566000000E+00  0.10566000000E+00 0.  1.
     999900   -1    0    0    0    0 -0.00000000000E+00 -0.00000000000E+00 -0.74505805969E-08  0.93827000000E+00  0.93827000000E+00 0. -1.
     999902    2    1    2    0    0 -0.20865637152E-01  0.15106268963E-01 -0.15271814187E-01  0.10139833393E+01  0.10135410253E+01 0.  0.
     999903    2    3    3    0    0  0.13879087136E-01  0.12305536746E+00  0.13729022491E-01  0.12623266925E+00  0.20271857515E-01 0.  0.
         14    1    1    2    0    0  0.20865637152E-01 -0.15106268963E-01  0.15271814187E-01  0.29946660654E-01  0.00000000000E+00 0.  1.
     999901    1    3    3    0    0 -0.34744724289E-01 -0.10794909849E+00 -0.29000836678E-01  0.88775067010E+00  0.88000000000E+00 0. -1.
        -11    1    4    4    0    0  0.15836193542E-01  0.72026829850E-01  0.14487210799E-01  0.75158430279E-01  0.51100000000E-03 0. -1.
         11    1    4    4    0    0 -0.19571064061E-02  0.51028537607E-01 -0.75818830774E-03  0.51074238969E-01  0.51100000000E-03 0.  1.
</event>
<event>
 8    1  0.1063984E+005  0.1043930E+01  0.7957747E-01            NaN
         13   -1    0    0    0    0  0.00000000000E+00  0.00000000000E+00  0.74505805969E-08  0.10566000000E+00  0.10566000000E+00 0. -1.
     999900   -1    0    0    0    0 -0.00000000000E+00 -0.00000000000E+00 -0.74505805969E-08  0.93827000000E+00  0.93827000000E+00 0.  1.
     999902    2    1    2    0    0 -0.18229170582E-01  0.16332777195E-01 -0.90540535146E-02  0.10178332922E+01  0.10174986843E+01 0.  0.
     999903    2    3    3    0    0  0.77992882716E-01 -0.74646598237E-01 -0.62429783014E-01  0.12632619816E+00  0.20145127227E-01 0.  0.
         14    1    1    2    0    0  0.18229170582E-01 -0.16332777195E-01  0.90540535146E-02  0.26096707763E-01  0.00000000000E+00 0. -1.
     999901    1    3    3    0    0 -0.96222053298E-01  0.90979375432E-01  0.53375729499E-01  0.89150709408E+00  0.88000000000E+00 0.  1.
        -11    1    4    4    0    0  0.29138945934E-01 -0.33606679148E-01 -0.15448542041E-01  0.47089336646E-01  0.51100000000E-03 0. -1.
         11    1    4    4    0    0  0.48853936782E-01 -0.41039919089E-01 -0.46981240972E-01  0.79236861512E-01  0.51100000000E-03 0.  1.
</event>
<event>
 8    1  0.1063984E+005  0.1043930E+01  0.7957747E-01            NaN
         13   -1    0    0    0    0  0.00000000000E+00  0.00000000000E+00  0.74505805969E-08  0.10566000000E+00  0.10566000000E+00 0. -1.
     999900   -1    0    0    0    0 -0.00000000000E+00 -0.00000000000E+00 -0.74505805969E-08  0.93827000000E+00  0.93827000000E+00 0.  1.
     999902    2    1    2    0    0  0.21782871801E-01 -0.58266985343E-02  0.63360057852E-02  0.10205080255E+01  0.10202392079E+01 0.  0.
     999903    2    3    3    0    0 -0.90849297426E-01 -0.89334458818E-01 -0.50843512030E-02  0.12933465510E+00  0.21618557023E-01 0.  0.
         14    1    1    2    0    0 -0.21782871801E-01  0.58266985343E-02 -0.63360057852E-02  0.23421974490E-01  0.00000000000E+00 0. -1.
     999901    1    3    3    0    0  0.11263216923E+00  0.83507760284E-01  0.11420356988E-01  0.89117337041E+00  0.88000000000E+00 0. -1.
        -11    1    4    4    0    0 -0.36946202631E-01 -0.48680045776E-01  0.38125448816E-02  0.61233694688E-01  0.51100000000E-03 0.  1.
         11    1    4    4    0    0 -0.53903094795E-01 -0.40654413042E-01 -0.88968960846E-02  0.68100960413E-01  0.51100000000E-03 0. -1.
</event>
<event>
 8    1  0.1063984E+005  0.1043930E+01  0.7957747E-01            NaN
         13   -1    0    0    0    0  0.00000000000E+00  0.00000000000E+00  0.74505805969E-08  0.10566000000E+00  0.10566000000E+00 0.  1.
     999900   -1    0    0    0    0 -0.00000000000E+00 -0.00000000000E+00 -0.74505805969E-08  0.93827000000E+00  0.93827000000E+00 0. -1.
     999902    2    1    2    0    0 -0.11565453843E-01  0.21301086920E-01 -0.18319131887E-02  0.10196225540E+01  0.10193327723E+01 0.  0.
     999903    2    3    3    0    0  0.92322793482E-01 -0.11345291295E-01  0.86585442094E-01  0.12851303059E+00  0.19140178104E-01 0.  0.
         14    1    1    2    0    0  0.11565453843E-01 -0.21301086920E-01  0.18319131887E-02  0.24307446030E-01  0.00000000000E+00 0.  1.
     999901    1    3    3    0    0 -0.10388824733E+00  0.32646378216E-01 -0.88417355283E-01  0.89110952338E+00  0.88000000000E+00 0. -1.
        -11    1    4    4    0    0  0.61867723987E-01 -0.83308749135E-02  0.69646797071E-01  0.93530509522E-01  0.51100000000E-03 0. -1.
         11    1    4    4    0    0  0.30455069495E-01 -0.30144163818E-02  0.16938645023E-01  0.34982521068E-01  0.51100000000E-03 0.  1.
</event>
<event>
 8    1  0.1063984E+005  0.1043930E+01  0.7957747E-01            NaN
         13   -1    0    0    0    0  0.00000000000E+00  0.00000000000E+00  0.74505805969E-08  0.10566000000E+00  0.10566000000E+00 0. -1.
     999900   -1    0    0    0    0 -0.00000000000E+00 -0.00000000000E+00 -0.74505805969E-08  0.93827000000E+00  0.93827000000E+00 0.  1.
     999902    2    1    2    0    0 -0.17378957197E-01  0.15720477691E-01 -0.48344855365E-02  0.10200023210E+01  0.10197216292E+01 0.  0.
     999903    2    3    3    0    0  0.28295715050E-01 -0.58195298681E-01 -0.11028500125E+00  0.12945780838E+00  0.20228751124E-01 0.  0.
         14    1    1    2    0    0  0.17378957197E-01 -0.15720477691E-01  0.48344855365E-02  0.23927679004E-01  0.00000000000E+00 0. -1.
     999901    1    3    3    0    0 -0.45674672247E-01  0.73915776373E-01  0.10545051571E+00  0.89054451261E+00  0.88000000000E+00 0. -1.
        -11    1    4    4    0    0  0.25340160935E-01 -0.29830630787E-01 -0.59791982656E-01  0.71465604316E-01  0.51100000000E-03 0. -1.
         11    1    4    4    0    0  0.29555541149E-02 -0.28364667894E-01 -0.50493018593E-01  0.57992204067E-01  0.51100000000E-03 0.  1.
</event>
<event>
 8    1  0.1063984E+005  0.1043930E+01  0.7957747E-01            NaN
         13   -1    0    0    0    0  0.00000000000E+00  0.00000000000E+00  0.74505805969E-08  0.10566000000E+00  0.10566000000E+00 0.  1.
     999900   -1    0    0    0    0 -0.00000000000E+00 -0.00000000000E+00 -0.74505805969E-08  0.93827000000E+00  0.93827000000E+00 0. -1.
     999902    2    1    2    0    0 -0.18513753354E-01 -0.45292666165E-02  0.13609141652E-01  0.10205103062E+01  0.10202415415E+01 0.  0.
     999903    2    3    3    0    0  0.97438881787E-01 -0.27958079877E-01  0.79148518462E-01  0.13017928196E+00  0.20153599226E-01 0.  0.
         14    1    1    2    0    0  0.18513753354E-01  0.45292666165E-02 -0.13609141652E-01  0.23419693761E-01  0.00000000000E+00 0. -1.
     999901    1    3    3    0    0 -0.11595263514E+00  0.23428813260E-01 -0.65539376809E-01  0.89033102428E+00  0.88000000000E+00 0. -1.
        -11    1    4    4    0    0  0.74167745772E-01 -0.13008724607E-01  0.62752736031E-01  0.98021673263E-01  0.51100000000E-03 0. -1.
         11    1    4    4    0    0  0.23271136015E-01 -0.14949355270E-01  0.16395782430E-01  0.32157608694E-01  0.51100000000E-03 0.  1.
</event>
<event>
 7    1  0.1155551E+005  0.1043930E+01  0.7957747E-01            NaN
         13   -1    0    0    0    0  0.00000000000E+00  0.00000000000E+00  0.74505805969E-08  0.10566000000E+00  0.10566000000E+00 0.  1.
     999900   -1    0    0    0    0 -0.00000000000E+00 -0.00000000000E+00 -0.74505805969E-08  0.93827000000E+00  0.93827000000E+00 0.  1.
     999903    2    1    2    0    0  0.77453830850E-01  0.73449448039E-01 -0.44169262348E-01  0.11704789012E+00  0.18851194002E-01 0.  0.
         14    1    1    2    0    0 -0.29789781984E-01  0.24058318724E-01  0.99088803444E-02  0.39552746051E-01  0.00000000000E+00 0. -1.
     999901    1    1    2    0    0 -0.47664048866E-01 -0.97507766763E-01  0.34260382004E-01  0.88732936383E+00  0.88000000000E+00 0.  1.
        -11    1    3    3    0    0  0.49558577404E-01  0.39667660264E-01 -0.17873821847E-01  0.65949302449E-01  0.51100000000E-03 0. -1.
         11    1    3    3    0    0  0.27895253446E-01  0.33781787775E-01 -0.26295440502E-01  0.51098587673E-01  0.51100000000E-03 0.  1.
</event>
<event>
 8    1  0.1063984E+005  0.1043930E+01  0.7957747E-01            NaN
         13   -1    0    0    0    0  0.00000000000E+00  0.00000000000E+00  0.74505805969E-08  0.10566000000E+00  0.10566000000E+00 0.  1.
     999900   -1    0    0    0    0 -0.00000000000E+00 -0.00000000000E+00 -0.74505805969E-08  0.93827000000E+00  0.93827000000E+00 0.  1.
     999902    2    1    2    0    0  0.82914720748E-02 -0.20231158655E-01 -0.31027824382E-02  0.10218466228E+01  0.10216079703E+01 0.  0.
     999903    2    3    3    0    0 -0.56640581953E-01 -0.57319356767E-01  0.10405101333E+00  0.13219857889E+00  0.12497467825E-01 0.  0.
         14    1    1    2    0    0 -0.82914720748E-02  0.20231158655E-01  0.31027824382E-02  0.22083377200E-01  0.00000000000E+00 0.  1.
     999901    1    3    3    0    0  0.64932054028E-01  0.37088198112E-01 -0.10715379577E+00  0.88964804391E+00  0.88000000000E+00 0.  1.
        -11    1    4    4    0    0 -0.17434757295E-01 -0.20160497015E-01  0.25692863704E-01  0.37024326707E-01  0.51100000000E-03 0. -1.
         11    1    4    4    0    0 -0.39205824658E-01 -0.37158859753E-01  0.78358149627E-01  0.95174252186E-01  0.51100000000E-03 0.  1.
</event>
<event>
 8    1  0.1063984E+005  0.1043930E+01  0.7957747E-01            NaN
         13   -1    0    0    0    0  0.00000000000E+00  0.00000000000E+00  0.74505805969E-08  0.10566000000E+00  0.10566000000E+00 0.  1.
     999900   -1    0    0    0    0 -0.00000000000E+00 -0.00000000000E+00 -0.74505805969E-08  0.93827000000E+00  0.93827000000E+00 0.  1.
     999902    2    1    2    0    0  0.82434920551E-02  0.45533226528E-02 -0.19738678715E-01  0.10220598526E+01  0.10218258360E+01 0.  0.
     999903    2    3    3    0    0 -0.11901207033E+00  0.20251218368E-01 -0.49648563929E-01  0.13226493057E+00  0.21331836084E-01 0.  0.
         14    1    1    2    0    0 -0.82434920551E-02 -0.45533226528E-02  0.19738678715E-01  0.21870147367E-01  0.00000000000E+00 0.  1.
     999901    1    3    3    0    0  0.12725556238E+00 -0.15697895715E-01  0.29909885214E-01  0.88979492206E+00  0.88000000000E+00 0. -1.
        -11    1    4    4    0    0 -0.88521268838E-01  0.84957905357E-02 -0.28703815540E-01  0.93447116815E-01  0.51100000000E-03 0.  1.
         11    1    4    4    0    0 -0.30490801489E-01  0.11755427832E-01 -0.20944748389E-01  0.38817813760E-01  0.51100000000E-03 0. -1.
</event>
<event>
 8    1  0.1063984E+005  0.1043930E+01  0.7957747E-01            NaN
         13   -1    0    0    0    0  0.00000000000E+00  0.00000000000E+00  0.74505805969E-08  0.10566000000E+00  0.10566000000E+00 0. -1.
     999900   -1    0    0    0    0 -0.00000000000E+00 -0.00000000000E+00 -0.74505805969E-08  0.93827000000E+00  0.93827000000E+00 0. -1.
     999902    2    1    2    0    0  0.14326347920E-01  0.64032230465E-02  0.17637214638E-01  0.10203224408E+01  0.10200492961E+01 0.  0.
     999903    2    3    3    0    0 -0.19640823555E-01 -0.10983210825E+00  0.65112327080E-01  0.13076170244E+00  0.20252252572E-01 0.  0.
         14    1    1    2    0    0 -0.14326347920E-01 -0.64032230465E-02 -0.17637214638E-01  0.23607559177E-01  0.00000000000E+00 0.  1.
     999901    1    3    3    0    0  0.33967171474E-01  0.11623533129E+00 -0.47475112442E-01  0.88956073839E+00  0.88000000000E+00 0.  1.
        -11    1    4    4    0    0 -0.77364867360E-02 -0.49466448443E-01  0.17784769198E-01  0.53135128540E-01  0.51100000000E-03 0. -1.
         11    1    4    4    0    0 -0.11904336819E-01 -0.60365659804E-01  0.47327557882E-01  0.77626573896E-01  0.51100000000E-03 0.  1.
</event>
<event>
 8    1  0.1063984E+005  0.1043930E+01  0.7957747E-01            NaN
         13   -1    0    0    0    0  0.00000000000E+00  0.00000000000E+00  0.74505805969E-08  0.10566000000E+00  0.10566000000E+00 0.  1.
     999900   -1    0    0    0    0 -0.00000000000E+00 -0.00000000000E+00 -0.74505805969E-08  0.93827000000E+00  0.93827000000E+00 0. -1.
     999902    2    1    2    0    0 -0.15363698404E-01  0.80237176965E-02  0.16611896695E-01  0.10199221183E+01  0.10196395191E+01 0.  0.
     999903    2    3    3    0    0 -0.52821149004E-01 -0.66085429686E-01  0.99541920368E-01  0.13213125596E+00  0.19817090941E-01 0.  0.
         14    1    1    2    0    0  0.15363698404E-01 -0.80237176965E-02 -0.16611896695E-01  0.24007881750E-01  0.00000000000E+00 0. -1.
     999901    1    3    3    0    0  0.37457450599E-01  0.74109147382E-01 -0.82930023673E-01  0.88779086229E+00  0.88000000000E+00 0. -1.
        -11    1    4    4    0    0 -0.18579575688E-01 -0.34111823782E-01  0.56111959601E-01  0.68246833522E-01  0.51100000000E-03 0. -1.
         11    1    4    4    0    0 -0.34241573315E-01 -0.31973605904E-01  0.43429960767E-01  0.63884422443E-01  0.51100000000E-03 0.  1.
</event>
<event>
 8    1  0.1063984E+005  0.1043930E+01  0.7957747E-01            NaN
         13   -1    0    0    0    0  0.00000000000E+00  0.00000000000E+00  0.74505805969E-08  0.10566000000E+00  0.10566000000E+00 0.  1.
     999900   -1    0    0    0    0 -0.00000000000E+00 -0.00000000000E+00 -0.74505805969E-08  0.93827000000E+00  0.93827000000E+00 0.  1.
     999902    2    1    2    0    0 -0.18043724102E-01  0.83755586346E-02 -0.12571835827E-01  0.10203975327E+01  0.10201261430E+01 0.  0.
     999903    2    3    3    0    0  0.52078598850E-01  0.87368884810E-01 -0.80866616146E-01  0.13145362963E+00  0.19878245528E-01 0.  0.
         14    1    1    2    0    0  0.18043724102E-01 -0.83755586346E-02  0.12571835827E-01  0.23532467315E-01  0.00000000000E+00 0.  1.
     999901    1    3    3    0    0 -0.70122322952E-01 -0.78993326176E-01  0.68294780319E-01  0.88894390305E+00  0.88000000000E+00 0.  1.
        -11    1    4    4    0    0  0.14716876561E-01  0.40536242040E-01 -0.40874024332E-01  0.59419865033E-01  0.51100000000E-03 0. -1.
         11    1    4    4    0    0  0.37361722289E-01  0.46832642770E-01 -0.39992591814E-01  0.72033764599E-01  0.51100000000E-03 0.  1.
</event>
<event>
 8    1  0.1063984E+005  0.1043930E+01  0.7957747E-01            NaN
         13   -1    0    0    0    0  0.00000000000E+00  0.00000000000E+00  0.74505805969E-08  0.10566000000E+00  0.10566000000E+00 0.  1.
     999900   -1    0    0    0    0 -0.00000000000E+00 -0.00000000000E+00 -0.74505805969E-08  0.93827000000E+00  0.93827000000E+00 0. -1.
     999902    2    1    2    0    0 -0.24307277046E-01 -0.39212885640E-02  0.22561452683E-02  0.10192053076E+01  0.10189053679E+01 0.  0.
     999903    2    3    3    0    0 -0.54263326274E-01  0.74506286977E-01 -0.90046765814E-01  0.13040382423E+00  0.20026032153E-01 0.  0.
         14    1    1    2    0    0  0.24307277046E-01  0.39212885640E-02 -0.22561452683E-02  0.24724692371E-01  0.00000000000E+00 0. -1.
     999901    1    3    3    0    0  0.29956049228E-01 -0.78427575541E-01  0.92302911083E-01  0.88880148339E+00  0.88000000000E+00 0.  1.
        -11    1    4    4    0    0 -0.37491196037E-01  0.56395752604E-01 -0.53528891984E-01  0.86323079707E-01  0.51100000000E-03 0.  1.
         11    1    4    4    0    0 -0.16772130237E-01  0.18110534373E-01 -0.36517873831E-01  0.44080744527E-01  0.51100000000E-03 0. -1.
</event>
<event>
 8    1  0.1063984E+005  0.1043930E+01  0.7957747E-01            NaN
         13   -1    0    0    0    0  0.00000000000E+00  0.00000000000E+00  0.74505805969E-08  0.10566000000E+00  0.10566000000E+00 0.  1.
     999900   -1    0    0    0    0 -0.00000000000E+00 -0.00000000000E+00 -0.74505805969E-08  0.93827000000E+00  0.93827000000E+00 0. -1.
     999902    2    1    2    0    0 -0.22950453281E-03 -0.18020179823E-01  0.16040613967E-01  0.10198036482E+01  0.10195182196E+01 0.  0.
     999903    2    3    3    0    0  0.96445889798E-01  0.54799856867E-01  0.65250211915E-01  0.13015738474E+00  0.19455607837E-01 0.  0.
         14    1    1    2    0    0  0.22950453281E-03  0.18020179823E-01 -0.16040613967E-01  0.24126351768E-01  0.00000000000E+00 0. -1.
     999901    1    3    3    0    0 -0.96675394331E-01 -0.72820036690E-01 -0.49209597948E-01  0.88964626349E+00  0.88000000000E+00 0.  1.
        -11    1    4    4    0    0  0.59077864973E-01  0.43846822725E-01  0.45305513158E-01  0.86403637865E-01  0.51100000000E-03 0. -1.
         11    1    4    4    0    0  0.37368024825E-01  0.10953034142E-01  0.19944698757E-01  0.43753746876E-01  0.51100000000E-03 0.  1.
</event>
<event>
 8    1  0.1063984E+005  0.1043930E+01  0.7957747E-01            NaN
         13   -1    0    0    0    0  0.00000000000E+00  0.00000000000E+00  0.74505805969E-08  0.10566000000E+00  0.10566000000E+00 0. -1.
     999900   -1    0    0    0    0 -0.00000000000E+00 -0.00000000000E+00 -0.74505805969E-08  0.93827000000E+00  0.93827000000E+00 0. -1.
     999902    2    1    2    0    0  0.96077223421E-02 -0.17927080749E-01 -0.11876135961E-01  0.10203772686E+01  0.10201054058E+01 0.  0.
     999903    2    3    3    0    0 -0.41464588059E-01 -0.13376202303E-01  0.11985951246E+00  0.12909539819E+00  0.20027088082E-01 0.  0.
         14    1    1    2    0    0 -0.96077223421E-02  0.17927080749E-01  0.11876135961E-01  0.23552731437E-01  0.00000000000E+00 0.  1.
     999901    1    3    3    0    0  0.51072310401E-01 -0.45508784460E-02 -0.13173564842E+00  0.89128187037E+00  0.88000000000E+00 0. -1.
        -11    1    4    4    0    0 -0.18403765321E-01  0.40227911330E-02  0.53374654297E-01  0.56603853834E-01  0.51100000000E-03 0.  1.
         11    1    4    4    0    0 -0.23060822738E-01 -0.17398993436E-01  0.66484858161E-01  0.72491544360E-01  0.51100000000E-03 0. -1.
</event>
<event>
 8    1  0.1063984E+005  0.1043930E+01  0.7957747E-01            NaN
         13   -1    0    0    0    0  0.00000000000E+00  0.00000000000E+00  0.74505805969E-08  0.10566000000E+00  0.10566000000E+00 0. -1.
     999900   -1    0    0    0    0 -0.00000000000E+00 -0.00000000000E+00 -0.74505805969E-08  0.93827000000E+00  0.93827000000E+00 0.  1.
     999902    2    1    2    0    0  0.13061735282E-01  0.19414036980E-01 -0.79552014152E-03  0.10205174689E+01  0.10202488705E+01 0.  0.
     999903    2    3    3    0    0  0.53955206812E-01  0.73993711056E-01  0.94121506254E-01  0.13278977487E+00  0.19698546976E-01 0.  0.
         14    1    1    2    0    0 -0.13061735282E-01 -0.19414036980E-01  0.79552014152E-03  0.23412531105E-01  0.00000000000E+00 0. -1.
     999901    1    3    3    0    0 -0.40893471530E-01 -0.54579674076E-01 -0.94917026396E-01  0.88772769402E+00  0.88000000000E+00 0.  1.
        -11    1    4    4    0    0  0.80485752091E-02  0.23471955573E-01  0.18794476540E-01  0.31132069169E-01  0.51100000000E-03 0. -1.
         11    1    4    4    0    0  0.45906631603E-01  0.50521755483E-01  0.75327029714E-01  0.10165770570E+00  0.51100000000E-03 0.  1.
</event>
<event>
 8    1  0.1063984E+005  0.1043930E+01  0.7957747E-01            NaN
         13   -1    0    0    0    0  0.00000000000E+00  0.00000000000E+00  0.74505805969E-08  0.10566000000E+00  0.10566000000E+00 0. -1.
     999900   -1    0    0    0    0 -0.00000000000E+00 -0.00000000000E+00 -0.74505805969E-08  0.93827000000E+00  0.93827000000E+00 0.  1.
     999902    2    1    2    0    0  0.13096772286E-01  0.12509464157E-01 -0.17291588129E-01  0.10188898091E+01  0.10185820694E+01 0.  0.
     999903    2    3    3    0    0  0.46227862579E-01  0.11720475470E+00  0.29048440295E-01  0.13085480351E+00  0.20129528461E-01 0.  0.
         14    1    1    2    0    0 -0.13096772286E-01 -0.12509464157E-01  0.17291588129E-01  0.25040190851E-01  0.00000000000E+00 0. -1.
     999901    1    3    3    0    0 -0.33131090293E-01 -0.10469529054E+00 -0.46340028424E-01  0.88803500564E+00  0.88000000000E+00 0. -1.
        -11    1    4    4    0    0  0.32598161312E-01  0.60977635257E-01  0.22042601902E-01  0.72574441383E-01  0.51100000000E-03 0. -1.
         11    1    4    4    0    0  0.13629701268E-01  0.56227119440E-01  0.70058383930E-02  0.58280362128E-01  0.51100000000E-03 0.  1.
</event>
<event>
 8    1  0.1063984E+005  0.1043930E+01  0.7957747E-01            NaN
         13   -1    0    0    0    0  0.00000000000E+00  0.00000000000E+00  0.74505805969E-08  0.10566000000E+00  0.10566000000E+00 0. -1.
     999900   -1    0    0    0    0 -0.00000000000E+00 -0.00000000000E+00 -0.74505805969E-08  0.93827000000E+00  0.93827000000E+00 0. -1.
     999902    2    1    2    0    0  0.21914477964E-01 -0.22290154199E-02  0.10415051715E-01  0.10195643242E+01  0.10192731357E+01 0.  0.
     999903    2    3    3    0    0  0.33690162264E-01  0.72747300442E-01  0.10205789544E+00  0.13155614549E+00  0.21540859770E-01 0.  0.
         14    1    1    2    0    0 -0.21914477964E-01  0.22290154199E-02 -0.10415051715E-01  0.24365675784E-01  0.00000000000E+00 0.  1.
     999901    1    3    3    0    0 -0.11775684300E-01 -0.74976315862E-01 -0.91642843724E-01  0.88800817873E+00  0.88000000000E+00 0. -1.
        -11    1    4    4    0    0  0.19776549342E-01  0.52220087852E-01  0.55096998432E-01  0.78447369850E-01  0.51100000000E-03 0. -1.
         11    1    4    4    0    0  0.13913612922E-01  0.20527212590E-01  0.46960897006E-01  0.53108775639E-01  0.51100000000E-03 0.  1.
</event>
<event>
 8    1  0.1063984E+005  0.1043930E+01  0.7957747E-01            NaN
         13   -1    0    0    0    0  0.00000000000E+00  0.00000000000E+00  0.74505805969E-08  0.10566000000E+00  0.10566000000E+00 0. -1.
     999900   -1    0    0    0    0 -0.00000000000E+00 -0.00000000000E+00 -0.74505805969E-08  0.93827000000E+00  0.93827000000E+00 0. -1.
     999902    2    1    2    0    0 -0.12680815177E-01 -0.19766579830E-01 -0.49323111825E-02  0.10199331576E+01  0.10196508214E+01 0.  0.
     999903    2    3    3    0    0 -0.53638936228E-01 -0.50645014195E-02 -0.11823782478E+00  0.13160221802E+00  0.20884825241E-01 0.  0.
         14    1    1    2    0    0  0.12680815177E-01  0.19766579830E-01  0.49323111825E-02  0.23996842403E-01  0.00000000000E+00 0. -1.
     999901    1    3    3    0    0  0.40958121052E-01 -0.14702078410E-01  0.11330551360E+00  0.88833093957E+00  0.88000000000E+00 0. -1.
        -11    1    4    4    0    0 -0.84043432925E-02  0.18701364633E-02 -0.40369486262E-01  0.41280587916E-01  0.51100000000E-03 0.  1.
         11    1    4    4    0    0 -0.45234592936E-01 -0.69346378828E-02 -0.77868338520E-01  0.90321630109E-01  0.51100000000E-03 0. -1.
</event>
<event>
 8    1  0.1063984E+005  0.1043930E+01  0.7957747E-01            NaN
         13   -1    0    0    0    0  0.00000000000E+00  0.00000000000E+00  0.74505805969E-08  0.10566000000E+00  0.10566000000E+00 0. -1.
     999900   -1    0    0    0    0 -0.00000000000E+00 -0.00000000000E+00 -0.74505805969E-08  0.93827000000E+00  0.93827000000E+00 0.  1.
     999902    2    1    2    0    0  0.17061698321E-01 -0.39125598520E-02  0.16182530995E-01  0.10200912923E+01  0.10198127086E+01 0.  0.
     999903    2    3    3    0    0 -0.11891778456E+00 -0.40828289964E-01 -0.15006540283E-01  0.12833687038E+00  0.20898978451E-01 0.  0.
         14    1    1    2    0    0 -0.17061698321E-01  0.39125598520E-02 -0.16182530995E-01  0.23838707674E-01  0.00000000000E+00 0. -1.
     999901    1    3    3    0    0  0.13597948288E+00  0.36915730112E-01  0.31189071277E-01  0.89175442195E+00  0.88000000000E+00 0.  1.
        -11    1    4    4    0    0 -0.36965761561E-01 -0.14305352756E-01  0.48589488647E-02  0.39937215105E-01  0.51100000000E-03 0. -1.
         11    1    4    4    0    0 -0.81952023004E-01 -0.26522937207E-01 -0.19865489148E-01  0.88399655274E-01  0.51100000000E-03 0.  1.
</event>
<event>
 8    1  0.1063984E+005  0.1043930E+01  0.7957747E-01            NaN
         13   -1    0    0    0    0  0.00000000000E+00  0.00000000000E+00  0.74505805969E-08  0.10566000000E+00  0.10566000000E+00 0.  1.
     999900   -1    0    0    0    0 -0.00000000000E+00 -0.00000000000E+00 -0.74505805969E-08  0.93827000000E+00  0.93827000000E+00 0. -1.
     999902    2    1    2    0    0 -0.19849487892E-01 -0.18421030152E-03  0.13072701768E-01  0.10201617095E+01  0.10198847885E+01 0.  0.
     999903    2    3    3    0    0  0.65916440496E-01 -0.80961081716E-01  0.75590239410E-01  0.13011163226E+00  0.17761719408E-01 0.  0.
         14    1    1    2    0    0  0.19849487892E-01  0.18421030152E-03 -0.13072701768E-01  0.23768290526E-01  0.00000000000E+00 0. -1.
     999901    1    3    3    0    0 -0.85765928388E-01  0.80776871415E-01 -0.62517537642E-01  0.89005007721E+00  0.88000000000E+00 0.  1.
        -11    1    4    4    0    0  0.23880310501E-01 -0.18063600042E-01  0.17104423766E-01  0.34487465976E-01  0.51100000000E-03 0.  1.
         11    1    4    4    0    0  0.42036129995E-01 -0.62897481674E-01  0.58485815644E-01  0.95624166289E-01  0.51100000000E-03 0. -1.
</event>
<event>
 8    1  0.1063984E+005  0.1043930E+01  0.7957747E-01            NaN
         13   -1    0    0    0    0  0.00000000000E+00  0.00000000000E+00  0.74505805969E-08  0.10566000000E+00  0.10566000000E+00 0.  1.
     999900   -1    0    0    0    0 -0.00000000000E+00 -0.00000000000E+00 -0.74505805969E-08  0.93827000000E+00  0.93827000000E+00 0.  1.
     999902    2    1    2    0    0 -0.13933025362E-01  0.16158443771E-01 -0.12351534593E-01  0.10192767059E+01  0.10189785171E+01 0.  0.
     999903    2    3    3    0    0 -0.12108200738E+00 -0.30289436389E-01  0.31914273897E-01  0.13045851772E+00  0.20557273626E-01 0.  0.
         14    1    1    2    0    0  0.13933025362E-01 -0.16158443771E-01  0.12351534593E-01  0.24653294053E-01  0.00000000000E+00 0.  1.
     999901    1    3    3    0    0  0.10714898202E+00  0.46447880161E-01 -0.44265808490E-01  0.88881818823E+00  0.88000000000E+00 0.  1.
        -11    1    4    4    0    0 -0.76055019718E-01 -0.11205857028E-01  0.26196817478E-01  0.81218665484E-01  0.51100000000E-03 0.  1.
         11    1    4    4    0    0 -0.45026987665E-01 -0.19083579361E-01  0.57174564189E-02  0.49239852237E-01  0.51100000000E-03 0. -1.
</event>
<event>
 8    1  0.1063984E+005  0.1043930E+01  0.7957747E-01            NaN
         13   -1    0    0    0    0  0.00000000000E+00  0.00000000000E+00  0.74505805969E-08  0.10566000000E+00  0.10566000000E+00 0. -1.
     999900   -1    0    0    0    0 -0.00000000000E+00 -0.00000000000E+00 -0.74505805969E-08  0.93827000000E+00  0.93827000000E+00 0.  1.
     999902    2    1    2    0    0  0.10119254644E-01 -0.20129000222E-01 -0.46636384616E-02  0.10209229253E+01  0.10206636536E+01 0.  0.
     999903    2    3    3    0    0 -0.68641477971E-01  0.79552223191E-01 -0.72557780955E-01  0.12921152918E+00  0.19768130518E-01 0.  0.
         14    1    1    2    0    0 -0.10119254644E-01  0.20129000222E-01  0.46636384616E-02  0.23007074742E-01  0.00000000000E+00 0. -1.
     999901    1    3    3    0    0  0.78760732615E-01 -0.99681223413E-01  0.67894142494E-01  0.89171139607E+00  0.88000000000E+00 0.  1.
        -11    1    4    4    0    0 -0.36306807038E-01  0.47073289760E-01 -0.29674193573E-01  0.66444696789E-01  0.51100000000E-03 0. -1.
         11    1    4    4    0    0 -0.32334670933E-01  0.32478933431E-01 -0.42883587382E-01  0.62766832395E-01  0.51100000000E-03 0.  1.
</event>
<event>
 8    1  0.1063984E+005  0.1043930E+01  0.7957747E-01            NaN
         13   -1    0    0    0    0  0.00000000000E+00  0.00000000000E+00  0.74505805969E-08  0.10566000000E+00  0.10566000000E+00 0. -1.
     999900   -1    0    0    0    0 -0.00000000000E+00 -0.00000000000E+00 -0.74505805969E-08  0.93827000000E+00  0.93827000000E+00 0.  1.
     999902    2    1    2    0    0  0.17611481605E-01 -0.28242637620E-02 -0.14672525364E-01  0.10208340317E+01  0.10205727297E+01 0.  0.
     999903    2    3    3    0    0  0.85692857365E-01  0.84739828549E-01  0.49308297347E-01  0.13156686733E+00  0.18826259491E-01 0.  0.
         14    1    1    2    0    0 -0.17611481605E-01  0.28242637620E-02  0.14672525364E-01  0.23095968278E-01  0.00000000000E+00 0. -1.
     999901    1    3    3    0    0 -0.68081375760E-01 -0.87564092311E-01 -0.63980822711E-01  0.88926716439E+00  0.88000000000E+00 0.  1.
        -11    1    4    4    0    0  0.64251081262E-01  0.63939853650E-01  0.45570926475E-01  0.10145677301E+00  0.51100000000E-03 0. -1.
         11    1    4    4    0    0  0.21441776104E-01  0.20799974899E-01  0.37373708716E-02  0.30110094326E-01  0.51100000000E-03 0.  1.
</event>
<event>
 8    1  0.1063984E+005  0.1043930E+01  0.7957747E-01            NaN
         13   -1    0    0    0    0  0.00000000000E+00  0.00000000000E+00  0.74505805969E-08  0.10566000000E+00  0.10566000000E+00 0.  1.
     999900   -1    0    0    0    0 -0.00000000000E+00 -0.00000000000E+00 -0.74505805969E-08  0.93827000000E+00  0.93827000000E+00 0.  1.
     999902    2    1    2    0    0 -0.17499458601E-02  0.22012686906E-01  0.66054491908E-02  0.10208810813E+01  0.10206208549E+01 0.  0.
     999903    2    3    3    0    0 -0.52453777070E-01 -0.12903770238E-01 -0.11656001175E+00  0.13017362748E+00  0.21000736603E-01 0.  0.
         14    1    1    2    0    0  0.17499458601E-02 -0.22012686906E-01 -0.66054491908E-02  0.23048918724E-01  0.00000000000E+00 0. -1.
     999901    1    3    3    0    0  0.50703831210E-01  0.34916457145E-01  0.12316546094E+00  0.89070745380E+00  0.88000000000E+00 0. -1.
        -11    1    4    4    0    0 -0.52671276275E-01 -0.15267567038E-01 -0.10609995842E+00  0.11943543966E+00  0.51100000000E-03 0.  1.
         11    1    4    4    0    0  0.21749920469E-03  0.23637967994E-02 -0.10460053321E-01  0.10738187822E-01  0.51100000000E-03 0. -1.
</event>
<event>
 8    1  0.1063984E+005  0.1043930E+01  0.7957747E-01            NaN
         13   -1    0    0    0    0  0.00000000000E+00  0.00000000000E+00  0.74505805969E-08  0.10566000000E+00  0.10566000000E+00 0. -1.
     999900   -1    0    0    0    0 -0.00000000000E+00 -0.00000000000E+00 -0.74505805969E-08  0.93827000000E+00  0.93827000000E+00 0.  1.
     999902    2    1    2    0    0 -0.11238780929E-01  0.71163719362E-02  0.20124556088E-01  0.10198063455E+01  0.10195209815E+01 0.  0.
     999903    2    3    3    0    0 -0.12780866408E+00  0.41284135155E-02  0.25561492707E-01  0.13209748233E+00  0.21077393503E-01 0.  0.
         14    1    1    2    0    0  0.11238780929E-01 -0.71163719362E-02 -0.20124556088E-01  0.24123654451E-01  0.00000000000E+00 0.  1.
     999901    1    3    3    0    0  0.11656988315E+00  0.29879584207E-02 -0.54369366188E-02  0.88770886322E+00  0.88000000000E+00 0.  1.
        -11    1    4    4    0    0 -0.94099446266E-01 -0.43463640012E-02  0.24428502523E-01  0.97317056697E-01  0.51100000000E-03 0.  1.
         11    1    4    4    0    0 -0.33709217815E-01  0.84747775167E-02  0.11329901839E-02  0.34780425636E-01  0.51100000000E-03 0. -1.
</event>
<event>
 8    1  0.1063984E+005  0.1043930E+01  0.7957747E-01            NaN
         13   -1    0    0    0    0  0.00000000000E+00  0.00000000000E+00  0.74505805969E-08  0.10566000000E+00  0.10566000000E+00 0.  1.
     999900   -1    0    0    0    0 -0.00000000000E+00 -0.00000000000E+00 -0.74505805969E-08  0.93827000000E+00  0.93827000000E+00 0.  1.
     999902    2    1    2    0    0 -0.19942735656E-01  0.28692014792E-02 -0.83705830903E-02  0.10221123080E+01  0.10218794246E+01 0.  0.
     999903    2    3    3    0    0 -0.78616108425E-01  0.11723045406E-01 -0.10694333214E+00  0.13462284774E+00  0.19196680674E-01 0.  0.
         14    1    1    2    0    0  0.19942735656E-01 -0.28692014792E-02  0.83705830903E-02  0.21817691992E-01  0.00000000000E+00 0. -1.
     999901    1    3    3    0    0  0.58673372769E-01 -0.88538439266E-02  0.98572749046E-01  0.88748946026E+00  0.88000000000E+00 0. -1.
        -11    1    4    4    0    0 -0.63963561025E-01  0.14101021594E-01 -0.76225912555E-01  0.10050286968E+00  0.51100000000E-03 0. -1.
         11    1    4    4    0    0 -0.14652547400E-01 -0.23779761879E-02 -0.30717419582E-01  0.34119978060E-01  0.51100000000E-03 0.  1.
</event>
<event>
 8    1  0.1063984E+005  0.1043930E+01  0.7957747E-01            NaN
         13   -1    0    0    0    0  0.00000000000E+00  0.00000000000E+00  0.74505805969E-08  0.10566000000E+00  0.10566000000E+00 0. -1.
     999900   -1    0    0    0    0 -0.00000000000E+00 -0.00000000000E+00 -0.74505805969E-08  0.93827000000E+00  0.93827000000E+00 0. -1.
     999902    2    1    2    0    0  0.22386889655E-02  0.96008518587E-02  0.19935902023E-01  0.10216897600E+01  0.10214476675E+01 0.  0.
     999903    2    3    3    0    0 -0.36827921636E-01  0.12158796172E+00 -0.21884894722E-01  0.13274865293E+00  0.31675353043E-01 0.  0.
         14    1    1    2    0    0 -0.22386889655E-02 -0.96008518587E-02 -0.19935902023E-01  0.22240239975E-01  0.00000000000E+00 0.  1.
     999901    1    3    3    0    0  0.39066610602E-01 -0.11198710986E+00  0.41820796745E-01  0.88894110709E+00  0.88000000000E+00 0.  1.
        -11    1    4    4    0    0 -0.30986631113E-01  0.11241651865E+00 -0.10634477847E-01  0.11709397172E+00  0.51100000000E-03 0.  1.
         11    1    4    4    0    0 -0.58412905234E-02  0.91714430746E-02 -0.11250416875E-01  0.15654681214E-01  0.51100000000E-03 0. -1.
</event>
<event>
 8    1  0.1063984E+005  0.1043930E+01  0.7957747E-01            NaN
         13   -1    0    0    0    0  0.00000000000E+00  0.00000000000E+00  0.74505805969E-08  0.10566000000E+00  0.10566000000E+00 0.  1.
     999900   -1    0    0    0    0 -0.00000000000E+00 -0.00000000000E+00 -0.74505805969E-08  0.93827000000E+00  0.93827000000E+00 0.  1.
     999902    2    1    2    0    0 -0.56509496222E-02 -0.15371385087E-01  0.10078914045E-01  0.10246998877E+01  0.10245194301E+01 0.  0.
     999903    2    3    3    0    0 -0.99206594825E-01 -0.39885828671E-01  0.82464469250E-01  0.13644694776E+00  0.19610024951E-01 0.  0.
         14    1    1    2    0    0  0.56509496222E-02  0.15371385087E-01 -0.10078914045E-01  0.19230112310E-01  0.00000000000E+00 0. -1.
     999901    1    3    3    0    0  0.93555645203E-01  0.24514443584E-01 -0.72385555204E-01  0.88825293993E+00  0.88000000000E+00 0. -1.
        -11    1    4    4    0    0 -0.27652646791E-01 -0.10079614318E-01  0.12338793165E-01  0.31918246147E-01  0.51100000000E-03 0.  1.
         11    1    4    4    0    0 -0.71553948034E-01 -0.29806214353E-01  0.70125676085E-01  0.10452870161E+00  0.51100000000E-03 0. -1.
</event>
<event>
 8    1  0.1063984E+005  0.1043930E+01  0.7957747E-01            NaN
         13   -1    0    0    0    0  0.00000000000E+00  0.00000000000E+00  0.74505805969E-08  0.10566000000E+00  0.10566000000E+00 0.  1.
     999900   -1    0    0    0    0 -0.00000000000E+00 -0.00000000000E+00 -0.74505805969E-08  0.93827000000E+00  0.93827000000E+00 0. -1.
     999902    2    1    2    0    0 -0.20454237421E-02  0.60077964857E-02  0.21211366236E-01  0.10217895521E+01  0.10215496509E+01 0.  0.
     999903    2    3    3    0    0 -0.15957339330E-01 -0.58834057778E-01  0.11779848290E+00  0.13402433617E+00  0.19234268359E-01 0.  0.
         14    1    1    2    0    0  0.20454237421E-02 -0.60077964857E-02 -0.21211366236E-01  0.22140447929E-01  0.00000000000E+00 0. -1.
     999901    1    3    3    0    0  0.13911915588E-01  0.64841854264E-01 -0.96587116663E-01  0.88776521590E+00  0.88000000000E+00 0. -1.
        -11    1    4    4    0    0 -0.14185096070E-01 -0.44340790717E-01  0.10392296514E+00  0.11387522328E+00  0.51100000000E-03 0.  1.
         11    1    4    4    0    0 -0.17722432610E-02 -0.14493267061E-01  0.13875517759E-01  0.20149112893E-01  0.51100000000E-03 0. -1.
</event>
<event>
 8    1  0.1063984E+005  0.1043930E+01  0.7957747E-01            NaN
         13   -1    0    0    0    0  0.00000000000E+00  0.00000000000E+00  0.74505805969E-08  0.10566000000E+00  0.10566000000E+00 0. -1.
     999900   -1    0    0    0    0 -0.00000000000E+00 -0.00000000000E+00 -0.74505805969E-08  0.93827000000E+00  0.93827000000E+00 0. -1.
     999902    2    1    2    0    0 -0.17446476004E-01  0.12667215463E-01 -0.70437314912E-02  0.10212484651E+01  0.10209965599E+01 0.  0.
     999903    2    3    3    0    0 -0.74129958765E-01  0.11002021785E+00  0.10627212603E-02  0.13403014987E+00  0.19059186102E-01 0.  0.
         14    1    1    2    0    0  0.17446476004E-01 -0.12667215463E-01  0.70437314912E-02  0.22681534910E-01  0.00000000000E+00 0.  1.
     999901    1    3    3    0    0  0.56683482761E-01 -0.97353002385E-01 -0.81064527515E-02  0.88721831522E+00  0.88000000000E+00 0. -1.
        -11    1    4    4    0    0 -0.37800764670E-01  0.39774197632E-01 -0.16353432627E-02  0.54898270241E-01  0.51100000000E-03 0.  1.
         11    1    4    4    0    0 -0.36329194095E-01  0.70246020217E-01  0.26980645230E-02  0.79131879626E-01  0.51100000000E-03 0. -1.
</event>
<event>
 8    1  0.1063984E+005  0.1043930E+01  0.7957747E-01            NaN
         13   -1    0    0    0    0  0.00000000000E+00  0.00000000000E+00  0.74505805969E-08  0.10566000000E+00  0.10566000000E+00 0. -1.
     999900   -1    0    0    0    0 -0.00000000000E+00 -0.00000000000E+00 -0.74505805969E-08  0.93827000000E+00  0.93827000000E+00 0. -1.
     999902    2    1    2    0    0  0.13984837799E-01  0.13094437692E-01  0.24628717235E-01  0.10127272165E+01  0.10122464133E+01 0.  0.
     999903    2    3    3    0    0 -0.44464109653E-02  0.87250294260E-02  0.12473534948E+00  0.12684904174E+00  0.20877626109E-01 0.  0.
         14    1    1    2    0    0 -0.13984837799E-01 -0.13094437692E-01 -0.24628717235E-01  0.31202783519E-01  0.00000000000E+00 0.  1.
     999901    1    3    3    0    0  0.18431248765E-01  0.43694082658E-02 -0.10010663225E+00  0.88587817474E+00  0.88000000000E+00 0. -1.
        -11    1    4    4    0    0 -0.38305858661E-02  0.33201752430E-02  0.55326501486E-02  0.75211894264E-02  0.51100000000E-03 0. -1.
         11    1    4    4    0    0 -0.61582509923E-03  0.54048541830E-02  0.11920269933E+00  0.11932785232E+00  0.51100000000E-03 0.  1.
</event>
<event>
 8    1  0.1063984E+005  0.1043930E+01  0.7957747E-01            NaN
         13   -1    0    0    0    0  0.00000000000E+00  0.00000000000E+00  0.74505805969E-08  0.10566000000E+00  0.10566000000E+00 0. -1.
     999900   -1    0    0    0    0 -0.00000000000E+00 -0.00000000000E+00 -0.74505805969E-08  0.93827000000E+00  0.93827000000E+00 0. -1.
     999902    2    1    2    0    0 -0.24100689627E-01 -0.91311564442E-03  0.10086709423E-01  0.10177877215E+01  0.10174519287E+01 0.  0.
     999903    2    3    3    0    0 -0.55722068895E-02 -0.90374925756E-01  0.90370153411E-01  0.12942284624E+00  0.19617130398E-01 0.  0.
         14    1    1    2    0    0  0.24100689627E-01  0.91311564442E-03 -0.10086709423E-01  0.26142278548E-01  0.00000000000E+00 0.  1.
     999901    1    3    3    0    0 -0.18528482737E-01  0.89461810112E-01 -0.80283443987E-01  0.88836487522E+00  0.88000000000E+00 0. -1.
        -11    1    4    4    0    0 -0.99931138480E-02 -0.70244870218E-01  0.77709967784E-01  0.10522976922E+00  0.51100000000E-03 0.  1.
         11    1    4    4    0    0  0.44209069585E-02 -0.20130055538E-01  0.12660185627E-01  0.24193077014E-01  0.51100000000E-03 0. -1.
</event>
<event>
 8    1  0.1063984E+005  0.1043930E+01  0.7957747E-01            NaN
         13   -1    0    0    0    0  0.00000000000E+00  0.00000000000E+00  0.74505805969E-08  0.10566000000E+00  0.10566000000E+00 0.  1.
     999900   -1    0    0    0    0 -0.00000000000E+00 -0.00000000000E+00 -0.74505805969E-08  0.93827000000E+00  0.93827000000E+00 0. -1.
     999902    2    1    2    0    0 -0.76902983004E-02  0.21280995327E-01 -0.50192305234E-02  0.10207521199E+01  0.10204889398E+01 0.  0.
     999903    2    3    3    0    0  0.24286012230E-01  0.12987906247E+00 -0.76606064991E-03  0.13348997485E+00  0.18989609729E-01 0.  0.
         14    1    1    2    0    0  0.76902983004E-02 -0.21280995327E-01  0.50192305234E-02  0.23177880082E-01  0.00000000000E+00 0.  1.
     999901    1    3    3    0    0 -0.31976310530E-01 -0.10859806714E+00 -0.42531698735E-02  0.88726214507E+00  0.88000000000E+00 0.  1.
        -11    1    4    4    0    0  0.43267647141E-02  0.43553773144E-01 -0.83551961821E-02  0.44561446029E-01  0.51100000000E-03 0. -1.
         11    1    4    4    0    0  0.19959247516E-01  0.86325289325E-01  0.75891355322E-02  0.88928528817E-01  0.51100000000E-03 0.  1.
</event>
<event>
 8    1  0.1063984E+005  0.1043930E+01  0.7957747E-01            NaN
         13   -1    0    0    0    0  0.00000000000E+00  0.00000000000E+00  0.74505805969E-08  0.10566000000E+00  0.10566000000E+00 0.  1.
     999900   -1    0    0    0    0 -0.00000000000E+00 -0.00000000000E+00 -0.74505805969E-08  0.93827000000E+00  0.93827000000E+00 0.  1.
     999902    2    1    2    0    0 -0.10278904895E-01  0.20442218564E-01  0.72793579701E-02  0.10199189767E+01  0.10196363027E+01 0.  0.
     999903    2    3    3    0    0 -0.32030146081E-01 -0.90774265295E-01 -0.82208563792E-01  0.12815089539E+00  0.19962628324E-01 0.  0.
         14    1    1    2    0    0  0.10278904895E-01 -0.20442218564E-01 -0.72793579701E-02  0.24011023263E-01  0.00000000000E+00 0. -1.
     999901    1    3    3    0    0  0.21751241186E-01  0.11121648386E+00  0.89487921762E-01  0.89176808135E+00  0.88000000000E+00 0. -1.
        -11    1    4    4    0    0 -0.19714344538E-01 -0.32265231804E-01 -0.39417028612E-01  0.54622924029E-01  0.51100000000E-03 0.  1.
         11    1    4    4    0    0 -0.12315801543E-01 -0.58509033491E-01 -0.42791535180E-01  0.73527971357E-01  0.51100000000E-03 0. -1.
</event>
<event>
 8    1  0.1063984E+005  0.1043930E+01  0.7957747E-01            NaN
         13   -1    0    0    0    0  0.00000000000E+00  0.00000000000E+00  0.74505805969E-08  0.10566000000E+00  0.10566000000E+00 0. -1.
     999900   -1    0    0    0    0 -0.00000000000E+00 -0.00000000000E+00 -0.74505805969E-08  0.93827000000E+00  0.93827000000E+00 0.  1.
     999902    2    1    2    0    0  0.24910737514E-02 -0.21466221974E-01 -0.12069984722E-01  0.10191774513E+01  0.10188768270E+01 0.  0.
     999903    2    3    3    0    0 -0.18664037762E-01 -0.27204414263E-01 -0.12592167468E+00  0.13157243056E+00  0.19147059008E-01 0.  0.
         14    1    1    2    0    0 -0.24910737514E-02  0.21466221974E-01  0.12069984722E-01  0.24752548666E-01  0.00000000000E+00 0.  1.
     999901    1    3    3    0    0  0.21155111513E-01  0.57381922894E-02  0.11385168996E+00  0.88760502077E+00  0.88000000000E+00 0. -1.
        -11    1    4    4    0    0 -0.99144262145E-02 -0.75417678874E-02 -0.20646551797E-01  0.24118775511E-01  0.51100000000E-03 0.  1.
         11    1    4    4    0    0 -0.87496115474E-02 -0.19662646376E-01 -0.10527512288E+00  0.10745365505E+00  0.51100000000E-03 0. -1.
</event>
<event>
 8    1  0.1063984E+005  0.1043930E+01  0.7957747E-01            NaN
         13   -1    0    0    0    0  0.00000000000E+00  0.00000000000E+00  0.74505805969E-08  0.10566000000E+00  0.10566000000E+00 0. -1.
     999900   -1    0    0    0    0 -0.00000000000E+00 -0.00000000000E+00 -0.74505805969E-08  0.93827000000E+00  0.93827000000E+00 0.  1.
     999902    2    1    2    0    0 -0.13498658879E-01 -0.15164265524E-01 -0.12824680807E-01  0.10199166458E+01  0.10196339163E+01 0.  0.
     999903    2    3    3    0    0 -0.64831798520E-01 -0.11256226224E+00  0.15856314897E-01  0.13259254467E+00  0.21352639202E-01 0.  0.
         14    1    1    2    0    0  0.13498658879E-01  0.15164265524E-01  0.12824680807E-01  0.24013354164E-01  0.00000000000E+00 0. -1.
     999901    1    3    3    0    0  0.51333139641E-01  0.97397996715E-01 -0.28680995704E-01  0.88732410116E+00  0.88000000000E+00 0.  1.
        -11    1    4    4    0    0 -0.20131762386E-01 -0.46419206485E-01 -0.25569064110E-02  0.50663887325E-01  0.51100000000E-03 0.  1.
         11    1    4    4    0    0 -0.44700036134E-01 -0.66143055754E-01  0.18413221308E-01  0.81928657348E-01  0.51100000000E-03 0. -1.
</event>
<event>
 8    1  0.1063984E+005  0.1043930E+01  0.7957747E-01            NaN
         13   -1    0    0    0    0  0.00000000000E+00  0.00000000000E+00  0.74505805969E-08  0.10566000000E+00  0.10566000000E+00 0. -1.
     999900   -1    0    0    0    0 -0.00000000000E+00 -0.00000000000E+00 -0.74505805969E-08  0.93827000000E+00  0.93827000000E+00 0. -1.
     999902    2    1    2    0    0 -0.76278295017E-02 -0.13077230660E-01  0.17186401797E-01  0.10210265035E+01  0.10207695875E+01 0.  0.
     999903    2    3    3    0    0 -0.78243173191E-03 -0.33204917776E-02  0.13192287674E+00  0.13349818728E+00  0.20161416984E-01 0.  0.
         14    1    1    2    0    0  0.76278295017E-02  0.13077230660E-01 -0.17186401797E-01  0.22903496488E-01  0.00000000000E+00 0.  1.
     999901    1    3    3    0    0 -0.68453977698E-02 -0.97567388828E-02 -0.11473647495E+00  0.88752831623E+00  0.88000000000E+00 0. -1.
        -11    1    4    4    0    0 -0.90278029262E-02  0.22729193341E-02  0.41935258491E-01  0.42959218029E-01  0.51100000000E-03 0. -1.
         11    1    4    4    0    0  0.82453711943E-02 -0.55934111118E-02  0.89987618252E-01  0.90538969254E-01  0.51100000000E-03 0.  1.
</event>
<event>
 8    1  0.1063984E+005  0.1043930E+01  0.7957747E-01            NaN
         13   -1    0    0    0    0  0.00000000000E+00  0.00000000000E+00  0.74505805969E-08  0.10566000000E+00  0.10566000000E+00 0.  1.
     999900   -1    0    0    0    0 -0.00000000000E+00 -0.00000000000E+00 -0.74505805969E-08  0.93827000000E+00  0.93827000000E+00 0.  1.
     999902    2    1    2    0    0  0.20848463376E-01  0.57644344635E-03  0.80225291372E-03  0.10230581452E+01  0.10228452152E+01 0.  0.
     999903    2    3    3    0    0  0.13244572591E+00  0.22819794812E-02 -0.20526460862E-01  0.13575223862E+00  0.21453599990E-01 0.  0.
         14    1    1    2    0    0 -0.20848463376E-01 -0.57644344635E-03 -0.80225291372E-03  0.20871854779E-01  0.00000000000E+00 0. -1.
     999901    1    3    3    0    0 -0.11159726253E+00 -0.17055360349E-02  0.21328713776E-01  0.88730590660E+00  0.88000000000E+00 0.  1.
        -11    1    4    4    0    0  0.11881825098E-01 -0.34305980744E-02 -0.71975714396E-02  0.14318272467E-01  0.51100000000E-03 0. -1.
         11    1    4    4    0    0  0.12056390081E+00  0.57125775556E-02 -0.13328889422E-01  0.12143396615E+00  0.51100000000E-03 0.  1.
</event>
<event>
 8    1  0.1063984E+005  0.1043930E+01  0.7957747E-01            NaN
         13   -1    0    0    0    0  0.00000000000E+00  0.00000000000E+00  0.74505805969E-08  0.10566000000E+00  0.10566000000E+00 0. -1.
     999900   -1    0    0    0    0 -0.00000000000E+00 -0.00000000000E+00 -0.74505805969E-08  0.93827000000E+00  0.93827000000E+00 0.  1.
     999902    2    1    2    0    0 -0.10783434956E-01 -0.23887399860E-02 -0.17169373707E-01  0.10235149090E+01  0.10233112884E+01 0.  0.
     999903    2    3    3    0    0 -0.66755998344E-01 -0.97075435269E-01  0.59275163005E-01  0.13337881527E+00  0.19908791180E-01 0.  0.
         14    1    1    2    0    0  0.10783434956E-01  0.23887399860E-02  0.17169373707E-01  0.20415091028E-01  0.00000000000E+00 0. -1.
     999901    1    3    3    0    0  0.55972563388E-01  0.94686695283E-01 -0.76444536713E-01  0.89013609370E+00  0.88000000000E+00 0. -1.
        -11    1    4    4    0    0 -0.49631088817E-01 -0.56398064945E-01  0.41194356118E-01  0.85680936058E-01  0.51100000000E-03 0.  1.
         11    1    4    4    0    0 -0.17124909527E-01 -0.40677370324E-01  0.18080806887E-01  0.47697879213E-01  0.51100000000E-03 0. -1.
</event>
<event>
 8    1  0.1063984E+005  0.1043930E+01  0.7957747E-01            NaN
         13   -1    0    0    0    0  0.00000000000E+00  0.00000000000E+00  0.74505805969E-08  0.10566000000E+00  0.10566000000E+00 0. -1.
     999900   -1    0    0    0    0 -0.00000000000E+00 -0.00000000000E+00 -0.74505805969E-08  0.93827000000E+00  0.93827000000E+00 0.  1.
     999902    2    1    2    0    0  0.90649342329E-03 -0.25970972938E-01  0.49448885800E-02  0.10174769267E+01  0.10171329958E+01 0.  0.
     999903    2    3    3    0    0 -0.11127669207E+00  0.30061355019E-01  0.50675227466E-01  0.12741178704E+00  0.19483262962E-01 0.  0.
         14    1    1    2    0    0 -0.90649342329E-03  0.25970972938E-01 -0.49448885800E-02  0.26453073332E-01  0.00000000000E+00 0. -1.
     999901    1    3    3    0    0  0.11218318549E+00 -0.56032327957E-01 -0.45730338886E-01  0.89006513963E+00  0.88000000000E+00 0.  1.
        -11    1    4    4    0    0 -0.10159487029E+00  0.21724510247E-01  0.42593255272E-01  0.11228498800E+00  0.51100000000E-03 0.  1.
         11    1    4    4    0    0 -0.96818217738E-02  0.83368447717E-02  0.80819721938E-02  0.15126799038E-01  0.51100000000E-03 0. -1.
</event>
<event>
 8    1  0.1063984E+005  0.1043930E+01  0.7957747E-01            NaN
         13   -1    0    0    0    0  0.00000000000E+00  0.00000000000E+00  0.74505805969E-08  0.10566000000E+00  0.10566000000E+00 0.  1.
     999900   -1    0    0    0    0 -0.00000000000E+00 -0.00000000000E+00 -0.74505805969E-08  0.93827000000E+00  0.93827000000E+00 0.  1.
     999902    2    1    2    0    0  0.32953718640E-01  0.16545789732E-01 -0.35514246736E-02  0.10068851171E+01  0.10062034167E+01 0.  0.
     999903    2    3    3    0    0 -0.67513526424E-01 -0.25100328532E-01  0.88066640269E-01  0.11546942491E+00  0.19732010006E-01 0.  0.
         14    1    1    2    0    0 -0.32953718640E-01 -0.16545789732E-01  0.35514246736E-02  0.37044882875E-01  0.00000000000E+00 0.  1.
     999901    1    3    3    0    0  0.10046724506E+00  0.41646118264E-01 -0.91618064942E-01  0.89141569221E+00  0.88000000000E+00 0.  1.
        -11    1    4    4    0    0 -0.43839424774E-01 -0.25092984553E-01  0.65897312959E-01  0.83031741007E-01  0.51100000000E-03 0. -1.
         11    1    4    4    0    0 -0.23674101650E-01 -0.73439787673E-05  0.22169327310E-01  0.32437683906E-01  0.51100000000E-03 0.  1.
</event>
<event>
 8    1  0.1063984E+005  0.1043930E+01  0.7957747E-01            NaN
         13   -1    0    0    0    0  0.00000000000E+00  0.00000000000E+00  0.74505805969E-08  0.10566000000E+00  0.10566000000E+00 0.  1.
     999900   -1    0    0    0    0 -0.00000000000E+00 -0.00000000000E+00 -0.74505805969E-08  0.93827000000E+00  0.93827000000E+00 0.  1.
     999902    2    1    2    0    0 -0.15318613178E-01  0.50936077322E-02 -0.16503069618E-01  0.10208441590E+01  0.10205830886E+01 0.  0.
     999903    2    3    3    0    0 -0.16442219115E-01  0.12916510378E+00 -0.34491964260E-02  0.13204418021E+00  0.21674823354E-01 0.  0.
         14    1    1    2    0    0  0.15318613178E-01 -0.50936077322E-02  0.16503069618E-01  0.23085841034E-01  0.00000000000E+00 0.  1.
     999901    1    3    3    0    0  0.11236059373E-02 -0.12407149605E+00 -0.13053873192E-01  0.88879997875E+00  0.88000000000E+00 0.  1.
        -11    1    4    4    0    0 -0.59061985265E-02  0.89582109888E-01 -0.10800521665E-01  0.90425383507E-01  0.51100000000E-03 0.  1.
         11    1    4    4    0    0 -0.10536020589E-01  0.39582993896E-01  0.73513252392E-02  0.41618796708E-01  0.51100000000E-03 0. -1.
</event>
<event>
 8    1  0.1063984E+005  0.1043930E+01  0.7957747E-01            NaN
         13   -1    0    0    0    0  0.00000000000E+00  0.00000000000E+00  0.74505805969E-08  0.10566000000E+00  0.10566000000E+00 0.  1.
     999900   -1    0    0    0    0 -0.00000000000E+00 -0.00000000000E+00 -0.74505805969E-08  0.93827000000E+00  0.93827000000E+00 0.  1.
     999902    2    1    2    0    0 -0.21630170951E-01  0.89285539336E-02 -0.55704286235E-03  0.10205228714E+01  0.10202543984E+01 0.  0.
     999903    2    3    3    0    0 -0.14725997801E-01  0.13612955179E-01  0.12813185044E+00  0.13112394942E+00  0.19327479283E-01 0.  0.
         14    1    1    2    0    0  0.21630170951E-01 -0.89285539336E-02  0.55704286235E-03  0.23407128560E-01  0.00000000000E+00 0. -1.
     999901    1    3    3    0    0 -0.69041731496E-02 -0.46844012457E-02 -0.12868889330E+00  0.88939892201E+00  0.88000000000E+00 0.  1.
        -11    1    4    4    0    0  0.11755333248E-02  0.11732722716E-01  0.57317028987E-01  0.58519582995E-01  0.51100000000E-03 0. -1.
         11    1    4    4    0    0 -0.15901531126E-01  0.18802324638E-02  0.70814821453E-01  0.72604366430E-01  0.51100000000E-03 0.  1.
</event>
<event>
 8    1  0.1063984E+005  0.1043930E+01  0.7957747E-01            NaN
         13   -1    0    0    0    0  0.00000000000E+00  0.00000000000E+00  0.74505805969E-08  0.10566000000E+00  0.10566000000E+00 0. -1.
     999900   -1    0    0    0    0 -0.00000000000E+00 -0.00000000000E+00 -0.74505805969E-08  0.93827000000E+00  0.93827000000E+00 0.  1.
     999902    2    1    2    0    0 -0.55165109621E-03 -0.16877892951E-01  0.17623359993E-01  0.10195220012E+01  0.10192297879E+01 0.  0.
     999903    2    3    3    0    0  0.10149286925E-01 -0.67406167904E-01  0.11255233405E+00  0.13291096652E+00  0.18726922464E-01 0.  0.
         14    1    1    2    0    0  0.55165109621E-03  0.16877892951E-01 -0.17623359993E-01  0.24407998829E-01  0.00000000000E+00 0.  1.
     999901    1    3    3    0    0 -0.10700938022E-01  0.50528274953E-01 -0.94928974059E-01  0.88661103465E+00  0.88000000000E+00 0.  1.
        -11    1    4    4    0    0 -0.11067996258E-02 -0.40475788692E-01  0.76166787302E-01  0.86262130072E-01  0.51100000000E-03 0. -1.
         11    1    4    4    0    0  0.11256086551E-01 -0.26930379212E-01  0.36385546749E-01  0.46648836450E-01  0.51100000000E-03 0.  1.
</event>
<event>
 8    1  0.1063984E+005  0.1043930E+01  0.7957747E-01            NaN
         13   -1    0    0    0    0  0.00000000000E+00  0.00000000000E+00  0.74505805969E-08  0.10566000000E+00  0.10566000000E+00 0.  1.
     999900   -1    0    0    0    0 -0.00000000000E+00 -0.00000000000E+00 -0.74505805969E-08  0.93827000000E+00  0.93827000000E+00 0. -1.
     999902    2    1    2    0    0  0.65955019072E-02 -0.16775901792E-01 -0.83335408594E-02  0.10240710114E+01  0.10238784385E+01 0.  0.
     999903    2    3    3    0    0 -0.80890180791E-01  0.44547955141E-02 -0.10531321162E+00  0.13417801570E+00  0.18702962457E-01 0.  0.
         14    1    1    2    0    0 -0.65955019072E-02  0.16775901792E-01  0.83335408594E-02  0.19858988635E-01  0.00000000000E+00 0. -1.
     999901    1    3    3    0    0  0.87485682698E-01 -0.21230697306E-01  0.96979670763E-01  0.88989299566E+00  0.88000000000E+00 0.  1.
        -11    1    4    4    0    0 -0.24915033485E-01 -0.69634859370E-02 -0.36483117288E-01  0.44727262357E-01  0.51100000000E-03 0. -1.
         11    1    4    4    0    0 -0.55975147306E-01  0.11418281451E-01 -0.68830094335E-01  0.89450753347E-01  0.51100000000E-03 0.  1.
</event>
<event>
 8    1  0.1063984E+005  0.1043930E+01  0.7957747E-01            NaN
         13   -1    0    0    0    0  0.00000000000E+00  0.00000000000E+00  0.74505805969E-08  0.10566000000E+00  0.10566000000E+00 0.  1.
     999900   -1    0    0    0    0 -0.00000000000E+00 -0.00000000000E+00 -0.74505805969E-08  0.93827000000E+00  0.93827000000E+00 0.  1.
     999902    2    1    2    0    0 -0.54620693251E-02 -0.27793581987E-01 -0.50718114179E-02  0.10151543041E+01  0.10147463824E+01 0.  0.
     999903    2    3    3    0    0  0.83637073656E-02 -0.10227104179E+00  0.74393172835E-01  0.12833260400E+00  0.20139401567E-01 0.  0.
         14    1    1    2    0    0  0.54620693251E-02  0.27793581987E-01  0.50718114179E-02  0.28775695857E-01  0.00000000000E+00 0. -1.
     999901    1    3    3    0    0 -0.13825776691E-01  0.74477459804E-01 -0.79464984252E-01  0.88682170014E+00  0.88000000000E+00 0.  1.
        -11    1    4    4    0    0  0.75739705560E-02 -0.90113793389E-01  0.56339931464E-01  0.10654721858E+00  0.51100000000E-03 0.  1.
         11    1    4    4    0    0  0.78973680966E-03 -0.12157248402E-01  0.18053241371E-01  0.21785385421E-01  0.51100000000E-03 0. -1.
</event>
<event>
 8    1  0.1063984E+005  0.1043930E+01  0.7957747E-01            NaN
         13   -1    0    0    0    0  0.00000000000E+00  0.00000000000E+00  0.74505805969E-08  0.10566000000E+00  0.10566000000E+00 0. -1.
     999900   -1    0    0    0    0 -0.00000000000E+00 -0.00000000000E+00 -0.74505805969E-08  0.93827000000E+00  0.93827000000E+00 0.  1.
     999902    2    1    2    0    0 -0.35935067548E-02  0.36541336021E-02 -0.23790762636E-01  0.10195934766E+01  0.10193029928E+01 0.  0.
     999903    2    3    3    0    0  0.10479046932E+00  0.73134132257E-01  0.73714268157E-02  0.12968020077E+00  0.20807997946E-01 0.  0.
         14    1    1    2    0    0  0.35935067548E-02 -0.36541336021E-02  0.23790762636E-01  0.24336523375E-01  0.00000000000E+00 0. -1.
     999901    1    3    3    0    0 -0.10838397607E+00 -0.69479998655E-01 -0.31162189452E-01  0.88991327585E+00  0.88000000000E+00 0.  1.
        -11    1    4    4    0    0  0.40492008923E-01  0.34793325009E-01  0.11827926144E-01  0.54683994090E-01  0.51100000000E-03 0. -1.
         11    1    4    4    0    0  0.64298460397E-01  0.38340807248E-01 -0.44564993287E-02  0.74996206685E-01  0.51100000000E-03 0.  1.
</event>
<event>
 8    1  0.1063984E+005  0.1043930E+01  0.7957747E-01            NaN
         13   -1    0    0    0    0  0.00000000000E+00  0.00000000000E+00  0.74505805969E-08  0.10566000000E+00  0.10566000000E+00 0.  1.
     999900   -1    0    0    0    0 -0.00000000000E+00 -0.00000000000E+00 -0.74505805969E-08  0.93827000000E+00  0.93827000000E+00 0.  1.
     999902    2    1    2    0    0  0.72277052577E-02  0.16015910372E-01 -0.38282673714E-02  0.10259465426E+01  0.10257889176E+01 0.  0.
     999903    2    3    3    0    0 -0.11421118667E+00 -0.64767494312E-01 -0.11811917699E-01  0.13390556732E+00  0.23498001570E-01 0.  0.
         14    1    1    2    0    0 -0.72277052577E-02 -0.16015910372E-01  0.38282673714E-02  0.17983457382E-01  0.00000000000E+00 0.  1.
     999901    1    3    3    0    0  0.12143889193E+00  0.80783404684E-01  0.79836503271E-02  0.89204097530E+00  0.88000000000E+00 0. -1.
        -11    1    4    4    0    0 -0.10717955056E+00 -0.64895500611E-01 -0.14954772654E-01  0.12618553168E+00  0.51100000000E-03 0. -1.
         11    1    4    4    0    0 -0.70316361100E-02  0.12800629954E-03  0.31428549551E-02  0.77200356389E-02  0.51100000000E-03 0.  1.
</event>
<event>
 8    1  0.1063984E+005  0.1043930E+01  0.7957747E-01            NaN
         13   -1    0    0    0    0  0.00000000000E+00  0.00000000000E+00  0.74505805969E-08  0.10566000000E+00  0.10566000000E+00 0. -1.
     999900   -1    0    0    0    0 -0.00000000000E+00 -0.00000000000E+00 -0.74505805969E-08  0.93827000000E+00  0.93827000000E+00 0.  1.
     999902    2    1    2    0    0  0.13056916533E-01 -0.13704026148E-01  0.14384795855E-01  0.10201559437E+01  0.10198788868E+01 0.  0.
     999903    2    3    3    0    0  0.12609423050E+00  0.16079288293E-01 -0.26532991030E-01  0.13148348127E+00  0.20630263106E-01 0.  0.
         14    1    1    2    0    0 -0.13056916533E-01  0.13704026148E-01 -0.14384795855E-01  0.23774056318E-01  0.00000000000E+00 0. -1.
     999901    1    3    3    0    0 -0.11303731397E+00 -0.29783314441E-01  0.40917786885E-01  0.88867246241E+00  0.88000000000E+00 0.  1.
        -11    1    4    4    0    0  0.90265871735E-01  0.60951595674E-02 -0.26544387514E-01  0.94286500623E-01  0.51100000000E-03 0.  1.
         11    1    4    4    0    0  0.35828358766E-01  0.99841287252E-02  0.11396483198E-04  0.37196980646E-01  0.51100000000E-03 0. -1.
</event>
<event>
 8    1  0.1063984E+005  0.1043930E+01  0.7957747E-01            NaN
         13   -1    0    0    0    0  0.00000000000E+00  0.00000000000E+00  0.74505805969E-08  0.10566000000E+00  0.10566000000E+00 0. -1.
     999900   -1    0    0    0    0 -0.00000000000E+00 -0.00000000000E+00 -0.74505805969E-08  0.93827000000E+00  0.93827000000E+00 0.  1.
     999902    2    1    2    0    0  0.21947565330E-02 -0.21202188885E-02 -0.23091228859E-01  0.10206380028E+01  0.10203721946E+01 0.  0.
     999903    2    3    3    0    0 -0.28681594123E-01  0.53898731630E-02  0.12336121108E+00  0.12796893326E+00  0.17503568417E-01 0.  0.
         14    1    1    2    0    0 -0.21947565330E-02  0.21202188885E-02  0.23091228859E-01  0.23291997222E-01  0.00000000000E+00 0. -1.
     999901    1    3    3    0    0  0.30876350656E-01 -0.75100920515E-02 -0.14645243993E+00  0.89266906952E+00  0.88000000000E+00 0.  1.
        -11    1    4    4    0    0 -0.16182856112E-02  0.66156885335E-02  0.29086278043E-01  0.29877397385E-01  0.51100000000E-03 0.  1.
         11    1    4    4    0    0 -0.27063308512E-01 -0.12258153706E-02  0.94274933033E-01  0.98091535875E-01  0.51100000000E-03 0. -1.
</event>
<event>
 8    1  0.1063984E+005  0.1043930E+01  0.7957747E-01            NaN
         13   -1    0    0    0    0  0.00000000000E+00  0.00000000000E+00  0.74505805969E-08  0.10566000000E+00  0.10566000000E+00 0.  1.
     999900   -1    0    0    0    0 -0.00000000000E+00 -0.00000000000E+00 -0.74505805969E-08  0.93827000000E+00  0.93827000000E+00 0. -1.
     999902    2    1    2    0    0 -0.17495369250E-01  0.72722234218E-03 -0.16249938545E-01  0.10200411469E+01  0.10197613761E+01 0.  0.
     999903    2    3    3    0    0 -0.13080563365E+00  0.55448052536E-02 -0.78389333625E-02  0.13272318244E+00  0.20325737882E-01 0.  0.
         14    1    1    2    0    0  0.17495369250E-01 -0.72722234218E-03  0.16249938545E-01  0.23888853054E-01  0.00000000000E+00 0.  1.
     999901    1    3    3    0    0  0.11331026440E+00 -0.48175829114E-02 -0.84110051828E-02  0.88731796450E+00  0.88000000000E+00 0.  1.
        -11    1    4    4    0    0 -0.45179974736E-01  0.10072140580E-01  0.24768366626E-02  0.46358105805E-01  0.51100000000E-03 0. -1.
         11    1    4    4    0    0 -0.85625658917E-01 -0.45273353266E-02 -0.10315770025E-01  0.86365076636E-01  0.51100000000E-03 0.  1.
</event>
<event>
 8    1  0.1063984E+005  0.1043930E+01  0.7957747E-01            NaN
         13   -1    0    0    0    0  0.00000000000E+00  0.00000000000E+00  0.74505805969E-08  0.10566000000E+00  0.10566000000E+00 0.  1.
     999900   -1    0    0    0    0 -0.00000000000E+00 -0.00000000000E+00 -0.74505805969E-08  0.93827000000E+00  0.93827000000E+00 0. -1.
     999902    2    1    2    0    0  0.29187241723E-01  0.45243947911E-02 -0.82829028996E-02  0.10132547378E+01  0.10127903001E+01 0.  0.
     999903    2    3    3    0    0 -0.72797855392E-01  0.75697954977E-01 -0.60917889885E-01  0.12295306001E+00  0.19410242678E-01 0.  0.
         14    1    1    2    0    0 -0.29187241723E-01 -0.45243947911E-02  0.82829028996E-02  0.30675262152E-01  0.00000000000E+00 0.  1.
     999901    1    3    3    0    0  0.10198509712E+00 -0.71173560186E-01  0.52634986986E-01  0.89030167784E+00  0.88000000000E+00 0.  1.
        -11    1    4    4    0    0 -0.32851708228E-01  0.29350893039E-01 -0.15322872387E-01  0.46645055417E-01  0.51100000000E-03 0.  1.
         11    1    4    4    0    0 -0.39946147164E-01  0.46347061938E-01 -0.45595017498E-01  0.76308004595E-01  0.51100000000E-03 0. -1.
</event>
<event>
 8    1  0.1063984E+005  0.1043930E+01  0.7957747E-01            NaN
         13   -1    0    0    0    0  0.00000000000E+00  0.00000000000E+00  0.74505805969E-08  0.10566000000E+00  0.10566000000E+00 0. -1.
     999900   -1    0    0    0    0 -0.00000000000E+00 -0.00000000000E+00 -0.74505805969E-08  0.93827000000E+00  0.93827000000E+00 0. -1.
     999902    2    1    2    0    0 -0.19309923148E-01 -0.39177961466E-02  0.11152067367E-01  0.10212895304E+01  0.10210385468E+01 0.  0.
     999903    2    3    3    0    0 -0.52733708818E-01 -0.21468041307E-01 -0.11684952065E+00  0.13122797795E+00  0.18034713111E-01 0.  0.
         14    1    1    2    0    0  0.19309923148E-01  0.39177961466E-02 -0.11152067367E-01  0.22640469632E-01  0.00000000000E+00 0.  1.
     999901    1    3    3    0    0  0.33423785671E-01  0.17550245161E-01  0.12800158802E+00  0.89006155242E+00  0.88000000000E+00 0.  1.
        -11    1    4    4    0    0 -0.35410528777E-01 -0.22458936450E-01 -0.75131921236E-01  0.86042873524E-01  0.51100000000E-03 0.  1.
         11    1    4    4    0    0 -0.17323180042E-01  0.99089514268E-03 -0.41717599418E-01  0.45185104428E-01  0.51100000000E-03 0. -1.
</event>
<event>
 8    1  0.1063984E+005  0.1043930E+01  0.7957747E-01            NaN
         13   -1    0    0    0    0  0.00000000000E+00  0.00000000000E+00  0.74505805969E-08  0.10566000000E+00  0.10566000000E+00 0.  1.
     999900   -1    0    0    0    0 -0.00000000000E+00 -0.00000000000E+00 -0.74505805969E-08  0.93827000000E+00  0.93827000000E+00 0.  1.
     999902    2    1    2    0    0  0.21141141946E-01 -0.10163612221E-01  0.43534583938E-02  0.10200720978E+01  0.10197930600E+01 0.  0.
     999903    2    3    3    0    0  0.58355480702E-01 -0.10664503218E+00  0.49728782772E-01  0.13285595084E+00  0.19980661207E-01 0.  0.
         14    1    1    2    0    0 -0.21141141946E-01  0.10163612221E-01 -0.43534583938E-02  0.23857902174E-01  0.00000000000E+00 0. -1.
     999901    1    3    3    0    0 -0.37214338756E-01  0.96481419956E-01 -0.45375324379E-01  0.88721614698E+00  0.88000000000E+00 0.  1.
        -11    1    4    4    0    0  0.13756868087E-01 -0.19299187498E-01  0.18038790618E-01  0.29788741927E-01  0.51100000000E-03 0. -1.
         11    1    4    4    0    0  0.44598612614E-01 -0.87345844679E-01  0.31689992155E-01  0.10306720892E+00  0.51100000000E-03 0.  1.
</event>
<event>
 8    1  0.1063984E+005  0.1043930E+01  0.7957747E-01            NaN
         13   -1    0    0    0    0  0.00000000000E+00  0.00000000000E+00  0.74505805969E-08  0.10566000000E+00  0.10566000000E+00 0. -1.
     999900   -1    0    0    0    0 -0.00000000000E+00 -0.00000000000E+00 -0.74505805969E-08  0.93827000000E+00  0.93827000000E+00 0.  1.
     999902    2    1    2    0    0  0.25651843404E-01  0.35958254817E-02  0.11461415150E-01  0.10156049039E+01  0.10152098353E+01 0.  0.
     999903    2    3    3    0    0  0.37119638968E-01 -0.63479718529E-02  0.12149345494E+00  0.12862269484E+00  0.19104284623E-01 0.  0.
         14    1    1    2    0    0 -0.25651843404E-01 -0.35958254817E-02 -0.11461415150E-01  0.28325096084E-01  0.00000000000E+00 0.  1.
     999901    1    3    3    0    0 -0.11467795565E-01  0.99437973346E-02 -0.11003203979E+00  0.88698220908E+00  0.88000000000E+00 0.  1.
        -11    1    4    4    0    0  0.18846227703E-01 -0.99494002442E-02  0.43606807232E-01  0.48538496287E-01  0.51100000000E-03 0.  1.
         11    1    4    4    0    0  0.18273411265E-01  0.36014283914E-02  0.77886647706E-01  0.80084198552E-01  0.51100000000E-03 0. -1.
</event>
<event>
 8    1  0.1063984E+005  0.1043930E+01  0.7957747E-01            NaN
         13   -1    0    0    0    0  0.00000000000E+00  0.00000000000E+00  0.74505805969E-08  0.10566000000E+00  0.10566000000E+00 0.  1.
     999900   -1    0    0    0    0 -0.00000000000E+00 -0.00000000000E+00 -0.74505805969E-08  0.93827000000E+00  0.93827000000E+00 0. -1.
     999902    2    1    2    0    0  0.17072841151E-01  0.34585916944E-02 -0.16119215109E-01  0.10201966299E+01  0.10199205316E+01 0.  0.
     999903    2    3    3    0    0  0.40609844988E-01 -0.44083414661E-01 -0.11694712998E+00  0.13285199484E+00  0.19506777368E-01 0.  0.
         14    1    1    2    0    0 -0.17072841151E-01 -0.34585916944E-02  0.16119215109E-01  0.23733370119E-01  0.00000000000E+00 0.  1.
     999901    1    3    3    0    0 -0.23537003838E-01  0.47542006356E-01  0.10082791487E+00  0.88734463504E+00  0.88000000000E+00 0.  1.
        -11    1    4    4    0    0  0.85674573793E-02 -0.12489430866E-02 -0.25165462441E-01  0.26618091698E-01  0.51100000000E-03 0. -1.
         11    1    4    4    0    0  0.32042387609E-01 -0.42834471575E-01 -0.91781667543E-01  0.10623390314E+00  0.51100000000E-03 0.  1.
</event>
<event>
 8    1  0.1063984E+005  0.1043930E+01  0.7957747E-01            NaN
         13   -1    0    0    0    0  0.00000000000E+00  0.00000000000E+00  0.74505805969E-08  0.10566000000E+00  0.10566000000E+00 0.  1.
     999900   -1    0    0    0    0 -0.00000000000E+00 -0.00000000000E+00 -0.74505805969E-08  0.93827000000E+00  0.93827000000E+00 0. -1.
     999902    2    1    2    0    0  0.45989504110E-02  0.11112426695E-01  0.12669445721E-01  0.10264614217E+01  0.10263127686E+01 0.  0.
     999903    2    3    3    0    0  0.48017230845E-01 -0.12318993894E+00 -0.17320398362E-01  0.13470940281E+00  0.19110507426E-01 0.  0.
         14    1    1    2    0    0 -0.45989504110E-02 -0.11112426695E-01 -0.12669445721E-01  0.17468578271E-01  0.00000000000E+00 0. -1.
     999901    1    3    3    0    0 -0.43418280434E-01  0.13430236563E+00  0.29989844083E-01  0.89175201891E+00  0.88000000000E+00 0. -1.
        -11    1    4    4    0    0  0.12847031983E-01 -0.18279866788E-01 -0.77187302247E-02  0.23644019917E-01  0.51100000000E-03 0.  1.
         11    1    4    4    0    0  0.35170198863E-01 -0.10491007215E+00 -0.96016681376E-02  0.11106538290E+00  0.51100000000E-03 0. -1.
</event>
<event>
 8    1  0.1063984E+005  0.1043930E+01  0.7957747E-01            NaN
         13   -1    0    0    0    0  0.00000000000E+00  0.00000000000E+00  0.74505805969E-08  0.10566000000E+00  0.10566000000E+00 0. -1.
     999900   -1    0    0    0    0 -0.00000000000E+00 -0.00000000000E+00 -0.74505805969E-08  0.93827000000E+00  0.93827000000E+00 0.  1.
     999902    2    1    2    0    0  0.20933594822E-01  0.76558759124E-02  0.73882633274E-02  0.10204477884E+01  0.10201775701E+01 0.  0.
     999903    2    3    3    0    0  0.11245238123E+00 -0.64060836817E-01  0.97611908076E-02  0.13279661480E+00  0.28112829807E-01 0.  0.
         14    1    1    2    0    0 -0.20933594822E-01 -0.76558759124E-02 -0.73882633274E-02  0.23482211632E-01  0.00000000000E+00 0.  1.
     999901    1    3    3    0    0 -0.91518786403E-01  0.71716712729E-01 -0.23729274802E-02  0.88765117357E+00  0.88000000000E+00 0.  1.
        -11    1    4    4    0    0  0.81539492749E-01 -0.47757814077E-01 -0.55012955071E-02  0.94657398318E-01  0.51100000000E-03 0. -1.
         11    1    4    4    0    0  0.30912888476E-01 -0.16303022741E-01  0.15262486315E-01  0.38139216483E-01  0.51100000000E-03 0.  1.
</event>
<event>
 8    1  0.1063984E+005  0.1043930E+01  0.7957747E-01            NaN
         13   -1    0    0    0    0  0.00000000000E+00  0.00000000000E+00  0.74505805969E-08  0.10566000000E+00  0.10566000000E+00 0.  1.
     999900   -1    0    0    0    0 -0.00000000000E+00 -0.00000000000E+00 -0.74505805969E-08  0.93827000000E+00  0.93827000000E+00 0.  1.
     999902    2    1    2    0    0 -0.14777345198E-01  0.14714500554E-01 -0.12273797701E-01  0.10197322198E+01  0.10194450782E+01 0.  0.
     999903    2    3    3    0    0  0.47484677903E-01  0.95972776815E-01 -0.73561043467E-01  0.13168064837E+00  0.21517377042E-01 0.  0.
         14    1    1    2    0    0  0.14777345198E-01 -0.14714500554E-01  0.12273797701E-01  0.24197780222E-01  0.00000000000E+00 0.  1.
     999901    1    3    3    0    0 -0.62262023101E-01 -0.81258276261E-01  0.61287245766E-01  0.88805157141E+00  0.88000000000E+00 0. -1.
        -11    1    4    4    0    0  0.25204428782E-01  0.28228779133E-01 -0.23518695595E-01  0.44559144572E-01  0.51100000000E-03 0.  1.
         11    1    4    4    0    0  0.22280249121E-01  0.67743997682E-01 -0.50042347872E-01  0.87121503801E-01  0.51100000000E-03 0. -1.
</event>
<event>
 8    1  0.1063984E+005  0.1043930E+01  0.7957747E-01            NaN
         13   -1    0    0    0    0  0.00000000000E+00  0.00000000000E+00  0.74505805969E-08  0.10566000000E+00  0.10566000000E+00 0.  1.
     999900   -1    0    0    0    0 -0.00000000000E+00 -0.00000000000E+00 -0.74505805969E-08  0.93827000000E+00  0.93827000000E+00 0. -1.
     999902    2    1    2    0    0  0.18309115031E-01  0.10253389026E-01  0.14351803988E-03  0.10229448558E+01  0.10227295839E+01 0.  0.
     999903    2    3    3    0    0 -0.12366720543E+00  0.41447687970E-02  0.37526068629E-01  0.13076099252E+00  0.19480106033E-01 0.  0.
         14    1    1    2    0    0 -0.18309115031E-01 -0.10253389026E-01 -0.14351803988E-03  0.20985144202E-01  0.00000000000E+00 0.  1.
     999901    1    3    3    0    0  0.14197632046E+00  0.61086202290E-02 -0.37382550589E-01  0.89218386328E+00  0.88000000000E+00 0. -1.
        -11    1    4    4    0    0 -0.75468187182E-01 -0.59915915840E-02  0.18315571112E-01  0.77891384070E-01  0.51100000000E-03 0. -1.
         11    1    4    4    0    0 -0.48199018243E-01  0.10136360381E-01  0.19210497517E-01  0.52869608446E-01  0.51100000000E-03 0.  1.
</event>
<event>
 8    1  0.1063984E+005  0.1043930E+01  0.7957747E-01            NaN
         13   -1    0    0    0    0  0.00000000000E+00  0.00000000000E+00  0.74505805969E-08  0.10566000000E+00  0.10566000000E+00 0.  1.
     999900   -1    0    0    0    0 -0.00000000000E+00 -0.00000000000E+00 -0.74505805969E-08  0.93827000000E+00  0.93827000000E+00 0. -1.
     999902    2    1    2    0    0 -0.22524706693E-01 -0.76138742975E-02  0.45978693531E-02  0.10197127769E+01  0.10194251681E+01 0.  0.
     999903    2    3    3    0    0 -0.72931080336E-01 -0.86385582003E-01  0.66100731495E-01  0.13262293560E+00  0.20931437736E-01 0.  0.
         14    1    1    2    0    0  0.22524706693E-01  0.76138742975E-02 -0.45978693531E-02  0.24217223128E-01  0.00000000000E+00 0.  1.
     999901    1    3    3    0    0  0.50406373643E-01  0.78771707705E-01 -0.61502862142E-01  0.88708984127E+00  0.88000000000E+00 0. -1.
        -11    1    4    4    0    0 -0.12758916189E-01 -0.96430193927E-02  0.17326514160E-01  0.23584888790E-01  0.51100000000E-03 0. -1.
         11    1    4    4    0    0 -0.60172164148E-01 -0.76742562610E-01  0.48774217335E-01  0.10903804681E+00  0.51100000000E-03 0.  1.
</event>
<event>
 8    1  0.1063984E+005  0.1043930E+01  0.7957747E-01            NaN
         13   -1    0    0    0    0  0.00000000000E+00  0.00000000000E+00  0.74505805969E-08  0.10566000000E+00  0.10566000000E+00 0.  1.
     999900   -1    0    0    0    0 -0.00000000000E+00 -0.00000000000E+00 -0.74505805969E-08  0.93827000000E+00  0.93827000000E+00 0.  1.
     999902    2    1    2    0    0 -0.16881686810E-01  0.50822266817E-02  0.16058345074E-01  0.10200827607E+01  0.10198039752E+01 0.  0.
     999903    2    3    3    0    0  0.10776735038E+00  0.19806714920E-01 -0.62489743279E-01  0.12771288488E+00  0.19987625796E-01 0.  0.
         14    1    1    2    0    0  0.16881686810E-01 -0.50822266817E-02 -0.16058345074E-01  0.23847239339E-01  0.00000000000E+00 0.  1.
     999901    1    3    3    0    0 -0.12464903719E+00 -0.14724488239E-01  0.78548088352E-01  0.89236987579E+00  0.88000000000E+00 0. -1.
        -11    1    4    4    0    0  0.70762386805E-01  0.15043228323E-01 -0.30305175698E-01  0.78436464096E-01  0.51100000000E-03 0. -1.
         11    1    4    4    0    0  0.37004963572E-01  0.47634865977E-02 -0.32184567581E-01  0.49276420780E-01  0.51100000000E-03 0.  1.
</event>
<event>
 8    1  0.1063984E+005  0.1043930E+01  0.7957747E-01            NaN
         13   -1    0    0    0    0  0.00000000000E+00  0.00000000000E+00  0.74505805969E-08  0.10566000000E+00  0.10566000000E+00 0.  1.
     999900   -1    0    0    0    0 -0.00000000000E+00 -0.00000000000E+00 -0.74505805969E-08  0.93827000000E+00  0.93827000000E+00 0. -1.
     999902    2    1    2    0    0  0.18388516965E-01 -0.15041851999E-01 -0.41943848283E-02  0.10198055781E+01  0.10195201957E+01 0.  0.
     999903    2    3    3    0    0 -0.97190548485E-01 -0.82871941914E-01  0.85523365788E-02  0.12956857574E+00  0.20027777901E-01 0.  0.
         14    1    1    2    0    0 -0.18388516965E-01  0.15041851999E-01  0.41943848283E-02  0.24124421896E-01  0.00000000000E+00 0.  1.
     999901    1    3    3    0    0  0.11557906545E+00  0.67830089915E-01 -0.12746721407E-01  0.89023700236E+00  0.88000000000E+00 0. -1.
        -11    1    4    4    0    0 -0.73295408066E-01 -0.65221275978E-01 -0.17272495181E-02  0.98128875443E-01  0.51100000000E-03 0. -1.
         11    1    4    4    0    0 -0.23895140419E-01 -0.17650665935E-01  0.10279586097E-01  0.31439700299E-01  0.51100000000E-03 0.  1.
</event>
<event>
 8    1  0.1063984E+005  0.1043930E+01  0.7957747E-01            NaN
         13   -1    0    0    0    0  0.00000000000E+00  0.00000000000E+00  0.74505805969E-08  0.10566000000E+00  0.10566000000E+00 0.  1.
     999900   -1    0    0    0    0 -0.00000000000E+00 -0.00000000000E+00 -0.74505805969E-08  0.93827000000E+00  0.93827000000E+00 0.  1.
     999902    2    1    2    0    0  0.15267587776E-01 -0.18287321869E-02  0.19553465500E-01  0.10190546807E+01  0.10187510298E+01 0.  0.
     999903    2    3    3    0    0  0.12411038960E+00  0.98703203294E-04  0.40552439368E-01  0.13209840926E+00  0.20052202887E-01 0.  0.
         14    1    1    2    0    0 -0.15267587776E-01  0.18287321869E-02 -0.19553465500E-01  0.24875319314E-01  0.00000000000E+00 0. -1.
     999901    1    3    3    0    0 -0.10884280183E+00 -0.19274353902E-02 -0.20998973868E-01  0.88695627143E+00  0.88000000000E+00 0.  1.
        -11    1    4    4    0    0  0.11453187728E+00 -0.43703226899E-03  0.31238241355E-01  0.11871744082E+00  0.51100000000E-03 0. -1.
         11    1    4    4    0    0  0.95785123221E-02  0.53573547228E-03  0.93141980123E-02  0.13380968441E-01  0.51100000000E-03 0.  1.
</event>
<event>
 8    1  0.1063984E+005  0.1043930E+01  0.7957747E-01            NaN
         13   -1    0    0    0    0  0.00000000000E+00  0.00000000000E+00  0.74505805969E-08  0.10566000000E+00  0.10566000000E+00 0. -1.
     999900   -1    0    0    0    0 -0.00000000000E+00 -0.00000000000E+00 -0.74505805969E-08  0.93827000000E+00  0.93827000000E+00 0. -1.
     999902    2    1    2    0    0  0.91477502584E-03 -0.24881115828E-01  0.25444671669E-02  0.10189023942E+01  0.10185949675E+01 0.  0.
     999903    2    3    3    0    0 -0.16269198463E-01 -0.12055089464E+00  0.48453561539E-01  0.13236100180E+00  0.19351541351E-01 0.  0.
         14    1    1    2    0    0 -0.91477502584E-03  0.24881115828E-01 -0.25444671669E-02  0.25027605786E-01  0.00000000000E+00 0. -1.
     999901    1    3    3    0    0  0.17183973488E-01  0.95669778815E-01 -0.45909094372E-01  0.88654139242E+00  0.88000000000E+00 0. -1.
        -11    1    4    4    0    0 -0.13769212164E-01 -0.10901015322E+00  0.37099971610E-01  0.11597186608E+00  0.51100000000E-03 0.  1.
         11    1    4    4    0    0 -0.24999862985E-02 -0.11540741425E-01  0.11353589930E-01  0.16389135713E-01  0.51100000000E-03 0. -1.
</event>
<event>
 8    1  0.1063984E+005  0.1043930E+01  0.7957747E-01            NaN
         13   -1    0    0    0    0  0.00000000000E+00  0.00000000000E+00  0.74505805969E-08  0.10566000000E+00  0.10566000000E+00 0. -1.
     999900   -1    0    0    0    0 -0.00000000000E+00 -0.00000000000E+00 -0.74505805969E-08  0.93827000000E+00  0.93827000000E+00 0.  1.
     999902    2    1    2    0    0 -0.44997368415E-02 -0.14624335049E-01 -0.18189499211E-01  0.10201607617E+01  0.10198838184E+01 0.  0.
     999903    2    3    3    0    0  0.72629934412E-01  0.10169231359E+00 -0.25183691617E-01  0.12913468596E+00  0.20618311756E-01 0.  0.
         14    1    1    2    0    0  0.44997368415E-02  0.14624335049E-01  0.18189499211E-01  0.23769238289E-01  0.00000000000E+00 0.  1.
     999901    1    3    3    0    0 -0.77129671254E-01 -0.11631664864E+00  0.69941924057E-02  0.89102607575E+00  0.88000000000E+00 0. -1.
        -11    1    4    4    0    0  0.34149666948E-01  0.41853314776E-01 -0.20692152715E-01  0.57847437414E-01  0.51100000000E-03 0. -1.
         11    1    4    4    0    0  0.38480267464E-01  0.59838998811E-01 -0.44915389019E-02  0.71287248548E-01  0.51100000000E-03 0.  1.
</event>
<event>
 8    1  0.1063984E+005  0.1043930E+01  0.7957747E-01            NaN
         13   -1    0    0    0    0  0.00000000000E+00  0.00000000000E+00  0.74505805969E-08  0.10566000000E+00  0.10566000000E+00 0.  1.
     999900   -1    0    0    0    0 -0.00000000000E+00 -0.00000000000E+00 -0.74505805969E-08  0.93827000000E+00  0.93827000000E+00 0. -1.
     999902    2    1    2    0    0 -0.17238031467E-01 -0.15348218554E-01 -0.57776427803E-02  0.10201371713E+01  0.10198596715E+01 0.  0.
     999903    2    3    3    0    0 -0.76616734614E-01  0.10205905457E+00 -0.16533273973E-01  0.13029112744E+00  0.20402306210E-01 0.  0.
         14    1    1    2    0    0  0.17238031467E-01  0.15348218554E-01  0.57776427803E-02  0.23792828704E-01  0.00000000000E+00 0.  1.
     999901    1    3    3    0    0  0.59378703147E-01 -0.11740727312E+00  0.10755631193E-01  0.88984604386E+00  0.88000000000E+00 0. -1.
        -11    1    4    4    0    0 -0.47115135607E-01  0.75729501176E-01 -0.16721929988E-01  0.90745123369E-01  0.51100000000E-03 0. -1.
         11    1    4    4    0    0 -0.29501599007E-01  0.26329553390E-01  0.18865601504E-03  0.39546004068E-01  0.51100000000E-03 0.  1.
</event>
<event>
 8    1  0.1063984E+005  0.1043930E+01  0.7957747E-01            NaN
         13   -1    0    0    0    0  0.00000000000E+00  0.00000000000E+00  0.74505805969E-08  0.10566000000E+00  0.10566000000E+00 0.  1.
     999900   -1    0    0    0    0 -0.00000000000E+00 -0.00000000000E+00 -0.74505805969E-08  0.93827000000E+00  0.93827000000E+00 0.  1.
     999902    2    1    2    0    0 -0.16427547060E-01  0.75878527433E-02 -0.15684092683E-01  0.10199835895E+01  0.10197024528E+01 0.  0.
     999903    2    3    3    0    0  0.27248446204E-01 -0.91910702446E-01  0.82352866278E-01  0.12789682233E+00  0.19635364351E-01 0.  0.
         14    1    1    2    0    0  0.16427547060E-01 -0.75878527433E-02  0.15684092683E-01  0.23946410481E-01  0.00000000000E+00 0.  1.
     999901    1    3    3    0    0 -0.43675993264E-01  0.99498555189E-01 -0.98036958960E-01  0.89208676719E+00  0.88000000000E+00 0.  1.
        -11    1    4    4    0    0  0.10538723417E-01 -0.31010891368E-01  0.40701293550E-01  0.52245540406E-01  0.51100000000E-03 0.  1.
         11    1    4    4    0    0  0.16709722787E-01 -0.60899811078E-01  0.41651572728E-01  0.75651281923E-01  0.51100000000E-03 0. -1.
</event>
<event>
 8    1  0.1063984E+005  0.1043930E+01  0.7957747E-01            NaN
         13   -1    0    0    0    0  0.00000000000E+00  0.00000000000E+00  0.74505805969E-08  0.10566000000E+00  0.10566000000E+00 0. -1.
     999900   -1    0    0    0    0 -0.00000000000E+00 -0.00000000000E+00 -0.74505805969E-08  0.93827000000E+00  0.93827000000E+00 0.  1.
     999902    2    1    2    0    0 -0.20087744263E-01  0.89535075176E-04 -0.11977093434E-01  0.10205424765E+01  0.10202744583E+01 0.  0.
     999903    2    3    3    0    0  0.18218003422E-01  0.12641998125E+00 -0.19235133492E-01  0.13066642277E+00  0.19743767911E-01 0.  0.
         14    1    1    2    0    0  0.20087744263E-01 -0.89535075176E-04  0.11977093434E-01  0.23387523452E-01  0.00000000000E+00 0.  1.
     999901    1    3    3    0    0 -0.38305747684E-01 -0.12633044618E+00  0.72580400582E-02  0.88987605378E+00  0.88000000000E+00 0.  1.
        -11    1    4    4    0    0  0.51445699393E-02  0.45468489987E-01  0.25101216616E-02  0.45830252163E-01  0.51100000000E-03 0. -1.
         11    1    4    4    0    0  0.13073433483E-01  0.80951491266E-01 -0.21745255154E-01  0.84836170610E-01  0.51100000000E-03 0.  1.
</event>
<event>
 8    1  0.1063984E+005  0.1043930E+01  0.7957747E-01            NaN
         13   -1    0    0    0    0  0.00000000000E+00  0.00000000000E+00  0.74505805969E-08  0.10566000000E+00  0.10566000000E+00 0. -1.
     999900   -1    0    0    0    0 -0.00000000000E+00 -0.00000000000E+00 -0.74505805969E-08  0.93827000000E+00  0.93827000000E+00 0.  1.
     999902    2    1    2    0    0 -0.21592909734E-01 -0.25199346763E-02  0.13287289584E-01  0.10184514622E+01  0.10181327149E+01 0.  0.
     999903    2    3    3    0    0  0.66806441469E-01 -0.64790868229E-01 -0.83446338966E-01  0.12657170054E+00  0.19903433421E-01 0.  0.
         14    1    1    2    0    0  0.21592909734E-01  0.25199346763E-02 -0.13287289584E-01  0.25478537753E-01  0.00000000000E+00 0.  1.
     999901    1    3    3    0    0 -0.88399351203E-01  0.62270933553E-01  0.96733628549E-01  0.89187976171E+00  0.88000000000E+00 0.  1.
        -11    1    4    4    0    0  0.58349217147E-01 -0.47989039686E-01 -0.72966215232E-01  0.10503289369E+00  0.51100000000E-03 0. -1.
         11    1    4    4    0    0  0.84572243221E-02 -0.16801828544E-01 -0.10480123734E-01  0.21538806841E-01  0.51100000000E-03 0.  1.
</event>
<event>
 8    1  0.1063984E+005  0.1043930E+01  0.7957747E-01            NaN
         13   -1    0    0    0    0  0.00000000000E+00  0.00000000000E+00  0.74505805969E-08  0.10566000000E+00  0.10566000000E+00 0. -1.
     999900   -1    0    0    0    0 -0.00000000000E+00 -0.00000000000E+00 -0.74505805969E-08  0.93827000000E+00  0.93827000000E+00 0.  1.
     999902    2    1    2    0    0 -0.15859327069E-01 -0.13444927954E-01  0.13063217416E-01  0.10193753265E+01  0.10190795475E+01 0.  0.
     999903    2    3    3    0    0 -0.80306797434E-01 -0.73245809464E-01 -0.71885167835E-01  0.13092394906E+00  0.12628252665E-01 0.  0.
         14    1    1    2    0    0  0.15859327069E-01  0.13444927954E-01 -0.13063217416E-01  0.24554673527E-01  0.00000000000E+00 0. -1.
     999901    1    3    3    0    0  0.64447470365E-01  0.59800881511E-01  0.84948385251E-01  0.88845137741E+00  0.88000000000E+00 0. -1.
        -11    1    4    4    0    0 -0.57960499659E-01 -0.46459916983E-01 -0.44708464781E-01  0.86700930508E-01  0.51100000000E-03 0. -1.
         11    1    4    4    0    0 -0.22346297775E-01 -0.26785892481E-01 -0.27176703054E-01  0.44223018555E-01  0.51100000000E-03 0.  1.
</event>
<event>
 8    1  0.1063984E+005  0.1043930E+01  0.7957747E-01            NaN
         13   -1    0    0    0    0  0.00000000000E+00  0.00000000000E+00  0.74505805969E-08  0.10566000000E+00  0.10566000000E+00 0. -1.
     999900   -1    0    0    0    0 -0.00000000000E+00 -0.00000000000E+00 -0.74505805969E-08  0.93827000000E+00  0.93827000000E+00 0.  1.
     999902    2    1    2    0    0 -0.63361346635E-02  0.10560837537E-02  0.23750661533E-01  0.10193260199E+01  0.10190290373E+01 0.  0.
     999903    2    3    3    0    0 -0.12043603833E-02  0.12582345556E-01 -0.12455347927E+00  0.12682766804E+00  0.20295868547E-01 0.  0.
         14    1    1    2    0    0  0.63361346635E-02 -0.10560837537E-02 -0.23750661533E-01  0.24603980138E-01  0.00000000000E+00 0.  1.
     999901    1    3    3    0    0 -0.51317742802E-02 -0.11526261802E-01  0.14830414080E+00  0.89249835182E+00  0.88000000000E+00 0. -1.
        -11    1    4    4    0    0 -0.10391777424E-01  0.41149112015E-02 -0.67387166727E-01  0.68309683740E-01  0.51100000000E-03 0.  1.
         11    1    4    4    0    0  0.91874170403E-02  0.84674343542E-02 -0.57166312542E-01  0.58517984304E-01  0.51100000000E-03 0. -1.
</event>
<event>
 8    1  0.1063984E+005  0.1043930E+01  0.7957747E-01            NaN
         13   -1    0    0    0    0  0.00000000000E+00  0.00000000000E+00  0.74505805969E-08  0.10566000000E+00  0.10566000000E+00 0. -1.
     999900   -1    0    0    0    0 -0.00000000000E+00 -0.00000000000E+00 -0.74505805969E-08  0.93827000000E+00  0.93827000000E+00 0.  1.
     999902    2    1    2    0    0 -0.22322768252E-01 -0.18680132022E-02  0.53741787566E-02  0.10208935668E+01  0.10206336255E+01 0.  0.
     999903    2    3    3    0    0  0.10528582957E+00  0.53896228900E-01 -0.45896886377E-01  0.12846859685E+00  0.20192741247E-01 0.  0.
         14    1    1    2    0    0  0.22322768252E-01  0.18680132022E-02 -0.53741787566E-02  0.23036433167E-01  0.00000000000E+00 0.  1.
     999901    1    3    3    0    0 -0.12760859782E+00 -0.55764242102E-01  0.51271065133E-01  0.89242496999E+00  0.88000000000E+00 0. -1.
        -11    1    4    4    0    0  0.78688690840E-01  0.39093172141E-01 -0.24369672557E-01  0.91182938292E-01  0.51100000000E-03 0.  1.
         11    1    4    4    0    0  0.26597138729E-01  0.14803056760E-01 -0.21527213820E-01  0.37285658554E-01  0.51100000000E-03 0. -1.
</event>
<event>
 8    1  0.1063984E+005  0.1043930E+01  0.7957747E-01            NaN
         13   -1    0    0    0    0  0.00000000000E+00  0.00000000000E+00  0.74505805969E-08  0.10566000000E+00  0.10566000000E+00 0.  1.
     999900   -1    0    0    0    0 -0.00000000000E+00 -0.00000000000E+00 -0.74505805969E-08  0.93827000000E+00  0.93827000000E+00 0. -1.
     999902    2    1    2    0    0  0.19007314638E-02 -0.23981645385E-01  0.98074904161E-03  0.10198531654E+01  0.10195689212E+01 0.  0.
     999903    2    3    3    0    0  0.77728511461E-01 -0.84729766500E-01 -0.62378262508E-01  0.13224145368E+00  0.19388130754E-01 0.  0.
         14    1    1    2    0    0 -0.19007314638E-02  0.23981645385E-01 -0.98074904161E-03  0.24076834595E-01  0.00000000000E+00 0. -1.
     999901    1    3    3    0    0 -0.75827779997E-01  0.60748121115E-01  0.63359011549E-01  0.88761171172E+00  0.88000000000E+00 0.  1.
        -11    1    4    4    0    0  0.72905302843E-01 -0.71299533928E-01 -0.51201102635E-01  0.11410793466E+00  0.51100000000E-03 0. -1.
         11    1    4    4    0    0  0.48232086184E-02 -0.13430232572E-01 -0.11177159873E-01  0.18133519022E-01  0.51100000000E-03 0.  1.
</event>
<event>
 8    1  0.1063984E+005  0.1043930E+01  0.7957747E-01            NaN
         13   -1    0    0    0    0  0.00000000000E+00  0.00000000000E+00  0.74505805969E-08  0.10566000000E+00  0.10566000000E+00 0. -1.
     999900   -1    0    0    0    0 -0.00000000000E+00 -0.00000000000E+00 -0.74505805969E-08  0.93827000000E+00  0.93827000000E+00 0. -1.
     999902    2    1    2    0    0  0.23466539642E-01  0.22247149132E-02  0.10246805526E-02  0.10203359794E+01  0.10200631515E+01 0.  0.
     999903    2    3    3    0    0  0.25555386182E-01  0.22918180852E-01 -0.12499656097E+00  0.13111500789E+00  0.19715077062E-01 0.  0.
         14    1    1    2    0    0 -0.23466539642E-01 -0.22247149132E-02 -0.10246805526E-02  0.23594020629E-01  0.00000000000E+00 0. -1.
     999901    1    3    3    0    0 -0.20888465398E-02 -0.20693465939E-01  0.12602124152E+00  0.88922097148E+00  0.88000000000E+00 0.  1.
        -11    1    4    4    0    0  0.96520337321E-02  0.24593584602E-02 -0.64984290787E-01  0.65745185141E-01  0.51100000000E-03 0. -1.
         11    1    4    4    0    0  0.15903352450E-01  0.20458822392E-01 -0.60012270179E-01  0.65369822746E-01  0.51100000000E-03 0.  1.
</event>
<event>
 8    1  0.1063984E+005  0.1043930E+01  0.7957747E-01            NaN
         13   -1    0    0    0    0  0.00000000000E+00  0.00000000000E+00  0.74505805969E-08  0.10566000000E+00  0.10566000000E+00 0. -1.
     999900   -1    0    0    0    0 -0.00000000000E+00 -0.00000000000E+00 -0.74505805969E-08  0.93827000000E+00  0.93827000000E+00 0. -1.
     999902    2    1    2    0    0  0.87524752914E-02  0.21790962646E-02 -0.21750640413E-01  0.10203833518E+01  0.10201116311E+01 0.  0.
     999903    2    3    3    0    0  0.50411465810E-01 -0.41825920098E-02 -0.12204569018E+00  0.13368439521E+00  0.20434213204E-01 0.  0.
         14    1    1    2    0    0 -0.87524752914E-02 -0.21790962646E-02  0.21750640413E-01  0.23546648225E-01  0.00000000000E+00 0. -1.
     999901    1    3    3    0    0 -0.41658990519E-01  0.63616882745E-02  0.10029504977E+00  0.88669895657E+00  0.88000000000E+00 0.  1.
        -11    1    4    4    0    0  0.21856285460E-01 -0.49748025279E-03 -0.78417796529E-01  0.81409806744E-01  0.51100000000E-03 0. -1.
         11    1    4    4    0    0  0.28555180350E-01 -0.36851117570E-02 -0.43627893653E-01  0.52274588464E-01  0.51100000000E-03 0.  1.
</event>
<event>
 8    1  0.1063984E+005  0.1043930E+01  0.7957747E-01            NaN
         13   -1    0    0    0    0  0.00000000000E+00  0.00000000000E+00  0.74505805969E-08  0.10566000000E+00  0.10566000000E+00 0. -1.
     999900   -1    0    0    0    0 -0.00000000000E+00 -0.00000000000E+00 -0.74505805969E-08  0.93827000000E+00  0.93827000000E+00 0.  1.
     999902    2    1    2    0    0  0.69699192996E-02  0.11943574201E-02 -0.23336228915E-01  0.10195458690E+01  0.10192542338E+01 0.  0.
     999903    2    3    3    0    0  0.62479981463E-01 -0.68020033737E-01 -0.92787567080E-01  0.13236184789E+00  0.19484688805E-01 0.  0.
         14    1    1    2    0    0 -0.69699192996E-02 -0.11943574201E-02  0.23336228915E-01  0.24384131001E-01  0.00000000000E+00 0. -1.
     999901    1    3    3    0    0 -0.55510062164E-01  0.69214391157E-01  0.69451338165E-01  0.88718402111E+00  0.88000000000E+00 0. -1.
        -11    1    4    4    0    0  0.33622722756E-01 -0.38977169864E-01 -0.64831044351E-01  0.82783045902E-01  0.51100000000E-03 0. -1.
         11    1    4    4    0    0  0.28857258708E-01 -0.29042863874E-01 -0.27956522729E-01  0.49578801985E-01  0.51100000000E-03 0.  1.
</event>
<event>
 8    1  0.1063984E+005  0.1043930E+01  0.7957747E-01            NaN
         13   -1    0    0    0    0  0.00000000000E+00  0.00000000000E+00  0.74505805969E-08  0.10566000000E+00  0.10566000000E+00 0.  1.
     999900   -1    0    0    0    0 -0.00000000000E+00 -0.00000000000E+00 -0.74505805969E-08  0.93827000000E+00  0.93827000000E+00 0.  1.
     999902    2    1    2    0    0  0.15214899862E-01  0.80161547709E-02 -0.16659334804E-01  0.10199866220E+01  0.10197055573E+01 0.  0.
     999903    2    3    3    0    0  0.12525191369E+00 -0.15202597994E-02  0.34626515813E-01  0.13160082398E+00  0.20722649475E-01 0.  0.
         14    1    1    2    0    0 -0.15214899862E-01 -0.80161547709E-02  0.16659334804E-01  0.23943378025E-01  0.00000000000E+00 0.  1.
     999901    1    3    3    0    0 -0.11003701383E+00  0.95364145704E-02 -0.51285850617E-01  0.88838579800E+00  0.88000000000E+00 0.  1.
        -11    1    4    4    0    0  0.74266228142E-01 -0.11063783165E-01  0.20076759504E-01  0.77725268308E-01  0.51100000000E-03 0. -1.
         11    1    4    4    0    0  0.50985685545E-01  0.95435233653E-02  0.14549756309E-01  0.53875555667E-01  0.51100000000E-03 0.  1.
</event>
<event>
 8    1  0.1063984E+005  0.1043930E+01  0.7957747E-01            NaN
         13   -1    0    0    0    0  0.00000000000E+00  0.00000000000E+00  0.74505805969E-08  0.10566000000E+00  0.10566000000E+00 0.  1.
     999900   -1    0    0    0    0 -0.00000000000E+00 -0.00000000000E+00 -0.74505805969E-08  0.93827000000E+00  0.93827000000E+00 0. -1.
     999902    2    1    2    0    0  0.17202223060E-02 -0.64846212203E-02  0.22667386482E-01  0.10202906285E+01  0.10200167384E+01 0.  0.
     999903    2    3    3    0    0  0.38737727673E-01  0.27944465842E-01  0.12270320967E+00  0.13318137720E+00  0.19992419904E-01 0.  0.
         14    1    1    2    0    0 -0.17202223060E-02  0.64846212203E-02 -0.22667386482E-01  0.23639371546E-01  0.00000000000E+00 0. -1.
     999901    1    3    3    0    0 -0.37017505367E-01 -0.34429087063E-01 -0.10003582319E+00  0.88710925125E+00  0.88000000000E+00 0. -1.
        -11    1    4    4    0    0  0.36600079458E-01  0.18373608317E-01  0.87100757606E-01  0.96249459196E-01  0.51100000000E-03 0. -1.
         11    1    4    4    0    0  0.21376482149E-02  0.95708575252E-02  0.35602452062E-01  0.36931918005E-01  0.51100000000E-03 0.  1.
</event>
<event>
 8    1  0.1063984E+005  0.1043930E+01  0.7957747E-01            NaN
         13   -1    0    0    0    0  0.00000000000E+00  0.00000000000E+00  0.74505805969E-08  0.10566000000E+00  0.10566000000E+00 0.  1.
     999900   -1    0    0    0    0 -0.00000000000E+00 -0.00000000000E+00 -0.74505805969E-08  0.93827000000E+00  0.93827000000E+00 0.  1.
     999902    2    1    2    0    0 -0.17476836260E-01 -0.15586938757E-01  0.61343447873E-02  0.10197220953E+01  0.10194347105E+01 0.  0.
     999903    2    3    3    0    0 -0.11770578862E+00  0.29156255648E-02 -0.55495275830E-01  0.13169822289E+00  0.20038531049E-01 0.  0.
         14    1    1    2    0    0  0.17476836260E-01  0.15586938757E-01 -0.61343447873E-02  0.24207904731E-01  0.00000000000E+00 0. -1.
     999901    1    3    3    0    0  0.10022895236E+00 -0.18502564322E-01  0.61629620617E-01  0.88802387238E+00  0.88000000000E+00 0. -1.
        -11    1    4    4    0    0 -0.23955877755E-01 -0.72551180019E-02 -0.94970479948E-02  0.26776404871E-01  0.51100000000E-03 0.  1.
         11    1    4    4    0    0 -0.93749910863E-01  0.10170743567E-01 -0.45998227835E-01  0.10492181802E+00  0.51100000000E-03 0. -1.
</event>
<event>
 8    1  0.1063984E+005  0.1043930E+01  0.7957747E-01            NaN
         13   -1    0    0    0    0  0.00000000000E+00  0.00000000000E+00  0.74505805969E-08  0.10566000000E+00  0.10566000000E+00 0.  1.
     999900   -1    0    0    0    0 -0.00000000000E+00 -0.00000000000E+00 -0.74505805969E-08  0.93827000000E+00  0.93827000000E+00 0. -1.
     999902    2    1    2    0    0  0.82418258211E-02 -0.52308669645E-02  0.17807894755E-01  0.10236221006E+01  0.10234206340E+01 0.  0.
     999903    2    3    3    0    0  0.19649198085E-01  0.20178390167E-01  0.13145376291E+00  0.13587712493E+00  0.19729239269E-01 0.  0.
         14    1    1    2    0    0 -0.82418258211E-02  0.52308669645E-02 -0.17807894755E-01  0.20307899391E-01  0.00000000000E+00 0. -1.
     999901    1    3    3    0    0 -0.11407372263E-01 -0.25409257131E-01 -0.11364586815E+00  0.88774497568E+00  0.88000000000E+00 0. -1.
        -11    1    4    4    0    0  0.18867863450E-01  0.97904776051E-02  0.59788254417E-01  0.63456648274E-01  0.51100000000E-03 0. -1.
         11    1    4    4    0    0  0.78133463475E-03  0.10387912562E-01  0.71665508491E-01  0.72420476659E-01  0.51100000000E-03 0.  1.
</event>
<event>
 8    1  0.1063984E+005  0.1043930E+01  0.7957747E-01            NaN
         13   -1    0    0    0    0  0.00000000000E+00  0.00000000000E+00  0.74505805969E-08  0.10566000000E+00  0.10566000000E+00 0. -1.
     999900   -1    0    0    0    0 -0.00000000000E+00 -0.00000000000E+00 -0.74505805969E-08  0.93827000000E+00  0.93827000000E+00 0.  1.
     999902    2    1    2    0    0 -0.75627424720E-03 -0.22545690768E-01  0.69095910691E-02  0.10203371500E+01  0.10200643495E+01 0.  0.
     999903    2    3    3    0    0 -0.25592925096E-02  0.12607319536E+00  0.43051274839E-02  0.12787000358E+00  0.20765431057E-01 0.  0.
         14    1    1    2    0    0  0.75627424720E-03  0.22545690768E-01 -0.69095910691E-02  0.23592850012E-01  0.00000000000E+00 0.  1.
     999901    1    3    3    0    0  0.18030182624E-02 -0.14861888613E+00  0.26044635853E-02  0.89246714641E+00  0.88000000000E+00 0. -1.
        -11    1    4    4    0    0 -0.72557410069E-02  0.41706512600E-01 -0.59462411750E-02  0.42751583315E-01  0.51100000000E-03 0. -1.
         11    1    4    4    0    0  0.46964484974E-02  0.84366682757E-01  0.10251368659E-01  0.85118420264E-01  0.51100000000E-03 0.  1.
</event>
<event>
 8    1  0.1063984E+005  0.1043930E+01  0.7957747E-01            NaN
         13   -1    0    0    0    0  0.00000000000E+00  0.00000000000E+00  0.74505805969E-08  0.10566000000E+00  0.10566000000E+00 0.  1.
     999900   -1    0    0    0    0 -0.00000000000E+00 -0.00000000000E+00 -0.74505805969E-08  0.93827000000E+00  0.93827000000E+00 0. -1.
     999902    2    1    2    0    0 -0.50191082715E-02  0.21895503564E-01 -0.10197994921E-01  0.10192601069E+01  0.10189615115E+01 0.  0.
     999903    2    3    3    0    0 -0.34144055388E-01  0.91254934454E-02 -0.12525532689E+00  0.13120069149E+00  0.16602210201E-01 0.  0.
         14    1    1    2    0    0  0.50191082715E-02 -0.21895503564E-01  0.10197994921E-01  0.24669893080E-01  0.00000000000E+00 0.  1.
     999901    1    3    3    0    0  0.29124947117E-01  0.12770010119E-01  0.11505733197E+00  0.88805941543E+00  0.88000000000E+00 0.  1.
        -11    1    4    4    0    0 -0.32063796215E-01  0.12955383435E-01 -0.11352043208E+00  0.11867214757E+00  0.51100000000E-03 0.  1.
         11    1    4    4    0    0 -0.20802591736E-02 -0.38298899893E-02 -0.11734894807E-01  0.12528543918E-01  0.51100000000E-03 0. -1.
</event>
<event>
 8    1  0.1063984E+005  0.1043930E+01  0.7957747E-01            NaN
         13   -1    0    0    0    0  0.00000000000E+00  0.00000000000E+00  0.74505805969E-08  0.10566000000E+00  0.10566000000E+00 0.  1.
     999900   -1    0    0    0    0 -0.00000000000E+00 -0.00000000000E+00 -0.74505805969E-08  0.93827000000E+00  0.93827000000E+00 0. -1.
     999902    2    1    2    0    0 -0.88479979133E-02 -0.69238394568E-03  0.23157716179E-01  0.10191298734E+01  0.10188280780E+01 0.  0.
     999903    2    3    3    0    0  0.81131886970E-01 -0.47226347504E-01  0.88527553997E-01  0.13090974009E+00  0.22079883443E-01 0.  0.
         14    1    1    2    0    0  0.88479979133E-02  0.69238394568E-03 -0.23157716179E-01  0.24800126637E-01  0.00000000000E+00 0. -1.
     999901    1    3    3    0    0 -0.89979884884E-01  0.46533963559E-01 -0.65369837818E-01  0.88822013327E+00  0.88000000000E+00 0. -1.
        -11    1    4    4    0    0  0.41125548621E-01 -0.36183252329E-01  0.46701969837E-01  0.71985231862E-01  0.51100000000E-03 0.  1.
         11    1    4    4    0    0  0.40006338349E-01 -0.11043095176E-01  0.41825584159E-01  0.58924508232E-01  0.51100000000E-03 0. -1.
</event>
<event>
 8    1  0.1106127E+005  0.1043930E+01  0.7957747E-01            NaN
         13   -1    0    0    0    0  0.00000000000E+00  0.00000000000E+00  0.74505805969E-08  0.10566000000E+00  0.10566000000E+00 0. -1.
     999900   -1    0    0    0    0 -0.00000000000E+00 -0.00000000000E+00 -0.74505805969E-08  0.93827000000E+00  0.93827000000E+00 0. -1.
     999902    2    1    2    0    0 -0.16823432569E-01 -0.62563490178E-03  0.16981174442E-01  0.10200180869E+01  0.10197377692E+01 0.  0.
     999903    2    3    3    0    0  0.30909861685E-01  0.13853947948E-01 -0.12266505665E+00  0.12761167973E+00  0.95222506792E-02 0.  0.
         14    1    1    2    0    0  0.16823432569E-01  0.62563490178E-03 -0.16981174442E-01  0.23911913095E-01  0.00000000000E+00 0.  1.
     999901    1    3    3    0    0 -0.47733294254E-01 -0.14479582850E-01  0.13964623109E+00  0.89240640717E+00  0.88000000000E+00 0.  1.
        -11    1    4    4    0    0  0.85718788419E-02  0.28273245614E-02 -0.49540075232E-01  0.50358227194E-01  0.51100000000E-03 0. -1.
         11    1    4    4    0    0  0.22337982843E-01  0.11026623387E-01 -0.73124981420E-01  0.77253452541E-01  0.51100000000E-03 0.  1.
</event>
<event>
 8    1  0.1063984E+005  0.1043930E+01  0.7957747E-01            NaN
         13   -1    0    0    0    0  0.00000000000E+00  0.00000000000E+00  0.74505805969E-08  0.10566000000E+00  0.10566000000E+00 0. -1.
     999900   -1    0    0    0    0 -0.00000000000E+00 -0.00000000000E+00 -0.74505805969E-08  0.93827000000E+00  0.93827000000E+00 0. -1.
     999902    2    1    2    0    0  0.78966697146E-03  0.35084506031E-02 -0.23888905440E-01  0.10197719247E+01  0.10194857359E+01 0.  0.
     999903    2    3    3    0    0  0.11600380918E+00 -0.43498449190E-01  0.31344634001E-01  0.12930312059E+00  0.19692945161E-01 0.  0.
         14    1    1    2    0    0 -0.78966697146E-03 -0.35084506031E-02  0.23888905440E-01  0.24158075310E-01  0.00000000000E+00 0. -1.
     999901    1    3    3    0    0 -0.11521414220E+00  0.47006899793E-01 -0.55233539441E-01  0.89046880410E+00  0.88000000000E+00 0.  1.
        -11    1    4    4    0    0  0.51871583078E-01 -0.13929949887E-01  0.50663146494E-02  0.53950285448E-01  0.51100000000E-03 0.  1.
         11    1    4    4    0    0  0.64132226098E-01 -0.29568499303E-01  0.26278319352E-01  0.75352835144E-01  0.51100000000E-03 0. -1.
</event>
<event>
 8    1  0.1063984E+005  0.1043930E+01  0.7957747E-01            NaN
         13   -1    0    0    0    0  0.00000000000E+00  0.00000000000E+00  0.74505805969E-08  0.10566000000E+00  0.10566000000E+00 0. -1.
     999900   -1    0    0    0    0 -0.00000000000E+00 -0.00000000000E+00 -0.74505805969E-08  0.93827000000E+00  0.93827000000E+00 0. -1.
     999902    2    1    2    0    0 -0.24406117407E-04  0.14772639853E-01  0.19255031413E-01  0.10196609308E+01  0.10193720744E+01 0.  0.
     999903    2    3    3    0    0  0.10458101067E-01  0.89563202150E-01  0.95341496130E-01  0.13315505872E+00  0.22568334471E-01 0.  0.
         14    1    1    2    0    0  0.24406117407E-04 -0.14772639853E-01 -0.19255031413E-01  0.24269069175E-01  0.00000000000E+00 0.  1.
     999901    1    3    3    0    0 -0.10482507184E-01 -0.74790562297E-01 -0.76086464716E-01  0.88650587211E+00  0.88000000000E+00 0. -1.
        -11    1    4    4    0    0  0.12594449150E-01  0.58124538667E-01  0.48730208522E-01  0.76889378254E-01  0.51100000000E-03 0. -1.
         11    1    4    4    0    0 -0.21363480831E-02  0.31438663483E-01  0.46611287608E-01  0.56265680465E-01  0.51100000000E-03 0.  1.
</event>
<event>
 8    1  0.1063984E+005  0.1043930E+01  0.7957747E-01            NaN
         13   -1    0    0    0    0  0.00000000000E+00  0.00000000000E+00  0.74505805969E-08  0.10566000000E+00  0.10566000000E+00 0. -1.
     999900   -1    0    0    0    0 -0.00000000000E+00 -0.00000000000E+00 -0.74505805969E-08  0.93827000000E+00  0.93827000000E+00 0. -1.
     999902    2    1    2    0    0 -0.18714390857E-01 -0.11692565358E-02 -0.14029561982E-01  0.10205115416E+01  0.10202428055E+01 0.  0.
     999903    2    3    3    0    0 -0.12567078245E+00 -0.28552246976E-01  0.24859280307E-01  0.13276054048E+00  0.19975007433E-01 0.  0.
         14    1    1    2    0    0  0.18714390857E-01  0.11692565358E-02  0.14029561982E-01  0.23418458434E-01  0.00000000000E+00 0. -1.
     999901    1    3    3    0    0  0.10695639160E+00  0.27382990440E-01 -0.38888842288E-01  0.88775100108E+00  0.88000000000E+00 0. -1.
        -11    1    4    4    0    0 -0.41535906573E-01 -0.17460190848E-01  0.14116135189E-01  0.47218811855E-01  0.51100000000E-03 0.  1.
         11    1    4    4    0    0 -0.84134875882E-01 -0.11092056128E-01  0.10743145117E-01  0.85541728629E-01  0.51100000000E-03 0. -1.
</event>
<event>
 8    1  0.1063984E+005  0.1043930E+01  0.7957747E-01            NaN
         13   -1    0    0    0    0  0.00000000000E+00  0.00000000000E+00  0.74505805969E-08  0.10566000000E+00  0.10566000000E+00 0.  1.
     999900   -1    0    0    0    0 -0.00000000000E+00 -0.00000000000E+00 -0.74505805969E-08  0.93827000000E+00  0.93827000000E+00 0. -1.
     999902    2    1    2    0    0 -0.21059800826E-02  0.20346658015E-01 -0.10189106337E-01  0.10210774393E+01  0.10208216776E+01 0.  0.
     999903    2    3    3    0    0  0.23981119579E-01 -0.66187028478E-01  0.10601120131E+00  0.12884925815E+00  0.20197516880E-01 0.  0.
         14    1    1    2    0    0  0.21059800826E-02 -0.20346658015E-01  0.10189106337E-01  0.22852560741E-01  0.00000000000E+00 0.  1.
     999901    1    3    3    0    0 -0.26087099662E-01  0.86533686493E-01 -0.11620030765E+00  0.89222818111E+00  0.88000000000E+00 0. -1.
        -11    1    4    4    0    0  0.26215440070E-01 -0.51843747392E-01  0.77577991616E-01  0.96920737440E-01  0.51100000000E-03 0. -1.
         11    1    4    4    0    0 -0.22343204909E-02 -0.14343281086E-01  0.28433209692E-01  0.31928520711E-01  0.51100000000E-03 0.  1.
</event>
<event>
 8    1  0.1063984E+005  0.1043930E+01  0.7957747E-01            NaN
         13   -1    0    0    0    0  0.00000000000E+00  0.00000000000E+00  0.74505805969E-08  0.10566000000E+00  0.10566000000E+00 0.  1.
     999900   -1    0    0    0    0 -0.00000000000E+00 -0.00000000000E+00 -0.74505805969E-08  0.93827000000E+00  0.93827000000E+00 0. -1.
     999902    2    1    2    0    0 -0.22084968162E-01  0.96085348283E-02 -0.26536709141E-02  0.10196996114E+01  0.10194116861E+01 0.  0.
     999903    2    3    3    0    0 -0.52353342270E-01 -0.11633129221E+00 -0.10573746163E-01  0.13018303369E+00  0.23706036336E-01 0.  0.
         14    1    1    2    0    0  0.22084968162E-01 -0.96085348283E-02  0.26536709141E-02  0.24230388556E-01  0.00000000000E+00 0.  1.
     999901    1    3    3    0    0  0.30268374109E-01  0.12593982704E+00  0.79200752491E-02  0.88951657775E+00  0.88000000000E+00 0.  1.
        -11    1    4    4    0    0 -0.29240080697E-01 -0.83875808955E-01 -0.15017060180E-01  0.90088328126E-01  0.51100000000E-03 0. -1.
         11    1    4    4    0    0 -0.23113261573E-01 -0.32455483256E-01  0.44433140171E-02  0.40094705565E-01  0.51100000000E-03 0.  1.
</event>
<event>
 8    1  0.1063984E+005  0.1043930E+01  0.7957747E-01            NaN
         13   -1    0    0    0    0  0.00000000000E+00  0.00000000000E+00  0.74505805969E-08  0.10566000000E+00  0.10566000000E+00 0. -1.
     999900   -1    0    0    0    0 -0.00000000000E+00 -0.00000000000E+00 -0.74505805969E-08  0.93827000000E+00  0.93827000000E+00 0. -1.
     999902    2    1    2    0    0 -0.11685661320E-01  0.20412475591E-01  0.58498567222E-02  0.10196927422E+01  0.10194046517E+01 0.  0.
     999903    2    3    3    0    0  0.58796769669E-01  0.58148471058E-01 -0.98381685038E-01  0.12994221949E+00  0.19176017440E-01 0.  0.
         14    1    1    2    0    0  0.11685661320E-01 -0.20412475591E-01 -0.58498567222E-02  0.24237257764E-01  0.00000000000E+00 0.  1.
     999901    1    3    3    0    0 -0.70482430989E-01 -0.37735995468E-01  0.10423154176E+00  0.88975052275E+00  0.88000000000E+00 0.  1.
        -11    1    4    4    0    0  0.83095271033E-02  0.48903115661E-02 -0.41612844977E-02  0.10513838384E-01  0.51100000000E-03 0.  1.
         11    1    4    4    0    0  0.50487242566E-01  0.53258159492E-01 -0.94220400540E-01  0.11942838110E+00  0.51100000000E-03 0. -1.
</event>
<event>
 8    1  0.1063984E+005  0.1043930E+01  0.7957747E-01            NaN
         13   -1    0    0    0    0  0.00000000000E+00  0.00000000000E+00  0.74505805969E-08  0.10566000000E+00  0.10566000000E+00 0.  1.
     999900   -1    0    0    0    0 -0.00000000000E+00 -0.00000000000E+00 -0.74505805969E-08  0.93827000000E+00  0.93827000000E+00 0.  1.
     999902    2    1    2    0    0 -0.10226170105E-01  0.87914318507E-02  0.18979684912E-01  0.10206471250E+01  0.10203815274E+01 0.  0.
     999903    2    3    3    0    0  0.26665973967E-01 -0.11414816983E+00  0.53761762665E-01  0.13065556948E+00  0.20968353978E-01 0.  0.
         14    1    1    2    0    0  0.10226170105E-01 -0.87914318507E-02 -0.18979684912E-01  0.23282875002E-01  0.00000000000E+00 0. -1.
     999901    1    3    3    0    0 -0.36892144072E-01  0.12293960168E+00 -0.34782077754E-01  0.88999155552E+00  0.88000000000E+00 0. -1.
        -11    1    4    4    0    0  0.24041493318E-01 -0.65534893955E-01  0.25244138552E-01  0.74231687162E-01  0.51100000000E-03 0. -1.
         11    1    4    4    0    0  0.26244806490E-02 -0.48613275876E-01  0.28517624113E-01  0.56423882321E-01  0.51100000000E-03 0.  1.
</event>
<event>
 7    1  0.1063984E+005  0.1043930E+01  0.7957747E-01            NaN
         13   -1    0    0    0    0  0.00000000000E+00  0.00000000000E+00  0.74505805969E-08  0.10566000000E+00  0.10566000000E+00 0. -1.
     999900   -1    0    0    0    0 -0.00000000000E+00 -0.00000000000E+00 -0.74505805969E-08  0.93827000000E+00  0.93827000000E+00 0.  1.
     999902    2    1    2    0    0  0.38934885327E-03  0.12195761142E-01 -0.20634702879E-01  0.10199575336E+01  0.10196757775E+01 0.  0.
         14    1    1    2    0    0 -0.38934885327E-03 -0.12195761142E-01  0.20634702879E-01  0.23972466400E-01  0.00000000000E+00 0. -1.
     999901    1    3    3    0    0 -0.75311297446E-01 -0.49296993925E-01 -0.75823520309E-01  0.88783511497E+00  0.88000000000E+00 0.  1.
        -11    1    3    3    0    0  0.79778356320E-01  0.25578271729E-01  0.35879571034E-01  0.91139666778E-01  0.51100000000E-03 0. -1.
         11    1    3    3    0    0 -0.40777100213E-02  0.35914483338E-01  0.19309246396E-01  0.40982751857E-01  0.51100000000E-03 0.  1.
</event>
<event>
 8    1  0.1063984E+005  0.1043930E+01  0.7957747E-01            NaN
         13   -1    0    0    0    0  0.00000000000E+00  0.00000000000E+00  0.74505805969E-08  0.10566000000E+00  0.10566000000E+00 0.  1.
     999900   -1    0    0    0    0 -0.00000000000E+00 -0.00000000000E+00 -0.74505805969E-08  0.93827000000E+00  0.93827000000E+00 0. -1.
     999902    2    1    2    0    0 -0.10820328025E-01 -0.19685843165E-01  0.84834781225E-02  0.10199178922E+01  0.10196351924E+01 0.  0.
     999903    2    3    3    0    0 -0.12527869647E+00  0.13350246074E-01 -0.29989848002E-01  0.13105778053E+00  0.20094028826E-01 0.  0.
         14    1    1    2    0    0  0.10820328025E-01  0.19685843165E-01 -0.84834781225E-02  0.24012107794E-01  0.00000000000E+00 0. -1.
     999901    1    3    3    0    0  0.11445836845E+00 -0.33036089239E-01  0.38473326124E-01  0.88886011167E+00  0.88000000000E+00 0.  1.
        -11    1    4    4    0    0 -0.44192612614E-01 -0.45525787389E-02 -0.78626341858E-02  0.45119786348E-01  0.51100000000E-03 0. -1.
         11    1    4    4    0    0 -0.81086083861E-01  0.17902824813E-01 -0.22127213816E-01  0.85937994184E-01  0.51100000000E-03 0.  1.
</event>
<event>
 7    1  0.1063984E+005  0.1043930E+01  0.7957747E-01            NaN
         13   -1    0    0    0    0  0.00000000000E+00  0.00000000000E+00  0.74505805969E-08  0.10566000000E+00  0.10566000000E+00 0. -1.
     999900   -1    0    0    0    0 -0.00000000000E+00 -0.00000000000E+00 -0.74505805969E-08  0.93827000000E+00  0.93827000000E+00 0.  1.
     999903    2    1    2    0    0  0.92688562955E-01 -0.21463526124E-01  0.35104426922E-02  0.97212141580E-01  0.19647508906E-01 0.  0.
         14    1    1    2    0    0 -0.86212666445E-02  0.20882142491E-02  0.59593660587E-01  0.60250238668E-01  0.00000000000E+00 0. -1.
     999901    1    1    2    0    0 -0.84067296311E-01  0.19375311875E-01 -0.63104103280E-01  0.88646761975E+00  0.88000000000E+00 0.  1.
        -11    1    3    3    0    0  0.71859965206E-01 -0.12386592361E-01 -0.46390263334E-02  0.73068898692E-01  0.51100000000E-03 0. -1.
         11    1    3    3    0    0  0.20828597749E-01 -0.90769337629E-02  0.81494690256E-02  0.24143242888E-01  0.51100000000E-03 0.  1.
</event>
<event>
 8    1  0.1063984E+005  0.1043930E+01  0.7957747E-01            NaN
         13   -1    0    0    0    0  0.00000000000E+00  0.00000000000E+00  0.74505805969E-08  0.10566000000E+00  0.10566000000E+00 0. -1.
     999900   -1    0    0    0    0 -0.00000000000E+00 -0.00000000000E+00 -0.74505805969E-08  0.93827000000E+00  0.93827000000E+00 0. -1.
     999902    2    1    2    0    0 -0.22277509884E-02 -0.28681960623E-02 -0.23216813156E-01  0.10204308546E+01  0.10201602419E+01 0.  0.
     999903    2    3    3    0    0  0.10373263659E-01  0.34033004846E-01  0.12127963035E+00  0.12779447485E+00  0.18889919174E-01 0.  0.
         14    1    1    2    0    0  0.22277509884E-02  0.28681960623E-02  0.23216813156E-01  0.23499145436E-01  0.00000000000E+00 0. -1.
     999901    1    3    3    0    0 -0.12601014647E-01 -0.36901200908E-01 -0.14449644351E+00  0.89263637971E+00  0.88000000000E+00 0. -1.
        -11    1    4    4    0    0 -0.33337670189E-02  0.21069090236E-02  0.27466134248E-01  0.27752526366E-01  0.51100000000E-03 0.  1.
         11    1    4    4    0    0  0.13707030678E-01  0.31926095822E-01  0.93813496105E-01  0.10004194849E+00  0.51100000000E-03 0. -1.
</event>
<event>
 8    1  0.1063984E+005  0.1043930E+01  0.7957747E-01            NaN
         13   -1    0    0    0    0  0.00000000000E+00  0.00000000000E+00  0.74505805969E-08  0.10566000000E+00  0.10566000000E+00 0.  1.
     999900   -1    0    0    0    0 -0.00000000000E+00 -0.00000000000E+00 -0.74505805969E-08  0.93827000000E+00  0.93827000000E+00 0. -1.
     999902    2    1    2    0    0 -0.13254085571E-01  0.11404321275E-01 -0.18157298727E-01  0.10187225244E+01  0.10184106072E+01 0.  0.
     999903    2    3    3    0    0  0.11941975832E+00 -0.27823105615E-01  0.25678894940E-01  0.12683533887E+00  0.19813976335E-01 0.  0.
         14    1    1    2    0    0  0.13254085571E-01 -0.11404321275E-01  0.18157298727E-01  0.25207475581E-01  0.00000000000E+00 0.  1.
     999901    1    3    3    0    0 -0.13267384389E+00  0.39227426890E-01 -0.43836193668E-01  0.89188718555E+00  0.88000000000E+00 0. -1.
        -11    1    4    4    0    0  0.41911213216E-01 -0.18779038508E-01  0.13362805195E-01  0.47833333192E-01  0.51100000000E-03 0.  1.
         11    1    4    4    0    0  0.77508545101E-01 -0.90440671062E-02  0.12316089745E-01  0.79002005678E-01  0.51100000000E-03 0. -1.
</event>
<event>
 8    1  0.1063984E+005  0.1043930E+01  0.7957747E-01            NaN
         13   -1    0    0    0    0  0.00000000000E+00  0.00000000000E+00  0.74505805969E-08  0.10566000000E+00  0.10566000000E+00 0.  1.
     999900   -1    0    0    0    0 -0.00000000000E+00 -0.00000000000E+00 -0.74505805969E-08  0.93827000000E+00  0.93827000000E+00 0.  1.
     999902    2    1    2    0    0  0.26220695645E-01 -0.11655130894E-01  0.22806783493E-01  0.10072759916E+01  0.10066088649E+01 0.  0.
     999903    2    3    3    0    0 -0.67851644375E-01  0.57284246629E-02 -0.90428323487E-01  0.11487810805E+00  0.19571344558E-01 0.  0.
         14    1    1    2    0    0 -0.26220695645E-01  0.11655130894E-01 -0.22806783493E-01  0.36654008369E-01  0.00000000000E+00 0. -1.
     999901    1    3    3    0    0  0.94072340019E-01 -0.17383555557E-01  0.11323510698E+00  0.89239788358E+00  0.88000000000E+00 0. -1.
        -11    1    4    4    0    0 -0.62845618390E-01  0.46724075817E-02 -0.89786851695E-01  0.10969659521E+00  0.51100000000E-03 0. -1.
         11    1    4    4    0    0 -0.50060259846E-02  0.10560170812E-02 -0.64147179175E-03  0.51815128383E-02  0.51100000000E-03 0.  1.
</event>
<event>
 8    1  0.1063984E+005  0.1043930E+01  0.7957747E-01            NaN
         13   -1    0    0    0    0  0.00000000000E+00  0.00000000000E+00  0.74505805969E-08  0.10566000000E+00  0.10566000000E+00 0.  1.
     999900   -1    0    0    0    0 -0.00000000000E+00 -0.00000000000E+00 -0.74505805969E-08  0.93827000000E+00  0.93827000000E+00 0.  1.
     999902    2    1    2    0    0  0.85583786801E-03 -0.17062340108E-01 -0.16843564300E-01  0.10199391358E+01  0.10196569419E+01 0.  0.
     999903    2    3    3    0    0  0.92581170913E-01  0.86614295261E-02  0.87015839327E-01  0.12872534280E+00  0.18766033585E-01 0.  0.
         14    1    1    2    0    0 -0.85583786801E-03  0.17062340108E-01  0.16843564300E-01  0.23990864235E-01  0.00000000000E+00 0.  1.
     999901    1    3    3    0    0 -0.91725333045E-01 -0.25723769634E-01 -0.10385940363E+00  0.89121379296E+00  0.88000000000E+00 0.  1.
        -11    1    4    4    0    0  0.76374515228E-01  0.14276479760E-01  0.70976380448E-01  0.10523683838E+00  0.51100000000E-03 0. -1.
         11    1    4    4    0    0  0.16206655685E-01 -0.56150502336E-02  0.16039458879E-01  0.23488504417E-01  0.51100000000E-03 0.  1.
</event>
<event>
 8    1  0.1063984E+005  0.1043930E+01  0.7957747E-01            NaN
         13   -1    0    0    0    0  0.00000000000E+00  0.00000000000E+00  0.74505805969E-08  0.10566000000E+00  0.10566000000E+00 0. -1.
     999900   -1    0    0    0    0 -0.00000000000E+00 -0.00000000000E+00 -0.74505805969E-08  0.93827000000E+00  0.93827000000E+00 0.  1.
     999902    2    1    2    0    0  0.60309906837E-02 -0.83309092440E-02 -0.21789174992E-01  0.10198354976E+01  0.10195508311E+01 0.  0.
     999903    2    3    3    0    0 -0.15589481121E-01  0.78368674277E-01 -0.10262913180E+00  0.13162417075E+00  0.20186693682E-01 0.  0.
         14    1    1    2    0    0 -0.60309906837E-02  0.83309092440E-02  0.21789174992E-01  0.24094502367E-01  0.00000000000E+00 0. -1.
     999901    1    3    3    0    0  0.21620471804E-01 -0.86699583521E-01  0.80839956812E-01  0.88821132688E+00  0.88000000000E+00 0. -1.
        -11    1    4    4    0    0 -0.80754142099E-02  0.75775539485E-02 -0.16562035341E-01  0.19929720874E-01  0.51100000000E-03 0.  1.
         11    1    4    4    0    0 -0.75140669107E-02  0.70791120328E-01 -0.86067096463E-01  0.11169444988E+00  0.51100000000E-03 0. -1.
</event>
<event>
 8    1  0.1063984E+005  0.1043930E+01  0.7957747E-01            NaN
         13   -1    0    0    0    0  0.00000000000E+00  0.00000000000E+00  0.74505805969E-08  0.10566000000E+00  0.10566000000E+00 0.  1.
     999900   -1    0    0    0    0 -0.00000000000E+00 -0.00000000000E+00 -0.74505805969E-08  0.93827000000E+00  0.93827000000E+00 0. -1.
     999902    2    1    2    0    0 -0.21545392016E-01 -0.10814964786E-01 -0.39943943355E-02  0.10194939085E+01  0.10192010140E+01 0.  0.
     999903    2    3    3    0    0 -0.41612223177E-01  0.24008722326E-01  0.11930460517E+00  0.12998954644E+00  0.18859944405E-01 0.  0.
         14    1    1    2    0    0  0.21545392016E-01  0.10814964786E-01  0.39943943355E-02  0.24436091475E-01  0.00000000000E+00 0. -1.
     999901    1    3    3    0    0  0.20066831161E-01 -0.34823687112E-01 -0.12329899950E+00  0.88950436209E+00  0.88000000000E+00 0. -1.
        -11    1    4    4    0    0 -0.37199144393E-01  0.23865135158E-01  0.89109254075E-01  0.99468795622E-01  0.51100000000E-03 0.  1.
         11    1    4    4    0    0 -0.44130787835E-02  0.14358716785E-03  0.30195351093E-01  0.30520750814E-01  0.51100000000E-03 0. -1.
</event>
<event>
 8    1  0.1063984E+005  0.1043930E+01  0.7957747E-01            NaN
         13   -1    0    0    0    0  0.00000000000E+00  0.00000000000E+00  0.74505805969E-08  0.10566000000E+00  0.10566000000E+00 0. -1.
     999900   -1    0    0    0    0 -0.00000000000E+00 -0.00000000000E+00 -0.74505805969E-08  0.93827000000E+00  0.93827000000E+00 0.  1.
     999902    2    1    2    0    0 -0.12390529819E-01  0.73928113916E-02  0.19195377722E-01  0.10199166409E+01  0.10196339112E+01 0.  0.
     999903    2    3    3    0    0 -0.23270573037E-01 -0.90554330031E-01  0.89954156192E-01  0.13159303850E+00  0.21985706893E-01 0.  0.
         14    1    1    2    0    0  0.12390529819E-01 -0.73928113916E-02 -0.19195377722E-01  0.24013359102E-01  0.00000000000E+00 0.  1.
     999901    1    3    3    0    0  0.10880043218E-01  0.97947141422E-01 -0.70758778470E-01  0.88832360240E+00  0.88000000000E+00 0.  1.
        -11    1    4    4    0    0 -0.11927746931E-01 -0.57380489945E-01  0.41635237710E-01  0.71892599851E-01  0.51100000000E-03 0. -1.
         11    1    4    4    0    0 -0.11342826106E-01 -0.33173840085E-01  0.48318918482E-01  0.59700438645E-01  0.51100000000E-03 0.  1.
</event>
<event>
 8    1  0.1063984E+005  0.1043930E+01  0.7957747E-01            NaN
         13   -1    0    0    0    0  0.00000000000E+00  0.00000000000E+00  0.74505805969E-08  0.10566000000E+00  0.10566000000E+00 0. -1.
     999900   -1    0    0    0    0 -0.00000000000E+00 -0.00000000000E+00 -0.74505805969E-08  0.93827000000E+00  0.93827000000E+00 0. -1.
     999902    2    1    2    0    0 -0.11039170745E-01  0.11188886637E-01 -0.17859081634E-01  0.10201392188E+01  0.10198617673E+01 0.  0.
     999903    2    3    3    0    0 -0.68455906409E-01 -0.92997621859E-02  0.10729923470E+00  0.12919529774E+00  0.20139575239E-01 0.  0.
         14    1    1    2    0    0  0.11039170745E-01 -0.11188886637E-01  0.17859081634E-01  0.23790781234E-01  0.00000000000E+00 0. -1.
     999901    1    3    3    0    0  0.57416735664E-01  0.20488648823E-01 -0.12515831634E+00  0.89094392103E+00  0.88000000000E+00 0. -1.
        -11    1    4    4    0    0 -0.25721256378E-01 -0.12668092876E-01  0.49911216143E-01  0.57562611343E-01  0.51100000000E-03 0. -1.
         11    1    4    4    0    0 -0.42734650031E-01  0.33683306904E-02  0.57388018562E-01  0.71632686397E-01  0.51100000000E-03 0.  1.
</event>
<event>
 8    1  0.1063984E+005  0.1043930E+01  0.7957747E-01            NaN
         13   -1    0    0    0    0  0.00000000000E+00  0.00000000000E+00  0.74505805969E-08  0.10566000000E+00  0.10566000000E+00 0. -1.
     999900   -1    0    0    0    0 -0.00000000000E+00 -0.00000000000E+00 -0.74505805969E-08  0.93827000000E+00  0.93827000000E+00 0. -1.
     999902    2    1    2    0    0 -0.45954965338E-02  0.25172681252E-01  0.55654136383E-02  0.10177430510E+01  0.10174060947E+01 0.  0.
     999903    2    3    3    0    0 -0.48358867218E-01 -0.35311488837E-01  0.11168984668E+00  0.12822859763E+00  0.19556843198E-01 0.  0.
         14    1    1    2    0    0  0.45954965338E-02 -0.25172681252E-01 -0.55654136383E-02  0.26186949016E-01  0.00000000000E+00 0.  1.
     999901    1    3    3    0    0  0.43763370684E-01  0.60484170089E-01 -0.10612443304E+00  0.88951445336E+00  0.88000000000E+00 0. -1.
        -11    1    4    4    0    0 -0.18949633486E-01 -0.20988416801E-01  0.36073736666E-01  0.45838606514E-01  0.51100000000E-03 0. -1.
         11    1    4    4    0    0 -0.29409233732E-01 -0.14323072036E-01  0.75616110011E-01  0.82389991112E-01  0.51100000000E-03 0.  1.
</event>
<event>
 8    1  0.1063984E+005  0.1043930E+01  0.7957747E-01            NaN
         13   -1    0    0    0    0  0.00000000000E+00  0.00000000000E+00  0.74505805969E-08  0.10566000000E+00  0.10566000000E+00 0. -1.
     999900   -1    0    0    0    0 -0.00000000000E+00 -0.00000000000E+00 -0.74505805969E-08  0.93827000000E+00  0.93827000000E+00 0.  1.
     999902    2    1    2    0    0 -0.95703935984E-02  0.13799086595E-01 -0.16501375211E-01  0.10203863680E+01  0.10201147177E+01 0.  0.
     999903    2    3    3    0    0  0.20729559066E-01  0.11549149600E+00  0.55306204935E-01  0.13110814278E+00  0.19041232375E-01 0.  0.
         14    1    1    2    0    0  0.95703935984E-02 -0.13799086595E-01  0.16501375211E-01  0.23543632012E-01  0.00000000000E+00 0.  1.
     999901    1    3    3    0    0 -0.30299952664E-01 -0.10169240941E+00 -0.71807580146E-01  0.88927822521E+00  0.88000000000E+00 0.  1.
        -11    1    4    4    0    0 -0.57936048596E-03  0.38012801187E-01  0.23425271152E-01  0.44657733510E-01  0.51100000000E-03 0.  1.
         11    1    4    4    0    0  0.21308919552E-01  0.77478694817E-01  0.31880933783E-01  0.86450409270E-01  0.51100000000E-03 0. -1.
</event>
<event>
 8    1  0.1063984E+005  0.1043930E+01  0.7957747E-01            NaN
         13   -1    0    0    0    0  0.00000000000E+00  0.00000000000E+00  0.74505805969E-08  0.10566000000E+00  0.10566000000E+00 0.  1.
     999900   -1    0    0    0    0 -0.00000000000E+00 -0.00000000000E+00 -0.74505805969E-08  0.93827000000E+00  0.93827000000E+00 0. -1.
     999902    2    1    2    0    0 -0.48685700745E-02 -0.37231661413E-04  0.24519476750E-01  0.10189318180E+01  0.10186251228E+01 0.  0.
     999903    2    3    3    0    0  0.50837292633E-01  0.11668665563E+00 -0.53403194854E-02  0.12897720323E+00  0.20159216657E-01 0.  0.
         14    1    1    2    0    0  0.48685700745E-02  0.37231661413E-04 -0.24519476750E-01  0.24998181951E-01  0.00000000000E+00 0. -1.
     999901    1    3    3    0    0 -0.55705862708E-01 -0.11672388729E+00  0.29859796236E-01  0.88995461482E+00  0.88000000000E+00 0.  1.
        -11    1    4    4    0    0  0.17510097565E-01  0.49089946307E-01  0.70547787704E-02  0.52597123207E-01  0.51100000000E-03 0.  1.
         11    1    4    4    0    0  0.33327195068E-01  0.67596709324E-01 -0.12395098256E-01  0.76380080023E-01  0.51100000000E-03 0. -1.
</event>
<event>
 8    1  0.1063984E+005  0.1043930E+01  0.7957747E-01            NaN
         13   -1    0    0    0    0  0.00000000000E+00  0.00000000000E+00  0.74505805969E-08  0.10566000000E+00  0.10566000000E+00 0.  1.
     999900   -1    0    0    0    0 -0.00000000000E+00 -0.00000000000E+00 -0.74505805969E-08  0.93827000000E+00  0.93827000000E+00 0. -1.
     999902    2    1    2    0    0 -0.12031357452E-01 -0.16970153326E-01 -0.11665090416E-01  0.10200801782E+01  0.10198013316E+01 0.  0.
     999903    2    3    3    0    0 -0.11040122310E+00 -0.13206678955E-01  0.66560461583E-01  0.13114259253E+00  0.20130526532E-01 0.  0.
         14    1    1    2    0    0  0.12031357452E-01  0.16970153326E-01  0.11665090416E-01  0.23849821812E-01  0.00000000000E+00 0. -1.
     999901    1    3    3    0    0  0.98369865650E-01 -0.37634743713E-02 -0.78225551998E-01  0.88893758566E+00  0.88000000000E+00 0.  1.
        -11    1    4    4    0    0 -0.10988342548E+00 -0.14519211720E-01  0.63516697066E-01  0.12774899856E+00  0.51100000000E-03 0.  1.
         11    1    4    4    0    0 -0.51779761771E-03  0.13125327653E-02  0.30437645170E-02  0.33935939751E-02  0.51100000000E-03 0. -1.
</event>
<event>
 7    1  0.1063984E+005  0.1043930E+01  0.7957747E-01            NaN
         13   -1    0    0    0    0  0.00000000000E+00  0.00000000000E+00  0.74505805969E-08  0.10566000000E+00  0.10566000000E+00 0. -1.
     999900   -1    0    0    0    0 -0.00000000000E+00 -0.00000000000E+00 -0.74505805969E-08  0.93827000000E+00  0.93827000000E+00 0.  1.
     999903    2    1    2    0    0  0.14179143245E+00  0.71380774207E-03  0.16090977377E-01  0.14408560233E+00  0.19910334184E-01 0.  0.
         14    1    1    2    0    0 -0.35452177555E-02 -0.75136917637E-02  0.29662140195E-02  0.88217094978E-02  0.00000000000E+00 0.  1.
     999901    1    1    2    0    0 -0.13824621469E+00  0.67998840216E-02 -0.19057191396E-01  0.89102268818E+00  0.88000000000E+00 0.  1.
        -11    1    3    3    0    0  0.79698207767E-01 -0.92706484550E-02  0.70529386813E-02  0.80546597129E-01  0.51100000000E-03 0.  1.
         11    1    3    3    0    0  0.62093224682E-01  0.99844561971E-02  0.90380386955E-02  0.63539005197E-01  0.51100000000E-03 0. -1.
</event>
<event>
 8    1  0.1063984E+005  0.1043930E+01  0.7957747E-01            NaN
         13   -1    0    0    0    0  0.00000000000E+00  0.00000000000E+00  0.74505805969E-08  0.10566000000E+00  0.10566000000E+00 0.  1.
     999900   -1    0    0    0    0 -0.00000000000E+00 -0.00000000000E+00 -0.74505805969E-08  0.93827000000E+00  0.93827000000E+00 0. -1.
     999902    2    1    2    0    0 -0.55041357794E-02 -0.15854458979E-01  0.12592799120E-01  0.10229481514E+01  0.10227329478E+01 0.  0.
     999903    2    3    3    0    0 -0.89964972459E-01  0.93948481264E-01  0.11720220449E-01  0.13211085987E+00  0.19897294467E-01 0.  0.
         14    1    1    2    0    0  0.55041357794E-02  0.15854458979E-01 -0.12592799120E-01  0.20981848581E-01  0.00000000000E+00 0. -1.
     999901    1    3    3    0    0  0.84460836680E-01 -0.10980294024E+00  0.87257867095E-03  0.89083729155E+00  0.88000000000E+00 0.  1.
        -11    1    4    4    0    0 -0.63142649377E-01  0.62666742609E-01 -0.10461750082E-02  0.88968929423E-01  0.51100000000E-03 0. -1.
         11    1    4    4    0    0 -0.26822323082E-01  0.31281738655E-01  0.12766395457E-01  0.43141930448E-01  0.51100000000E-03 0.  1.
</event>
<event>
 8    1  0.1063984E+005  0.1043930E+01  0.7957747E-01            NaN
         13   -1    0    0    0    0  0.00000000000E+00  0.00000000000E+00  0.74505805969E-08  0.10566000000E+00  0.10566000000E+00 0. -1.
     999900   -1    0    0    0    0 -0.00000000000E+00 -0.00000000000E+00 -0.74505805969E-08  0.93827000000E+00  0.93827000000E+00 0.  1.
     999902    2    1    2    0    0 -0.14339829326E-01  0.44749440945E-02 -0.18348409035E-01  0.10202167138E+01  0.10199410881E+01 0.  0.
     999903    2    3    3    0    0 -0.42603022898E-01  0.11275903731E+00  0.46194358816E-01  0.13078429822E+00  0.20999900443E-01 0.  0.
         14    1    1    2    0    0  0.14339829326E-01 -0.44749440945E-02  0.18348409035E-01  0.23713286231E-01  0.00000000000E+00 0. -1.
     999901    1    3    3    0    0  0.28263193572E-01 -0.10828409321E+00 -0.64542767851E-01  0.88943241555E+00  0.88000000000E+00 0.  1.
        -11    1    4    4    0    0 -0.27370867553E-01  0.47865555442E-01  0.27122186220E-01  0.61450385635E-01  0.51100000000E-03 0.  1.
         11    1    4    4    0    0 -0.15232155345E-01  0.64893481867E-01  0.19072172596E-01  0.69333912581E-01  0.51100000000E-03 0. -1.
</event>
<event>
 8    1  0.1063984E+005  0.1043930E+01  0.7957747E-01            NaN
         13   -1    0    0    0    0  0.00000000000E+00  0.00000000000E+00  0.74505805969E-08  0.10566000000E+00  0.10566000000E+00 0.  1.
     999900   -1    0    0    0    0 -0.00000000000E+00 -0.00000000000E+00 -0.74505805969E-08  0.93827000000E+00  0.93827000000E+00 0. -1.
     999902    2    1    2    0    0  0.17629489528E-01  0.41547942484E-02 -0.13989161332E-01  0.10210442435E+01  0.10207877298E+01 0.  0.
     999903    2    3    3    0    0  0.11272493800E+00  0.64906611030E-01 -0.23872591937E-01  0.13378350968E+00  0.20207597893E-01 0.  0.
         14    1    1    2    0    0 -0.17629489528E-01 -0.41547942484E-02  0.13989161332E-01  0.22885756510E-01  0.00000000000E+00 0.  1.
     999901    1    3    3    0    0 -0.95095448477E-01 -0.60751816782E-01  0.98834306045E-02  0.88726073381E+00  0.88000000000E+00 0.  1.
        -11    1    4    4    0    0  0.41636455648E-01  0.32601873087E-01 -0.30661329248E-02  0.52973001235E-01  0.51100000000E-03 0. -1.
         11    1    4    4    0    0  0.71088482357E-01  0.32304737943E-01 -0.20806459012E-01  0.80810508444E-01  0.51100000000E-03 0.  1.
</event>
<event>
 8    1  0.1063984E+005  0.1043930E+01  0.7957747E-01            NaN
         13   -1    0    0    0    0  0.00000000000E+00  0.00000000000E+00  0.74505805969E-08  0.10566000000E+00  0.10566000000E+00 0. -1.
     999900   -1    0    0    0    0 -0.00000000000E+00 -0.00000000000E+00 -0.74505805969E-08  0.93827000000E+00  0.93827000000E+00 0. -1.
     999902    2    1    2    0    0 -0.78394543716E-02 -0.13402264851E-01  0.17670811146E-01  0.10204069195E+01  0.10201357489E+01 0.  0.
     999903    2    3    3    0    0 -0.54860468296E-01  0.74404455014E-01 -0.87761041125E-01  0.12853424293E+00  0.16533522263E-01 0.  0.
         14    1    1    2    0    0  0.78394543716E-02  0.13402264851E-01 -0.17670811146E-01  0.23523080464E-01  0.00000000000E+00 0.  1.
     999901    1    3    3    0    0  0.47021013925E-01 -0.87806719865E-01  0.10543185227E+00  0.89187267661E+00  0.88000000000E+00 0.  1.
        -11    1    4    4    0    0 -0.34341269640E-01  0.38523558687E-01 -0.57753862638E-01  0.77454226127E-01  0.51100000000E-03 0.  1.
         11    1    4    4    0    0 -0.20519198657E-01  0.35880896327E-01 -0.30007178487E-01  0.51080016802E-01  0.51100000000E-03 0. -1.
</event>
<event>
 8    1  0.1137432E+005  0.1043930E+01  0.7957747E-01            NaN
         13   -1    0    0    0    0  0.00000000000E+00  0.00000000000E+00  0.74505805969E-08  0.10566000000E+00  0.10566000000E+00 0. -1.
     999900   -1    0    0    0    0 -0.00000000000E+00 -0.00000000000E+00 -0.74505805969E-08  0.93827000000E+00  0.93827000000E+00 0. -1.
     999902    2    1    2    0    0  0.23194260143E-01 -0.81278071243E-04  0.87563490622E-02  0.10191377843E+01  0.10188361838E+01 0.  0.
     999903    2    3    3    0    0  0.53122140417E-01  0.78733830040E-02  0.11867682266E+00  0.13175879810E+00  0.19805066977E-01 0.  0.
         14    1    1    2    0    0 -0.23194260143E-01  0.81278071243E-04 -0.87563490622E-02  0.24792215685E-01  0.00000000000E+00 0.  1.
     999901    1    3    3    0    0 -0.29927880275E-01 -0.79546610752E-02 -0.10992047360E+00  0.88737898621E+00  0.88000000000E+00 0. -1.
        -11    1    4    4    0    0  0.22163809377E-01  0.12624536673E-01  0.45611877390E-01  0.52262011560E-01  0.51100000000E-03 0.  1.
         11    1    4    4    0    0  0.30958331040E-01 -0.47511536688E-02  0.73064945274E-01  0.79496786545E-01  0.51100000000E-03 0. -1.
</event>
<event>
 7    1  0.1063984E+005  0.1043930E+01  0.7957747E-01            NaN
         13   -1    0    0    0    0  0.00000000000E+00  0.00000000000E+00  0.74505805969E-08  0.10566000000E+00  0.10566000000E+00 0.  1.
     999900   -1    0    0    0    0 -0.00000000000E+00 -0.00000000000E+00 -0.74505805969E-08  0.93827000000E+00  0.93827000000E+00 0. -1.
     999903    2    1    2    0    0  0.62421007418E-01  0.15638940235E-01 -0.93628116015E-01  0.11544792111E+00  0.20519253423E-01 0.  0.
         14    1    1    2    0    0 -0.40256392848E-01  0.13716920123E-01 -0.17452582922E-02  0.42564973738E-01  0.00000000000E+00 0. -1.
     999901    1    1    2    0    0 -0.22164614571E-01 -0.29355860359E-01  0.95373374308E-01  0.88591710515E+00  0.88000000000E+00 0.  1.
        -11    1    3    3    0    0  0.88302425175E-02 -0.47617086867E-03 -0.38563347916E-02  0.96608674889E-02  0.51100000000E-03 0. -1.
         11    1    3    3    0    0  0.53590764901E-01  0.16115111104E-01 -0.89771781224E-01  0.10578705362E+00  0.51100000000E-03 0.  1.
</event>
<event>
 8    1  0.1063984E+005  0.1043930E+01  0.7957747E-01            NaN
         13   -1    0    0    0    0  0.00000000000E+00  0.00000000000E+00  0.74505805969E-08  0.10566000000E+00  0.10566000000E+00 0.  1.
     999900   -1    0    0    0    0 -0.00000000000E+00 -0.00000000000E+00 -0.74505805969E-08  0.93827000000E+00  0.93827000000E+00 0. -1.
     999902    2    1    2    0    0  0.32061785383E-01  0.40655811054E-02  0.11122249229E-01  0.10097511841E+01  0.10091725632E+01 0.  0.
     999903    2    3    3    0    0  0.63217326514E-01 -0.84744404927E-01  0.60424195068E-01  0.12336043318E+00  0.19714679492E-01 0.  0.
         14    1    1    2    0    0 -0.32061785383E-01 -0.40655811054E-02 -0.11122249229E-01  0.34178815948E-01  0.00000000000E+00 0.  1.
     999901    1    3    3    0    0 -0.31155541131E-01  0.88809986033E-01 -0.49301945839E-01  0.88639075087E+00  0.88000000000E+00 0. -1.
        -11    1    4    4    0    0  0.40138650884E-01 -0.62318627982E-01  0.50447506978E-01  0.89665683345E-01  0.51100000000E-03 0. -1.
         11    1    4    4    0    0  0.23078675630E-01 -0.22425776945E-01  0.99766880901E-02  0.33694749839E-01  0.51100000000E-03 0.  1.
</event>
<event>
 8    1  0.1063984E+005  0.1043930E+01  0.7957747E-01            NaN
         13   -1    0    0    0    0  0.00000000000E+00  0.00000000000E+00  0.74505805969E-08  0.10566000000E+00  0.10566000000E+00 0.  1.
     999900   -1    0    0    0    0 -0.00000000000E+00 -0.00000000000E+00 -0.74505805969E-08  0.93827000000E+00  0.93827000000E+00 0.  1.
     999902    2    1    2    0    0  0.22610233594E-01 -0.24241167475E-02 -0.30272149979E-02  0.10209895764E+01  0.10207318218E+01 0.  0.
     999903    2    3    3    0    0  0.49591458169E-01  0.10189589245E+00  0.64399158534E-01  0.13185687164E+00  0.19922282894E-01 0.  0.
         14    1    1    2    0    0 -0.22610233594E-01  0.24241167475E-02  0.30272149979E-02  0.22940423619E-01  0.00000000000E+00 0.  1.
     999901    1    3    3    0    0 -0.26981224575E-01 -0.10432000920E+00 -0.67426373532E-01  0.88913270474E+00  0.88000000000E+00 0.  1.
        -11    1    4    4    0    0  0.45221008887E-01  0.88086611330E-01  0.48217326385E-01  0.11013338470E+00  0.51100000000E-03 0.  1.
         11    1    4    4    0    0  0.43704492826E-02  0.13809281123E-01  0.16181832149E-01  0.21723486938E-01  0.51100000000E-03 0. -1.
</event>
<event>
 8    1  0.1063984E+005  0.1043930E+01  0.7957747E-01            NaN
         13   -1    0    0    0    0  0.00000000000E+00  0.00000000000E+00  0.74505805969E-08  0.10566000000E+00  0.10566000000E+00 0. -1.
     999900   -1    0    0    0    0 -0.00000000000E+00 -0.00000000000E+00 -0.74505805969E-08  0.93827000000E+00  0.93827000000E+00 0. -1.
     999902    2    1    2    0    0 -0.31926889660E-02 -0.13776718661E-01 -0.16796256376E-01  0.10219730998E+01  0.10217372026E+01 0.  0.
     999903    2    3    3    0    0 -0.10150109607E+00 -0.48242412676E-01  0.66286777603E-01  0.13194207923E+00  0.19620716128E-01 0.  0.
         14    1    1    2    0    0  0.31926889660E-02  0.13776718661E-01  0.16796256376E-01  0.21956900240E-01  0.00000000000E+00 0. -1.
     999901    1    3    3    0    0  0.98308407108E-01  0.34465694015E-01 -0.83083033979E-01  0.89003102053E+00  0.88000000000E+00 0. -1.
        -11    1    4    4    0    0 -0.11871082021E-01 -0.22780013193E-03  0.11039662814E-01  0.16220658350E-01  0.51100000000E-03 0. -1.
         11    1    4    4    0    0 -0.89630014052E-01 -0.48014612544E-01  0.55247114789E-01  0.11572142088E+00  0.51100000000E-03 0.  1.
</event>
<event>
 8    1  0.1063984E+005  0.1043930E+01  0.7957747E-01            NaN
         13   -1    0    0    0    0  0.00000000000E+00  0.00000000000E+00  0.74505805969E-08  0.10566000000E+00  0.10566000000E+00 0. -1.
     999900   -1    0    0    0    0 -0.00000000000E+00 -0.00000000000E+00 -0.74505805969E-08  0.93827000000E+00  0.93827000000E+00 0.  1.
     999902    2    1    2    0    0  0.89064384810E-02  0.23764523256E-02 -0.22461464031E-01  0.10196505944E+01  0.10193614889E+01 0.  0.
     999903    2    3    3    0    0 -0.10092368299E+00  0.78053898579E-01 -0.44895935027E-02  0.12941875961E+00  0.21238126519E-01 0.  0.
         14    1    1    2    0    0 -0.89064384810E-02 -0.23764523256E-02  0.22461464031E-01  0.24279405645E-01  0.00000000000E+00 0. -1.
     999901    1    3    3    0    0  0.10983012148E+00 -0.75677446253E-01 -0.17971870528E-01  0.89023183474E+00  0.88000000000E+00 0.  1.
        -11    1    4    4    0    0 -0.45742846102E-01  0.37725195867E-01  0.83329343940E-02  0.59877352057E-01  0.51100000000E-03 0.  1.
         11    1    4    4    0    0 -0.55180836892E-01  0.40328702711E-01 -0.12822527897E-01  0.69541407558E-01  0.51100000000E-03 0. -1.
</event>
<event>
 8    1  0.1063984E+005  0.1043930E+01  0.7957747E-01            NaN
         13   -1    0    0    0    0  0.00000000000E+00  0.00000000000E+00  0.74505805969E-08  0.10566000000E+00  0.10566000000E+00 0.  1.
     999900   -1    0    0    0    0 -0.00000000000E+00 -0.00000000000E+00 -0.74505805969E-08  0.93827000000E+00  0.93827000000E+00 0.  1.
     999902    2    1    2    0    0 -0.11135760735E-01  0.74851419376E-02  0.18481590274E-01  0.10210913990E+01  0.10208359532E+01 0.  0.
     999903    2    3    3    0    0  0.22056464376E-01 -0.76941528914E-02 -0.12466592676E+00  0.12877791908E+00  0.22281641253E-01 0.  0.
         14    1    1    2    0    0  0.11135760735E-01 -0.74851419376E-02 -0.18481590274E-01  0.22838601008E-01  0.00000000000E+00 0. -1.
     999901    1    3    3    0    0 -0.33192225111E-01  0.15179294829E-01  0.14314751704E+00  0.89231347991E+00  0.88000000000E+00 0. -1.
        -11    1    4    4    0    0  0.22794595190E-01  0.77086956897E-03 -0.10307653489E+00  0.10557092865E+00  0.51100000000E-03 0.  1.
         11    1    4    4    0    0 -0.73813081345E-03 -0.84650224603E-02 -0.21589391870E-01  0.23206990427E-01  0.51100000000E-03 0. -1.
</event>
<event>
 8    1  0.1063984E+005  0.1043930E+01  0.7957747E-01            NaN
         13   -1    0    0    0    0  0.00000000000E+00  0.00000000000E+00  0.74505805969E-08  0.10566000000E+00  0.10566000000E+00 0.  1.
     999900   -1    0    0    0    0 -0.00000000000E+00 -0.00000000000E+00 -0.74505805969E-08  0.93827000000E+00  0.93827000000E+00 0.  1.
     999902    2    1    2    0    0  0.12725952599E-01 -0.14237605040E-01 -0.19318555887E-01  0.10167663134E+01  0.10164033994E+01 0.  0.
     999903    2    3    3    0    0 -0.65159443984E-01 -0.10433858199E+00  0.27005493122E-01  0.12753617529E+00  0.20096928032E-01 0.  0.
         14    1    1    2    0    0 -0.12725952599E-01  0.14237605040E-01  0.19318555887E-01  0.27163686576E-01  0.00000000000E+00 0.  1.
     999901    1    3    3    0    0  0.77885396584E-01  0.90100976953E-01 -0.46324049009E-01  0.88923013813E+00  0.88000000000E+00 0.  1.
        -11    1    4    4    0    0 -0.52645084179E-01 -0.96308028507E-01  0.24225027772E-01  0.11240041964E+00  0.51100000000E-03 0.  1.
         11    1    4    4    0    0 -0.12514359805E-01 -0.80305534859E-02  0.27804653497E-02  0.15135755653E-01  0.51100000000E-03 0. -1.
</event>
<event>
 8    1  0.1063984E+005  0.1043930E+01  0.7957747E-01            NaN
         13   -1    0    0    0    0  0.00000000000E+00  0.00000000000E+00  0.74505805969E-08  0.10566000000E+00  0.10566000000E+00 0.  1.
     999900   -1    0    0    0    0 -0.00000000000E+00 -0.00000000000E+00 -0.74505805969E-08  0.93827000000E+00  0.93827000000E+00 0.  1.
     999902    2    1    2    0    0 -0.53562498327E-02  0.13253519468E-01  0.24153316548E-01  0.10158635095E+01  0.10154757220E+01 0.  0.
     999903    2    3    3    0    0  0.94047549716E-01 -0.69975968628E-01 -0.36175266875E-01  0.12432113749E+00  0.20137465087E-01 0.  0.
         14    1    1    2    0    0  0.53562498327E-02 -0.13253519468E-01 -0.24153316548E-01  0.28066490533E-01  0.00000000000E+00 0. -1.
     999901    1    3    3    0    0 -0.99403799549E-01  0.83229488096E-01  0.60328583423E-01  0.89154237198E+00  0.88000000000E+00 0. -1.
        -11    1    4    4    0    0  0.25071521206E-01 -0.12192860250E-01 -0.15842234071E-01  0.32069994044E-01  0.51100000000E-03 0. -1.
         11    1    4    4    0    0  0.68976028511E-01 -0.57783108378E-01 -0.20333032804E-01  0.92251143445E-01  0.51100000000E-03 0.  1.
</event>
<event>
 8    1  0.1063984E+005  0.1043930E+01  0.7957747E-01            NaN
         13   -1    0    0    0    0  0.00000000000E+00  0.00000000000E+00  0.74505805969E-08  0.10566000000E+00  0.10566000000E+00 0.  1.
     999900   -1    0    0    0    0 -0.00000000000E+00 -0.00000000000E+00 -0.74505805969E-08  0.93827000000E+00  0.93827000000E+00 0.  1.
     999902    2    1    2    0    0 -0.21045130822E-01 -0.84644072395E-02  0.60377732833E-02  0.10204566443E+01  0.10201866322E+01 0.  0.
     999903    2    3    3    0    0  0.44535717196E-01  0.11419609856E+00  0.35030832368E-01  0.12906052317E+00  0.20131576986E-01 0.  0.
         14    1    1    2    0    0  0.21045130822E-01  0.84644072395E-02 -0.60377732833E-02  0.23473355692E-01  0.00000000000E+00 0. -1.
     999901    1    3    3    0    0 -0.65580848018E-01 -0.12266050580E+00 -0.28993059085E-01  0.89139612114E+00  0.88000000000E+00 0.  1.
        -11    1    4    4    0    0  0.14243047029E-01  0.32777982571E-01  0.19808899675E-01  0.40864583167E-01  0.51100000000E-03 0. -1.
         11    1    4    4    0    0  0.30292670167E-01  0.81418115986E-01  0.15221932693E-01  0.88195940000E-01  0.51100000000E-03 0.  1.
</event>
<event>
 8    1  0.1063984E+005  0.1043930E+01  0.7957747E-01            NaN
         13   -1    0    0    0    0  0.00000000000E+00  0.00000000000E+00  0.74505805969E-08  0.10566000000E+00  0.10566000000E+00 0. -1.
     999900   -1    0    0    0    0 -0.00000000000E+00 -0.00000000000E+00 -0.74505805969E-08  0.93827000000E+00  0.93827000000E+00 0.  1.
     999902    2    1    2    0    0  0.78288697470E-04 -0.11302244709E-01 -0.21199250896E-01  0.10199059474E+01  0.10196229629E+01 0.  0.
     999903    2    3    3    0    0  0.85886461591E-01 -0.46816807236E-01  0.81925569309E-01  0.12903050424E+00  0.19203499522E-01 0.  0.
         14    1    1    2    0    0 -0.78288697470E-04  0.11302244709E-01  0.21199250896E-01  0.24024052596E-01  0.00000000000E+00 0.  1.
     999901    1    3    3    0    0 -0.85808172894E-01  0.35514562527E-01 -0.10312482020E+00  0.89087544316E+00  0.88000000000E+00 0.  1.
        -11    1    4    4    0    0  0.72823079237E-01 -0.43502086539E-01  0.62433341453E-01  0.10532718381E+00  0.51100000000E-03 0.  1.
         11    1    4    4    0    0  0.13063382355E-01 -0.33147206974E-02  0.19492227857E-01  0.23703320435E-01  0.51100000000E-03 0. -1.
</event>
<event>
 8    1  0.1063984E+005  0.1043930E+01  0.7957747E-01            NaN
         13   -1    0    0    0    0  0.00000000000E+00  0.00000000000E+00  0.74505805969E-08  0.10566000000E+00  0.10566000000E+00 0.  1.
     999900   -1    0    0    0    0 -0.00000000000E+00 -0.00000000000E+00 -0.74505805969E-08  0.93827000000E+00  0.93827000000E+00 0. -1.
     999902    2    1    2    0    0  0.81697677657E-02  0.20989658120E-01  0.64329980304E-02  0.10205057750E+01  0.10202369051E+01 0.  0.
     999903    2    3    3    0    0 -0.64884407497E-01 -0.50983844054E-01  0.98031567590E-01  0.12982772122E+00  0.20873673886E-01 0.  0.
         14    1    1    2    0    0 -0.81697677657E-02 -0.20989658120E-01 -0.64329980304E-02  0.23424225003E-01  0.00000000000E+00 0.  1.
     999901    1    3    3    0    0  0.73054175262E-01  0.71973502175E-01 -0.91598569560E-01  0.89067805378E+00  0.88000000000E+00 0.  1.
        -11    1    4    4    0    0 -0.12182132659E-01 -0.21525029112E-01  0.28297241428E-01  0.37586250515E-01  0.51100000000E-03 0.  1.
         11    1    4    4    0    0 -0.52702274838E-01 -0.29458814942E-01  0.69734326163E-01  0.92241470702E-01  0.51100000000E-03 0. -1.
</event>
<event>
 8    1  0.1063984E+005  0.1043930E+01  0.7957747E-01            NaN
         13   -1    0    0    0    0  0.00000000000E+00  0.00000000000E+00  0.74505805969E-08  0.10566000000E+00  0.10566000000E+00 0.  1.
     999900   -1    0    0    0    0 -0.00000000000E+00 -0.00000000000E+00 -0.74505805969E-08  0.93827000000E+00  0.93827000000E+00 0.  1.
     999902    2    1    2    0    0 -0.14004895120E-01  0.63544776818E-02 -0.17199180277E-01  0.10208577596E+01  0.10205970003E+01 0.  0.
     999903    2    3    3    0    0 -0.14568199313E-01  0.32251217757E-01 -0.12726920091E+00  0.13362252142E+00  0.20128468693E-01 0.  0.
         14    1    1    2    0    0  0.14004895120E-01 -0.63544776818E-02  0.17199180277E-01  0.23072240379E-01  0.00000000000E+00 0.  1.
     999901    1    3    3    0    0  0.56330419246E-03 -0.25896740075E-01  0.11007002064E+00  0.88723523820E+00  0.88000000000E+00 0. -1.
        -11    1    4    4    0    0 -0.10585010911E-01  0.15920606808E-01 -0.35488313089E-01  0.40313641165E-01  0.51100000000E-03 0.  1.
         11    1    4    4    0    0 -0.39831884016E-02  0.16330610949E-01 -0.91780887825E-01  0.93308880257E-01  0.51100000000E-03 0. -1.
</event>
<event>
 8    1  0.1063984E+005  0.1043930E+01  0.7957747E-01            NaN
         13   -1    0    0    0    0  0.00000000000E+00  0.00000000000E+00  0.74505805969E-08  0.10566000000E+00  0.10566000000E+00 0.  1.
     999900   -1    0    0    0    0 -0.00000000000E+00 -0.00000000000E+00 -0.74505805969E-08  0.93827000000E+00  0.93827000000E+00 0.  1.
     999902    2    1    2    0    0  0.84542927019E-02  0.77131745706E-02 -0.22670508317E-01  0.10185347234E+01  0.10182180821E+01 0.  0.
     999903    2    3    3    0    0  0.80993704905E-01  0.21977526803E-01 -0.99671809076E-01  0.13208413910E+00  0.21650828101E-01 0.  0.
         14    1    1    2    0    0 -0.84542927019E-02 -0.77131745706E-02  0.22670508317E-01  0.25395276616E-01  0.00000000000E+00 0.  1.
     999901    1    3    3    0    0 -0.72539412203E-01 -0.14264352232E-01  0.77001300759E-01  0.88645058429E+00  0.88000000000E+00 0. -1.
        -11    1    4    4    0    0  0.30361634720E-01  0.11394602323E-01 -0.23684957918E-01  0.40160978295E-01  0.51100000000E-03 0. -1.
         11    1    4    4    0    0  0.50632070185E-01  0.10582924480E-01 -0.75986851158E-01  0.91923160801E-01  0.51100000000E-03 0.  1.
</event>
<event>
 8    1  0.1063984E+005  0.1043930E+01  0.7957747E-01            NaN
         13   -1    0    0    0    0  0.00000000000E+00  0.00000000000E+00  0.74505805969E-08  0.10566000000E+00  0.10566000000E+00 0.  1.
     999900   -1    0    0    0    0 -0.00000000000E+00 -0.00000000000E+00 -0.74505805969E-08  0.93827000000E+00  0.93827000000E+00 0.  1.
     999902    2    1    2    0    0  0.50978688184E-02 -0.12422842191E-01 -0.19142147898E-01  0.10205475899E+01  0.10202796902E+01 0.  0.
     999903    2    3    3    0    0 -0.75619708097E-01 -0.97456776746E-01  0.38879651706E-01  0.13087763625E+00  0.20029098018E-01 0.  0.
         14    1    1    2    0    0 -0.50978688184E-02  0.12422842191E-01  0.19142147898E-01  0.23382410071E-01  0.00000000000E+00 0.  1.
     999901    1    3    3    0    0  0.80717576916E-01  0.85033934555E-01 -0.58021799603E-01  0.88966995368E+00  0.88000000000E+00 0.  1.
        -11    1    4    4    0    0 -0.29386718454E-01 -0.28632716649E-01  0.20855517730E-01  0.46028528382E-01  0.51100000000E-03 0.  1.
         11    1    4    4    0    0 -0.46232989643E-01 -0.68824060097E-01  0.18024133975E-01  0.84849107869E-01  0.51100000000E-03 0. -1.
</event>
<event>
 8    1  0.1063984E+005  0.1043930E+01  0.7957747E-01            NaN
         13   -1    0    0    0    0  0.00000000000E+00  0.00000000000E+00  0.74505805969E-08  0.10566000000E+00  0.10566000000E+00 0.  1.
     999900   -1    0    0    0    0 -0.00000000000E+00 -0.00000000000E+00 -0.74505805969E-08  0.93827000000E+00  0.93827000000E+00 0. -1.
     999902    2    1    2    0    0 -0.13702860884E-01 -0.46731401643E-02  0.18225210411E-01  0.10206541557E+01  0.10203887203E+01 0.  0.
     999903    2    3    3    0    0 -0.62829993946E-01 -0.11413396588E+00 -0.74226869058E-02  0.13214250002E+00  0.20793598115E-01 0.  0.
         14    1    1    2    0    0  0.13702860884E-01  0.46731401643E-02 -0.18225210411E-01  0.23275844344E-01  0.00000000000E+00 0. -1.
     999901    1    3    3    0    0  0.49127133062E-01  0.10946082572E+00  0.25647897317E-01  0.88851165564E+00  0.88000000000E+00 0.  1.
        -11    1    4    4    0    0 -0.10933467592E-01 -0.18104518485E-01  0.64272653882E-02  0.22110747715E-01  0.51100000000E-03 0. -1.
         11    1    4    4    0    0 -0.51896526355E-01 -0.96029447397E-01 -0.13849952294E-01  0.11003175230E+00  0.51100000000E-03 0.  1.
</event>
<event>
 8    1  0.1063984E+005  0.1043930E+01  0.7957747E-01            NaN
         13   -1    0    0    0    0  0.00000000000E+00  0.00000000000E+00  0.74505805969E-08  0.10566000000E+00  0.10566000000E+00 0.  1.
     999900   -1    0    0    0    0 -0.00000000000E+00 -0.00000000000E+00 -0.74505805969E-08  0.93827000000E+00  0.93827000000E+00 0.  1.
     999902    2    1    2    0    0  0.18496784510E-01 -0.13845041586E-01 -0.51864970684E-02  0.10202505582E+01  0.10199757279E+01 0.  0.
     999903    2    3    3    0    0 -0.64117236320E-01 -0.96701005224E-01 -0.57303124517E-01  0.13097763605E+00  0.20233355177E-01 0.  0.
         14    1    1    2    0    0 -0.18496784510E-01  0.13845041586E-01  0.51864970684E-02  0.23679441834E-01  0.00000000000E+00 0.  1.
     999901    1    3    3    0    0  0.82614020830E-01  0.82855963638E-01  0.52116627449E-01  0.88927292211E+00  0.88000000000E+00 0. -1.
        -11    1    4    4    0    0 -0.51171574294E-01 -0.64393165459E-01 -0.33517225347E-01  0.88818214852E-01  0.51100000000E-03 0.  1.
         11    1    4    4    0    0 -0.12945662026E-01 -0.32307839765E-01 -0.23785899170E-01  0.42159421200E-01  0.51100000000E-03 0. -1.
</event>
<event>
 8    1  0.1063984E+005  0.1043930E+01  0.7957747E-01            NaN
         13   -1    0    0    0    0  0.00000000000E+00  0.00000000000E+00  0.74505805969E-08  0.10566000000E+00  0.10566000000E+00 0. -1.
     999900   -1    0    0    0    0 -0.00000000000E+00 -0.00000000000E+00 -0.74505805969E-08  0.93827000000E+00  0.93827000000E+00 0.  1.
     999902    2    1    2    0    0 -0.15217761892E-01 -0.15039479366E-01 -0.10494783939E-01  0.10200992068E+01  0.10198208102E+01 0.  0.
     999903    2    3    3    0    0 -0.63855554697E-01  0.67644081272E-01  0.87841566495E-01  0.12944088624E+00  0.19635392277E-01 0.  0.
         14    1    1    2    0    0  0.15217761892E-01  0.15039479366E-01  0.10494783939E-01  0.23830793242E-01  0.00000000000E+00 0. -1.
     999901    1    3    3    0    0  0.48637792805E-01 -0.82683560638E-01 -0.98336350434E-01  0.89065832052E+00  0.88000000000E+00 0.  1.
        -11    1    4    4    0    0 -0.46518234332E-01  0.43626937297E-01  0.70692212069E-01  0.95209798611E-01  0.51100000000E-03 0. -1.
         11    1    4    4    0    0 -0.17337320365E-01  0.24017143975E-01  0.17149354426E-01  0.34231087631E-01  0.51100000000E-03 0.  1.
</event>
<event>
 8    1  0.1173421E+005  0.1043930E+01  0.7957747E-01            NaN
         13   -1    0    0    0    0  0.00000000000E+00  0.00000000000E+00  0.74505805969E-08  0.10566000000E+00  0.10566000000E+00 0.  1.
     999900   -1    0    0    0    0 -0.00000000000E+00 -0.00000000000E+00 -0.74505805969E-08  0.93827000000E+00  0.93827000000E+00 0.  1.
     999902    2    1    2    0    0  0.72680820816E-02 -0.96319260577E-02  0.19941261212E-01  0.10206222134E+01  0.10203560406E+01 0.  0.
     999903    2    3    3    0    0 -0.18203652437E-01 -0.15625835910E-01 -0.12465218668E+00  0.12843837508E+00  0.19562945554E-01 0.  0.
         14    1    1    2    0    0 -0.72680820816E-02  0.96319260577E-02 -0.19941261212E-01  0.23307786584E-01  0.00000000000E+00 0. -1.
     999901    1    3    3    0    0  0.25471734518E-01  0.59939098525E-02  0.14459344789E+00  0.89218383834E+00  0.88000000000E+00 0. -1.
        -11    1    4    4    0    0 -0.56973419100E-02 -0.18266601751E-03 -0.70858678447E-01  0.71089426105E-01  0.51100000000E-03 0.  1.
         11    1    4    4    0    0 -0.12506310527E-01 -0.15443169893E-01 -0.53793508235E-01  0.57348948975E-01  0.51100000000E-03 0. -1.
</event>
<event>
 8    1  0.1063984E+005  0.1043930E+01  0.7957747E-01            NaN
         13   -1    0    0    0    0  0.00000000000E+00  0.00000000000E+00  0.74505805969E-08  0.10566000000E+00  0.10566000000E+00 0. -1.
     999900   -1    0    0    0    0 -0.00000000000E+00 -0.00000000000E+00 -0.74505805969E-08  0.93827000000E+00  0.93827000000E+00 0. -1.
     999902    2    1    2    0    0 -0.98190898965E-02 -0.16455295744E-01 -0.12706873711E-01  0.10209374811E+01  0.10206785412E+01 0.  0.
     999903    2    3    3    0    0 -0.11080161462E+00 -0.75790918888E-02 -0.70729712810E-01  0.13321967284E+00  0.20257061013E-01 0.  0.
         14    1    1    2    0    0  0.98190898965E-02  0.16455295744E-01  0.12706873711E-01  0.22992518869E-01  0.00000000000E+00 0. -1.
     999901    1    3    3    0    0  0.10098252473E+00 -0.88762038552E-02  0.58022839099E-01  0.88771780829E+00  0.88000000000E+00 0.  1.
        -11    1    4    4    0    0 -0.58646017928E-01 -0.14111028191E-01 -0.37147366104E-01  0.70842532880E-01  0.51100000000E-03 0. -1.
         11    1    4    4    0    0 -0.52155596697E-01  0.65319363021E-02 -0.33582346706E-01  0.62377139963E-01  0.51100000000E-03 0.  1.
</event>
<event>
 8    1  0.1063984E+005  0.1043930E+01  0.7957747E-01            NaN
         13   -1    0    0    0    0  0.00000000000E+00  0.00000000000E+00  0.74505805969E-08  0.10566000000E+00  0.10566000000E+00 0.  1.
     999900   -1    0    0    0    0 -0.00000000000E+00 -0.00000000000E+00 -0.74505805969E-08  0.93827000000E+00  0.93827000000E+00 0.  1.
     999902    2    1    2    0    0 -0.10232593143E-01  0.10663477157E-01  0.18433116989E-01  0.10203038385E+01  0.10200302580E+01 0.  0.
     999903    2    3    3    0    0 -0.97264503951E-01 -0.63876794989E-01  0.59452982052E-01  0.13192698430E+00  0.18150576962E-01 0.  0.
         14    1    1    2    0    0  0.10232593143E-01 -0.10663477157E-01 -0.18433116989E-01  0.23626161547E-01  0.00000000000E+00 0. -1.
     999901    1    3    3    0    0  0.87031910807E-01  0.74540272145E-01 -0.41019865063E-01  0.88837685416E+00  0.88000000000E+00 0. -1.
        -11    1    4    4    0    0 -0.41124990051E-01 -0.23793360218E-01  0.33880629602E-01  0.58357064528E-01  0.51100000000E-03 0.  1.
         11    1    4    4    0    0 -0.56139513900E-01 -0.40083434771E-01  0.25572352450E-01  0.73569919769E-01  0.51100000000E-03 0. -1.
</event>
<event>
 8    1  0.1063984E+005  0.1043930E+01  0.7957747E-01            NaN
         13   -1    0    0    0    0  0.00000000000E+00  0.00000000000E+00  0.74505805969E-08  0.10566000000E+00  0.10566000000E+00 0.  1.
     999900   -1    0    0    0    0 -0.00000000000E+00 -0.00000000000E+00 -0.74505805969E-08  0.93827000000E+00  0.93827000000E+00 0.  1.
     999902    2    1    2    0    0  0.21581295752E-01 -0.75805040301E-02 -0.19074031966E-02  0.10209766875E+01  0.10207186399E+01 0.  0.
     999903    2    3    3    0    0 -0.10671500013E+00  0.60984874492E-01 -0.32512229435E-01  0.12850942981E+00  0.18718501983E-01 0.  0.
         14    1    1    2    0    0 -0.21581295752E-01  0.75805040301E-02  0.19074031966E-02  0.22953312498E-01  0.00000000000E+00 0.  1.
     999901    1    3    3    0    0  0.12829629588E+00 -0.68565378522E-01  0.30604826239E-01  0.89246725770E+00  0.88000000000E+00 0. -1.
        -11    1    4    4    0    0 -0.76823995952E-01  0.47751263957E-01 -0.15920407010E-01  0.91846774814E-01  0.51100000000E-03 0.  1.
         11    1    4    4    0    0 -0.29891004179E-01  0.13233610535E-01 -0.16591822425E-01  0.36662654992E-01  0.51100000000E-03 0. -1.
</event>
<event>
 8    1  0.1063984E+005  0.1043930E+01  0.7957747E-01            NaN
         13   -1    0    0    0    0  0.00000000000E+00  0.00000000000E+00  0.74505805969E-08  0.10566000000E+00  0.10566000000E+00 0.  1.
     999900   -1    0    0    0    0 -0.00000000000E+00 -0.00000000000E+00 -0.74505805969E-08  0.93827000000E+00  0.93827000000E+00 0. -1.
     999902    2    1    2    0    0 -0.82379440838E-02 -0.21949354989E-01 -0.31549141618E-02  0.10202743159E+01  0.10200000433E+01 0.  0.
     999903    2    3    3    0    0 -0.72190745063E-01 -0.87172264742E-01 -0.66978634995E-01  0.13324700174E+00  0.21403703291E-01 0.  0.
         14    1    1    2    0    0  0.82379440838E-02  0.21949354989E-01  0.31549141618E-02  0.23655684106E-01  0.00000000000E+00 0. -1.
     999901    1    3    3    0    0  0.63952800980E-01  0.65222909753E-01  0.63823720833E-01  0.88702731415E+00  0.88000000000E+00 0.  1.
        -11    1    4    4    0    0 -0.38526181260E-01 -0.37230678650E-01 -0.41844869074E-01  0.67982676205E-01  0.51100000000E-03 0. -1.
         11    1    4    4    0    0 -0.33664563804E-01 -0.49941586093E-01 -0.25133765920E-01  0.65264325538E-01  0.51100000000E-03 0.  1.
</event>
<event>
 8    1  0.1063984E+005  0.1043930E+01  0.7957747E-01            NaN
         13   -1    0    0    0    0  0.00000000000E+00  0.00000000000E+00  0.74505805969E-08  0.10566000000E+00  0.10566000000E+00 0.  1.
     999900   -1    0    0    0    0 -0.00000000000E+00 -0.00000000000E+00 -0.74505805969E-08  0.93827000000E+00  0.93827000000E+00 0. -1.
     999902    2    1    2    0    0  0.16567525069E-02 -0.70189887907E-02 -0.26282918153E-01  0.10166755908E+01  0.10163102155E+01 0.  0.
     999903    2    3    3    0    0 -0.69152857200E-01 -0.10385460714E+00 -0.23603281773E-01  0.12853240516E+00  0.19888870814E-01 0.  0.
         14    1    1    2    0    0 -0.16567525069E-02  0.70189887907E-02  0.26282918153E-01  0.27254409169E-01  0.00000000000E+00 0.  1.
     999901    1    3    3    0    0  0.70809609707E-01  0.96835618348E-01 -0.26796363794E-02  0.88814318567E+00  0.88000000000E+00 0. -1.
        -11    1    4    4    0    0 -0.37309691969E-01 -0.47332269000E-01 -0.25508335517E-02  0.60325157905E-01  0.51100000000E-03 0. -1.
         11    1    4    4    0    0 -0.31843165232E-01 -0.56522338138E-01 -0.21052448222E-01  0.68207247252E-01  0.51100000000E-03 0.  1.
</event>
<event>
 7    1  0.1063984E+005  0.1043930E+01  0.7957747E-01            NaN
         13   -1    0    0    0    0  0.00000000000E+00  0.00000000000E+00  0.74505805969E-08  0.10566000000E+00  0.10566000000E+00 0. -1.
     999900   -1    0    0    0    0 -0.00000000000E+00 -0.00000000000E+00 -0.74505805969E-08  0.93827000000E+00  0.93827000000E+00 0. -1.
     999903    2    1    2    0    0 -0.68873839669E-01 -0.38998422815E-01  0.84433634865E-01  0.11728798910E+00  0.19051270748E-01 0.  0.
         14    1    1    2    0    0  0.33706576973E-01 -0.62608128854E-02  0.18218070649E-01  0.38823049950E-01  0.00000000000E+00 0. -1.
     999901    1    1    2    0    0  0.35167262696E-01  0.45259235700E-01 -0.10265170551E+00  0.88781896095E+00  0.88000000000E+00 0. -1.
        -11    1    3    3    0    0 -0.10729724865E-01 -0.13443307732E-01  0.12153528483E-01  0.21067009613E-01  0.51100000000E-03 0.  1.
         11    1    3    3    0    0 -0.58144114804E-01 -0.25555115083E-01  0.72280106382E-01  0.96220979484E-01  0.51100000000E-03 0. -1.
</event>
<event>
 8    1  0.1063984E+005  0.1043930E+01  0.7957747E-01            NaN
         13   -1    0    0    0    0  0.00000000000E+00  0.00000000000E+00  0.74505805969E-08  0.10566000000E+00  0.10566000000E+00 0. -1.
     999900   -1    0    0    0    0 -0.00000000000E+00 -0.00000000000E+00 -0.74505805969E-08  0.93827000000E+00  0.93827000000E+00 0.  1.
     999902    2    1    2    0    0 -0.17292360741E-01  0.16021744152E-01  0.37071619203E-02  0.10200665326E+01  0.10197873631E+01 0.  0.
     999903    2    3    3    0    0  0.27209690934E-01 -0.10859847767E+00  0.59568845967E-01  0.12842133411E+00  0.20238453792E-01 0.  0.
         14    1    1    2    0    0  0.17292360741E-01 -0.16021744152E-01 -0.37071619203E-02  0.23863467375E-01  0.00000000000E+00 0. -1.
     999901    1    3    3    0    0 -0.44502051675E-01  0.12462022182E+00 -0.55861684047E-01  0.89164519851E+00  0.88000000000E+00 0.  1.
        -11    1    4    4    0    0  0.75583938740E-02 -0.29811701323E-01  0.27010052161E-01  0.40934959295E-01  0.51100000000E-03 0. -1.
         11    1    4    4    0    0  0.19651297060E-01 -0.78786776347E-01  0.32558793806E-01  0.87486374816E-01  0.51100000000E-03 0.  1.
</event>
<event>
 8    1  0.1063984E+005  0.1043930E+01  0.7957747E-01            NaN
         13   -1    0    0    0    0  0.00000000000E+00  0.00000000000E+00  0.74505805969E-08  0.10566000000E+00  0.10566000000E+00 0.  1.
     999900   -1    0    0    0    0 -0.00000000000E+00 -0.00000000000E+00 -0.74505805969E-08  0.93827000000E+00  0.93827000000E+00 0. -1.
     999902    2    1    2    0    0 -0.24093547701E-02 -0.20942236897E-02  0.25775883117E-01  0.10179571890E+01  0.10176257915E+01 0.  0.
     999903    2    3    3    0    0 -0.37709057114E-01  0.37277781561E-01  0.11862580111E+00  0.13149380502E+00  0.20172607209E-01 0.  0.
         14    1    1    2    0    0  0.24093547701E-02  0.20942236897E-02 -0.25775883117E-01  0.25972811048E-01  0.00000000000E+00 0. -1.
     999901    1    3    3    0    0  0.35299702344E-01 -0.39372005250E-01 -0.92849917998E-01  0.88646338393E+00  0.88000000000E+00 0. -1.
        -11    1    4    4    0    0 -0.11028995470E-01  0.21721837457E-01  0.37864923526E-01  0.45027663921E-01  0.51100000000E-03 0.  1.
         11    1    4    4    0    0 -0.26680061644E-01  0.15555944103E-01  0.80760877589E-01  0.86466141097E-01  0.51100000000E-03 0. -1.
</event>
<event>
 8    1  0.1063984E+005  0.1043930E+01  0.7957747E-01            NaN
         13   -1    0    0    0    0  0.00000000000E+00  0.00000000000E+00  0.74505805969E-08  0.10566000000E+00  0.10566000000E+00 0.  1.
     999900   -1    0    0    0    0 -0.00000000000E+00 -0.00000000000E+00 -0.74505805969E-08  0.93827000000E+00  0.93827000000E+00 0. -1.
     999902    2    1    2    0    0  0.69424131967E-02  0.61611981536E-02 -0.21529787894E-01  0.10204845478E+01  0.10202151847E+01 0.  0.
     999903    2    3    3    0    0 -0.55257385621E-01 -0.84848180252E-01 -0.81784146091E-01  0.13156266728E+00  0.19170198528E-01 0.  0.
         14    1    1    2    0    0 -0.69424131967E-02 -0.61611981536E-02  0.21529787894E-01  0.23445452234E-01  0.00000000000E+00 0.  1.
     999901    1    3    3    0    0  0.62199798817E-01  0.91009378406E-01  0.60254358197E-01  0.88892188049E+00  0.88000000000E+00 0.  1.
        -11    1    4    4    0    0 -0.44934090946E-01 -0.69307746178E-01 -0.56250378583E-01  0.99934990975E-01  0.51100000000E-03 0.  1.
         11    1    4    4    0    0 -0.10323294675E-01 -0.15540434074E-01 -0.25533767508E-01  0.31627676302E-01  0.51100000000E-03 0. -1.
</event>
<event>
 8    1  0.1063984E+005  0.1043930E+01  0.7957747E-01            NaN
         13   -1    0    0    0    0  0.00000000000E+00  0.00000000000E+00  0.74505805969E-08  0.10566000000E+00  0.10566000000E+00 0. -1.
     999900   -1    0    0    0    0 -0.00000000000E+00 -0.00000000000E+00 -0.74505805969E-08  0.93827000000E+00  0.93827000000E+00 0. -1.
     999902    2    1    2    0    0  0.14595664863E-01  0.12217280013E-02  0.16749363194E-01  0.10216798939E+01  0.10214375842E+01 0.  0.
     999903    2    3    3    0    0 -0.57658119546E-01  0.10794515382E+00  0.44758319641E-01  0.13185125841E+00  0.20120441935E-01 0.  0.
         14    1    1    2    0    0 -0.14595664863E-01 -0.12217280013E-02 -0.16749363194E-01  0.22250106056E-01  0.00000000000E+00 0.  1.
     999901    1    3    3    0    0  0.72253784409E-01 -0.10672342582E+00 -0.28008956447E-01  0.88982863554E+00  0.88000000000E+00 0.  1.
        -11    1    4    4    0    0 -0.39012343566E-01  0.82600267843E-01  0.25061767695E-01  0.94726556568E-01  0.51100000000E-03 0. -1.
         11    1    4    4    0    0 -0.18645775980E-01  0.25344885978E-01  0.19696551946E-01  0.37124701839E-01  0.51100000000E-03 0.  1.
</event>
<event>
 8    1  0.1063984E+005  0.1043930E+01  0.7957747E-01            NaN
         13   -1    0    0    0    0  0.00000000000E+00  0.00000000000E+00  0.74505805969E-08  0.10566000000E+00  0.10566000000E+00 0.  1.
     999900   -1    0    0    0    0 -0.00000000000E+00 -0.00000000000E+00 -0.74505805969E-08  0.93827000000E+00  0.93827000000E+00 0.  1.
     999902    2    1    2    0    0 -0.10322423333E-01 -0.44361564093E-02 -0.20621652089E-01  0.10204462941E+01  0.10201760411E+01 0.  0.
     999903    2    3    3    0    0 -0.54050326822E-01 -0.10908633491E+00  0.43400749506E-01  0.13086062803E+00  0.20484448190E-01 0.  0.
         14    1    1    2    0    0  0.10322423333E-01  0.44361564093E-02  0.20621652089E-01  0.23483705884E-01  0.00000000000E+00 0.  1.
     999901    1    3    3    0    0  0.43727903489E-01  0.10465017850E+00 -0.64022401595E-01  0.88958566609E+00  0.88000000000E+00 0.  1.
        -11    1    4    4    0    0 -0.48524414604E-01 -0.94118998540E-01  0.44492924200E-01  0.11486028959E+00  0.51100000000E-03 0.  1.
         11    1    4    4    0    0 -0.55259122174E-02 -0.14967336366E-01 -0.10921746942E-02  0.16000338443E-01  0.51100000000E-03 0. -1.
</event>
<event>
 8    1  0.1063984E+005  0.1043930E+01  0.7957747E-01            NaN
         13   -1    0    0    0    0  0.00000000000E+00  0.00000000000E+00  0.74505805969E-08  0.10566000000E+00  0.10566000000E+00 0. -1.
     999900   -1    0    0    0    0 -0.00000000000E+00 -0.00000000000E+00 -0.74505805969E-08  0.93827000000E+00  0.93827000000E+00 0. -1.
     999902    2    1    2    0    0 -0.12746890350E-01 -0.53905084281E-02  0.19551989798E-01  0.10199754368E+01  0.10196941063E+01 0.  0.
     999903    2    3    3    0    0  0.63477901769E-01 -0.15962374029E-01 -0.10757197518E+00  0.12751676223E+00  0.20113513090E-01 0.  0.
         14    1    1    2    0    0  0.12746890350E-01  0.53905084281E-02 -0.19551989798E-01  0.23954563235E-01  0.00000000000E+00 0.  1.
     999901    1    3    3    0    0 -0.76224792120E-01  0.10571865601E-01  0.12712396498E+00  0.89245867453E+00  0.88000000000E+00 0.  1.
        -11    1    4    4    0    0  0.44826559205E-02 -0.30747037647E-02 -0.22737174026E-01  0.23383502967E-01  0.51100000000E-03 0.  1.
         11    1    4    4    0    0  0.58995245849E-01 -0.12887670265E-01 -0.84834801154E-01  0.10413325927E+00  0.51100000000E-03 0. -1.
</event>
<event>
 8    1  0.1063984E+005  0.1043930E+01  0.7957747E-01            NaN
         13   -1    0    0    0    0  0.00000000000E+00  0.00000000000E+00  0.74505805969E-08  0.10566000000E+00  0.10566000000E+00 0. -1.
     999900   -1    0    0    0    0 -0.00000000000E+00 -0.00000000000E+00 -0.74505805969E-08  0.93827000000E+00  0.93827000000E+00 0.  1.
     999902    2    1    2    0    0  0.86615511124E-03 -0.11908935863E-01 -0.20414261542E-01  0.10202801575E+01  0.10200060219E+01 0.  0.
     999903    2    3    3    0    0 -0.48060000544E-01 -0.11807379886E+00  0.24629346783E-01  0.13140802183E+00  0.20255316541E-01 0.  0.
         14    1    1    2    0    0 -0.86615511124E-03  0.11908935863E-01  0.20414261542E-01  0.23649842544E-01  0.00000000000E+00 0. -1.
     999901    1    3    3    0    0  0.48926155656E-01  0.10616486300E+00 -0.45043608325E-01  0.88887213563E+00  0.88000000000E+00 0.  1.
        -11    1    4    4    0    0 -0.14033732919E-01 -0.29260386869E-01 -0.23644199507E-02  0.32541780868E-01  0.51100000000E-03 0. -1.
         11    1    4    4    0    0 -0.34026267625E-01 -0.88813411993E-01  0.26993766734E-01  0.98866240961E-01  0.51100000000E-03 0.  1.
</event>
<event>
 8    1  0.1063984E+005  0.1043930E+01  0.7957747E-01            NaN
         13   -1    0    0    0    0  0.00000000000E+00  0.00000000000E+00  0.74505805969E-08  0.10566000000E+00  0.10566000000E+00 0. -1.
     999900   -1    0    0    0    0 -0.00000000000E+00 -0.00000000000E+00 -0.74505805969E-08  0.93827000000E+00  0.93827000000E+00 0.  1.
     999902    2    1    2    0    0 -0.14038250883E-01  0.20227478409E-01  0.30876816658E-02  0.10191155456E+01  0.10188133971E+01 0.  0.
     999903    2    3    3    0    0 -0.10980756006E+00  0.10368308084E-01 -0.69260471839E-01  0.13091330557E+00  0.13269459573E-01 0.  0.
         14    1    1    2    0    0  0.14038250883E-01 -0.20227478409E-01 -0.30876816658E-02  0.24814454431E-01  0.00000000000E+00 0.  1.
     999901    1    3    3    0    0  0.95769309179E-01  0.98591703248E-02  0.72348153505E-01  0.88820224000E+00  0.88000000000E+00 0. -1.
        -11    1    4    4    0    0 -0.11132659124E-01 -0.27702280279E-02 -0.58742598889E-02  0.12898771753E-01  0.51100000000E-03 0. -1.
         11    1    4    4    0    0 -0.98674900937E-01  0.13138536112E-01 -0.63386211950E-01  0.11801453382E+00  0.51100000000E-03 0.  1.
</event>
<event>
 8    1  0.1063984E+005  0.1043930E+01  0.7957747E-01            NaN
         13   -1    0    0    0    0  0.00000000000E+00  0.00000000000E+00  0.74505805969E-08  0.10566000000E+00  0.10566000000E+00 0.  1.
     999900   -1    0    0    0    0 -0.00000000000E+00 -0.00000000000E+00 -0.74505805969E-08  0.93827000000E+00  0.93827000000E+00 0. -1.
     999902    2    1    2    0    0  0.28873625832E-02 -0.25587538061E-02 -0.22634406189E-01  0.10209691545E+01  0.10207109356E+01 0.  0.
     999903    2    3    3    0    0  0.84689496937E-01  0.53519920503E-01  0.80087490510E-01  0.12946021175E+00  0.17585434544E-01 0.  0.
         14    1    1    2    0    0 -0.28873625832E-02  0.25587538061E-02  0.22634406189E-01  0.22960845525E-01  0.00000000000E+00 0.  1.
     999901    1    3    3    0    0 -0.81802134353E-01 -0.56078674309E-01 -0.10272189670E+00  0.89150894272E+00  0.88000000000E+00 0. -1.
        -11    1    4    4    0    0  0.76134684840E-01  0.52963728018E-01  0.69910501114E-01  0.11614381606E+00  0.51100000000E-03 0. -1.
         11    1    4    4    0    0  0.85548120962E-02  0.55619248519E-03  0.10176989396E-01  0.13316395693E-01  0.51100000000E-03 0.  1.
</event>
<event>
 8    1  0.1063984E+005  0.1043930E+01  0.7957747E-01            NaN
         13   -1    0    0    0    0  0.00000000000E+00  0.00000000000E+00  0.74505805969E-08  0.10566000000E+00  0.10566000000E+00 0.  1.
     999900   -1    0    0    0    0 -0.00000000000E+00 -0.00000000000E+00 -0.74505805969E-08  0.93827000000E+00  0.93827000000E+00 0.  1.
     999902    2    1    2    0    0 -0.74358592819E-02  0.22710661956E-01 -0.41024111255E-02  0.10196834343E+01  0.10193951198E+01 0.  0.
     999903    2    3    3    0    0  0.81995990894E-01 -0.71272055154E-01  0.63837936589E-01  0.12758103113E+00  0.19964693552E-01 0.  0.
         14    1    1    2    0    0  0.74358592819E-02 -0.22710661956E-01  0.41024111255E-02  0.24246565670E-01  0.00000000000E+00 0.  1.
     999901    1    3    3    0    0 -0.89431850176E-01  0.93982717110E-01 -0.67940347714E-01  0.89210240320E+00  0.88000000000E+00 0.  1.
        -11    1    4    4    0    0  0.52305292807E-01 -0.49991812471E-01  0.31975857805E-01  0.79105888359E-01  0.51100000000E-03 0.  1.
         11    1    4    4    0    0  0.29690698087E-01 -0.21280242683E-01  0.31862078784E-01  0.48475142775E-01  0.51100000000E-03 0. -1.
</event>
<event>
 8    1  0.1063984E+005  0.1043930E+01  0.7957747E-01            NaN
         13   -1    0    0    0    0  0.00000000000E+00  0.00000000000E+00  0.74505805969E-08  0.10566000000E+00  0.10566000000E+00 0. -1.
     999900   -1    0    0    0    0 -0.00000000000E+00 -0.00000000000E+00 -0.74505805969E-08  0.93827000000E+00  0.93827000000E+00 0. -1.
     999902    2    1    2    0    0 -0.22225039188E-01 -0.35595795813E-02 -0.21147114223E-02  0.10213225902E+01  0.10210723472E+01 0.  0.
     999903    2    3    3    0    0 -0.48529210489E-01 -0.92070328092E-01 -0.80494962569E-01  0.13302673531E+00  0.19612336008E-01 0.  0.
         14    1    1    2    0    0  0.22225039188E-01  0.35595795813E-02  0.21147114223E-02  0.22607409805E-01  0.00000000000E+00 0. -1.
     999901    1    3    3    0    0  0.26304171301E-01  0.88510748510E-01  0.78380251146E-01  0.88829585488E+00  0.88000000000E+00 0.  1.
        -11    1    4    4    0    0 -0.28460521516E-01 -0.69617286157E-01 -0.51011485940E-01  0.90879043985E-01  0.51100000000E-03 0.  1.
         11    1    4    4    0    0 -0.20068688973E-01 -0.22453041935E-01 -0.29483476629E-01  0.42147691329E-01  0.51100000000E-03 0. -1.
</event>
<event>
 8    1  0.1063984E+005  0.1043930E+01  0.7957747E-01            NaN
         13   -1    0    0    0    0  0.00000000000E+00  0.00000000000E+00  0.74505805969E-08  0.10566000000E+00  0.10566000000E+00 0.  1.
     999900   -1    0    0    0    0 -0.00000000000E+00 -0.00000000000E+00 -0.74505805969E-08  0.93827000000E+00  0.93827000000E+00 0.  1.
     999902    2    1    2    0    0  0.11417080339E-01  0.19264723489E-01 -0.96137021682E-02  0.10195598838E+01  0.10192685878E+01 0.  0.
     999903    2    3    3    0    0 -0.58616537102E-01  0.54983987497E-01  0.96138965565E-01  0.12974855541E+00  0.33657831587E-01 0.  0.
         14    1    1    2    0    0 -0.11417080339E-01 -0.19264723489E-01  0.96137021682E-02  0.24370116207E-01  0.00000000000E+00 0.  1.
     999901    1    3    3    0    0  0.70033617441E-01 -0.35719264009E-01 -0.10575266773E+00  0.88981132839E+00  0.88000000000E+00 0.  1.
        -11    1    4    4    0    0 -0.30340489322E-01  0.48989663784E-01  0.70959938278E-01  0.91411741103E-01  0.51100000000E-03 0. -1.
         11    1    4    4    0    0 -0.28276047780E-01  0.59943237132E-02  0.25179027287E-01  0.38336814303E-01  0.51100000000E-03 0.  1.
</event>
<event>
 8    1  0.1063984E+005  0.1043930E+01  0.7957747E-01            NaN
         13   -1    0    0    0    0  0.00000000000E+00  0.00000000000E+00  0.74505805969E-08  0.10566000000E+00  0.10566000000E+00 0.  1.
     999900   -1    0    0    0    0 -0.00000000000E+00 -0.00000000000E+00 -0.74505805969E-08  0.93827000000E+00  0.93827000000E+00 0.  1.
     999902    2    1    2    0    0  0.15758547385E-01  0.96443153411E-02  0.15153183448E-01  0.10200351553E+01  0.10197552424E+01 0.  0.
     999903    2    3    3    0    0  0.34778648972E-01  0.95054355844E-01  0.83930537754E-01  0.13302502924E+00  0.20160313690E-01 0.  0.
         14    1    1    2    0    0 -0.15758547385E-01 -0.96443153411E-02 -0.15153183448E-01  0.23894844689E-01  0.00000000000E+00 0. -1.
     999901    1    3    3    0    0 -0.19020101587E-01 -0.85410040503E-01 -0.68777354306E-01  0.88701012607E+00  0.88000000000E+00 0.  1.
        -11    1    4    4    0    0  0.23579771633E-01  0.37277772884E-01  0.31509513524E-01  0.54210225465E-01  0.51100000000E-03 0.  1.
         11    1    4    4    0    0  0.11198877340E-01  0.57776582960E-01  0.52421024230E-01  0.78814803778E-01  0.51100000000E-03 0. -1.
</event>
<event>
 8    1  0.1063984E+005  0.1043930E+01  0.7957747E-01            NaN
         13   -1    0    0    0    0  0.00000000000E+00  0.00000000000E+00  0.74505805969E-08  0.10566000000E+00  0.10566000000E+00 0. -1.
     999900   -1    0    0    0    0 -0.00000000000E+00 -0.00000000000E+00 -0.74505805969E-08  0.93827000000E+00  0.93827000000E+00 0. -1.
     999902    2    1    2    0    0  0.18692697148E-01  0.89569768098E-03  0.15112162306E-01  0.10198759639E+01  0.10195922642E+01 0.  0.
     999903    2    3    3    0    0 -0.21268862308E-01  0.61790509860E-01 -0.10849729052E+00  0.12825698635E+00  0.20193089990E-01 0.  0.
         14    1    1    2    0    0 -0.18692697148E-01 -0.89569768098E-03 -0.15112162306E-01  0.24054036055E-01  0.00000000000E+00 0.  1.
     999901    1    3    3    0    0  0.39961559455E-01 -0.60894812179E-01  0.12360945283E+00  0.89161897760E+00  0.88000000000E+00 0.  1.
        -11    1    4    4    0    0 -0.18778553982E-01  0.23891208632E-01 -0.46662446079E-01  0.55687242118E-01  0.51100000000E-03 0.  1.
         11    1    4    4    0    0 -0.24903083253E-02  0.37899301228E-01 -0.61834844443E-01  0.72569744229E-01  0.51100000000E-03 0. -1.
</event>
<event>
 8    1  0.1063984E+005  0.1043930E+01  0.7957747E-01            NaN
         13   -1    0    0    0    0  0.00000000000E+00  0.00000000000E+00  0.74505805969E-08  0.10566000000E+00  0.10566000000E+00 0. -1.
     999900   -1    0    0    0    0 -0.00000000000E+00 -0.00000000000E+00 -0.74505805969E-08  0.93827000000E+00  0.93827000000E+00 0.  1.
     999902    2    1    2    0    0 -0.49968562132E-02  0.20071670224E-01 -0.12612349483E-01  0.10197037358E+01  0.10194159097E+01 0.  0.
     999903    2    3    3    0    0  0.32608725551E-01 -0.10348987902E+00  0.63791140982E-01  0.12700046506E+00  0.16921123418E-01 0.  0.
         14    1    1    2    0    0  0.49968562132E-02 -0.20071670224E-01  0.12612349483E-01  0.24226264200E-01  0.00000000000E+00 0. -1.
     999901    1    3    3    0    0 -0.37605581764E-01  0.12356154924E+00 -0.76403490465E-01  0.89270327074E+00  0.88000000000E+00 0.  1.
        -11    1    4    4    0    0  0.81044260810E-02 -0.53808122718E-01  0.31905317230E-01  0.63080949431E-01  0.51100000000E-03 0.  1.
         11    1    4    4    0    0  0.24504299470E-01 -0.49681756297E-01  0.31885823753E-01  0.63919515632E-01  0.51100000000E-03 0. -1.
</event>
<event>
 8    1  0.1063984E+005  0.1043930E+01  0.7957747E-01            NaN
         13   -1    0    0    0    0  0.00000000000E+00  0.00000000000E+00  0.74505805969E-08  0.10566000000E+00  0.10566000000E+00 0. -1.
     999900   -1    0    0    0    0 -0.00000000000E+00 -0.00000000000E+00 -0.74505805969E-08  0.93827000000E+00  0.93827000000E+00 0.  1.
     999902    2    1    2    0    0  0.18673991820E-02  0.23688334851E-01  0.64918336250E-02  0.10192973328E+01  0.10189996489E+01 0.  0.
     999903    2    3    3    0    0 -0.12472311018E+00  0.92504865323E-02 -0.27789619295E-01  0.12946092847E+00  0.18612988624E-01 0.  0.
         14    1    1    2    0    0 -0.18673991820E-02 -0.23688334851E-01 -0.64918336250E-02  0.24632667163E-01  0.00000000000E+00 0.  1.
     999901    1    3    3    0    0  0.12659050936E+00  0.14437848319E-01  0.34281452921E-01  0.88983640437E+00  0.88000000000E+00 0. -1.
        -11    1    4    4    0    0 -0.78549282644E-01  0.13949604626E-01 -0.13645164306E-01  0.80938451326E-01  0.51100000000E-03 0.  1.
         11    1    4    4    0    0 -0.46173827536E-01 -0.46991180938E-02 -0.14144454989E-01  0.48522477143E-01  0.51100000000E-03 0. -1.
</event>
<event>
 8    1  0.1063984E+005  0.1043930E+01  0.7957747E-01            NaN
         13   -1    0    0    0    0  0.00000000000E+00  0.00000000000E+00  0.74505805969E-08  0.10566000000E+00  0.10566000000E+00 0.  1.
     999900   -1    0    0    0    0 -0.00000000000E+00 -0.00000000000E+00 -0.74505805969E-08  0.93827000000E+00  0.93827000000E+00 0. -1.
     999902    2    1    2    0    0  0.16531447570E-01  0.12646875692E-01 -0.12171895292E-01  0.10198180267E+01  0.10195329422E+01 0.  0.
     999903    2    3    3    0    0 -0.46366148506E-01 -0.58047106557E-01 -0.10456280291E+00  0.12993610947E+00  0.20753951086E-01 0.  0.
         14    1    1    2    0    0 -0.16531447570E-01 -0.12646875692E-01  0.12171895292E-01  0.24111973344E-01  0.00000000000E+00 0.  1.
     999901    1    3    3    0    0  0.62897596076E-01  0.70693982249E-01  0.92390907619E-01  0.88988191718E+00  0.88000000000E+00 0. -1.
        -11    1    4    4    0    0 -0.65847276640E-02 -0.21259390965E-01 -0.22953178395E-01  0.31975457183E-01  0.51100000000E-03 0. -1.
         11    1    4    4    0    0 -0.39781420842E-01 -0.36787715592E-01 -0.81609624515E-01  0.97960652291E-01  0.51100000000E-03 0.  1.
</event>
<event>
 8    1  0.1063984E+005  0.1043930E+01  0.7957747E-01            NaN
         13   -1    0    0    0    0  0.00000000000E+00  0.00000000000E+00  0.74505805969E-08  0.10566000000E+00  0.10566000000E+00 0.  1.
     999900   -1    0    0    0    0 -0.00000000000E+00 -0.00000000000E+00 -0.74505805969E-08  0.93827000000E+00  0.93827000000E+00 0.  1.
     999902    2    1    2    0    0 -0.18167496916E-01 -0.17091259517E-01  0.32065194476E-02  0.10187814242E+01  0.10184709812E+01 0.  0.
     999903    2    3    3    0    0  0.91171806457E-01  0.50008152174E-01 -0.69709535694E-01  0.12649550290E+00  0.18126756775E-01 0.  0.
         14    1    1    2    0    0  0.18167496916E-01  0.17091259517E-01 -0.32065194476E-02  0.25148575765E-01  0.00000000000E+00 0. -1.
     999901    1    3    3    0    0 -0.10933930337E+00 -0.67099411691E-01  0.72916055142E-01  0.89228592133E+00  0.88000000000E+00 0. -1.
        -11    1    4    4    0    0  0.77736146850E-01  0.35828953091E-01 -0.52202591833E-01  0.10025963356E+00  0.51100000000E-03 0. -1.
         11    1    4    4    0    0  0.13435659606E-01  0.14179199083E-01 -0.17506943861E-01  0.26235869340E-01  0.51100000000E-03 0.  1.
</event>
<event>
 8    1  0.1063984E+005  0.1043930E+01  0.7957747E-01            NaN
         13   -1    0    0    0    0  0.00000000000E+00  0.00000000000E+00  0.74505805969E-08  0.10566000000E+00  0.10566000000E+00 0. -1.
     999900   -1    0    0    0    0 -0.00000000000E+00 -0.00000000000E+00 -0.74505805969E-08  0.93827000000E+00  0.93827000000E+00 0. -1.
     999902    2    1    2    0    0  0.16833880614E-01 -0.29045828409E-02 -0.15780510704E-01  0.10206740189E+01  0.10204090416E+01 0.  0.
     999903    2    3    3    0    0  0.63082918673E-01 -0.91653710225E-01 -0.69919719606E-01  0.13334857971E+00  0.22654343814E-01 0.  0.
         14    1    1    2    0    0 -0.16833880614E-01  0.29045828409E-02  0.15780510704E-01  0.23255981081E-01  0.00000000000E+00 0.  1.
     999901    1    3    3    0    0 -0.46249038059E-01  0.88749127384E-01  0.54139208902E-01  0.88732543921E+00  0.88000000000E+00 0.  1.
        -11    1    4    4    0    0  0.32204775047E-01 -0.58588207480E-01 -0.51940384144E-01  0.84662803034E-01  0.51100000000E-03 0.  1.
         11    1    4    4    0    0  0.30878143626E-01 -0.33065502745E-01 -0.17979335462E-01  0.48685776672E-01  0.51100000000E-03 0. -1.
</event>
<event>
 8    1  0.1063984E+005  0.1043930E+01  0.7957747E-01            NaN
         13   -1    0    0    0    0  0.00000000000E+00  0.00000000000E+00  0.74505805969E-08  0.10566000000E+00  0.10566000000E+00 0.  1.
     999900   -1    0    0    0    0 -0.00000000000E+00 -0.00000000000E+00 -0.74505805969E-08  0.93827000000E+00  0.93827000000E+00 0.  1.
     999902    2    1    2    0    0 -0.35971683917E-02  0.65904007662E-02  0.22568188036E-01  0.10201456330E+01  0.10198683329E+01 0.  0.
     999903    2    3    3    0    0  0.18784359761E-01  0.69946563999E-03 -0.12425905102E+00  0.12768057819E+00  0.22553865788E-01 0.  0.
         14    1    1    2    0    0  0.35971683917E-02 -0.65904007662E-02 -0.22568188036E-01  0.23784367007E-01  0.00000000000E+00 0. -1.
     999901    1    3    3    0    0 -0.22381528152E-01  0.58909351262E-02  0.14682723906E+00  0.89246505481E+00  0.88000000000E+00 0. -1.
        -11    1    4    4    0    0 -0.17167715676E-02  0.17785881613E-02 -0.63398706379E-01  0.63448938304E-01  0.51100000000E-03 0. -1.
         11    1    4    4    0    0  0.20501131328E-01 -0.10791225213E-02 -0.60860344643E-01  0.64231639884E-01  0.51100000000E-03 0.  1.
</event>
<event>
 8    1  0.1063984E+005  0.1043930E+01  0.7957747E-01            NaN
         13   -1    0    0    0    0  0.00000000000E+00  0.00000000000E+00  0.74505805969E-08  0.10566000000E+00  0.10566000000E+00 0. -1.
     999900   -1    0    0    0    0 -0.00000000000E+00 -0.00000000000E+00 -0.74505805969E-08  0.93827000000E+00  0.93827000000E+00 0. -1.
     999902    2    1    2    0    0 -0.10359693833E-01  0.21830918962E-01 -0.17789280002E-02  0.10197003309E+01  0.10194124229E+01 0.  0.
     999903    2    3    3    0    0  0.91677060627E-01 -0.76042458201E-01  0.40508136207E-01  0.12741176043E+00  0.20142211971E-01 0.  0.
         14    1    1    2    0    0  0.10359693833E-01 -0.21830918962E-01  0.17789280002E-02  0.24229669083E-01  0.00000000000E+00 0. -1.
     999901    1    3    3    0    0 -0.10203675446E+00  0.97873377163E-01 -0.42287064207E-01  0.89228857048E+00  0.88000000000E+00 0. -1.
        -11    1    4    4    0    0  0.75822303990E-01 -0.61432820515E-01  0.40976282299E-01  0.10584106033E+00  0.51100000000E-03 0. -1.
         11    1    4    4    0    0  0.15854756637E-01 -0.14609637687E-01 -0.46814609230E-03  0.21570700107E-01  0.51100000000E-03 0.  1.
</event>
<event>
 8    1  0.1063984E+005  0.1043930E+01  0.7957747E-01            NaN
         13   -1    0    0    0    0  0.00000000000E+00  0.00000000000E+00  0.74505805969E-08  0.10566000000E+00  0.10566000000E+00 0. -1.
     999900   -1    0    0    0    0 -0.00000000000E+00 -0.00000000000E+00 -0.74505805969E-08  0.93827000000E+00  0.93827000000E+00 0.  1.
     999902    2    1    2    0    0 -0.13528025723E-01  0.20182110701E-01  0.75789024932E-03  0.10196215762E+01  0.10193317709E+01 0.  0.
     999903    2    3    3    0    0 -0.77526130587E-01  0.95373862266E-01 -0.46640861403E-01  0.13283174841E+00  0.19037565650E-01 0.  0.
         14    1    1    2    0    0  0.13528025723E-01 -0.20182110701E-01 -0.75789024932E-03  0.24308423848E-01  0.00000000000E+00 0.  1.
     999901    1    3    3    0    0  0.63998104864E-01 -0.75191751565E-01  0.47398751653E-01  0.88678982774E+00  0.88000000000E+00 0. -1.
        -11    1    4    4    0    0 -0.13542762315E-01  0.21009024589E-01 -0.17411996325E-01  0.30466773087E-01  0.51100000000E-03 0.  1.
         11    1    4    4    0    0 -0.63983368272E-01  0.74364837677E-01 -0.29228865079E-01  0.10236497532E+00  0.51100000000E-03 0. -1.
</event>
<event>
 8    1  0.1063984E+005  0.1043930E+01  0.7957747E-01            NaN
         13   -1    0    0    0    0  0.00000000000E+00  0.00000000000E+00  0.74505805969E-08  0.10566000000E+00  0.10566000000E+00 0. -1.
     999900   -1    0    0    0    0 -0.00000000000E+00 -0.00000000000E+00 -0.74505805969E-08  0.93827000000E+00  0.93827000000E+00 0. -1.
     999902    2    1    2    0    0  0.23247342818E-01 -0.94101613879E-02 -0.31974775986E-02  0.10186473192E+01  0.10183335146E+01 0.  0.
     999903    2    3    3    0    0  0.11742228306E+00  0.48130498443E-01  0.26998885865E-01  0.13124004671E+00  0.19760379141E-01 0.  0.
         14    1    1    2    0    0 -0.23247342818E-01  0.94101613879E-02  0.31974775986E-02  0.25282680800E-01  0.00000000000E+00 0. -1.
     999901    1    3    3    0    0 -0.94174940239E-01 -0.57540659830E-01 -0.30196363463E-01  0.88740727249E+00  0.88000000000E+00 0.  1.
        -11    1    4    4    0    0  0.66551399067E-01  0.17956606973E-01  0.96914215385E-02  0.69611157325E-01  0.51100000000E-03 0. -1.
         11    1    4    4    0    0  0.50870883990E-01  0.30173891470E-01  0.17307464326E-01  0.61628889385E-01  0.51100000000E-03 0.  1.
</event>
<event>
 8    1  0.1063984E+005  0.1043930E+01  0.7957747E-01            NaN
         13   -1    0    0    0    0  0.00000000000E+00  0.00000000000E+00  0.74505805969E-08  0.10566000000E+00  0.10566000000E+00 0.  1.
     999900   -1    0    0    0    0 -0.00000000000E+00 -0.00000000000E+00 -0.74505805969E-08  0.93827000000E+00  0.93827000000E+00 0. -1.
     999902    2    1    2    0    0  0.64231392408E-02  0.67530594851E-02  0.20409897933E-01  0.10214928776E+01  0.10212464318E+01 0.  0.
     999903    2    3    3    0    0  0.11334528156E+00  0.66267753643E-01  0.23656096451E-03  0.13279646884E+00  0.19906736271E-01 0.  0.
         14    1    1    2    0    0 -0.64231392408E-02 -0.67530594851E-02 -0.20409897933E-01  0.22437122448E-01  0.00000000000E+00 0. -1.
     999901    1    3    3    0    0 -0.10692214232E+00 -0.59514694158E-01  0.20173336968E-01  0.88869640872E+00  0.88000000000E+00 0. -1.
        -11    1    4    4    0    0  0.53478791280E-01  0.34657547957E-01 -0.93799790801E-02  0.64415618259E-01  0.51100000000E-03 0.  1.
         11    1    4    4    0    0  0.59866490282E-01  0.31610205686E-01  0.96165400446E-02  0.68380850577E-01  0.51100000000E-03 0. -1.
</event>
<event>
 8    1  0.1063984E+005  0.1043930E+01  0.7957747E-01            NaN
         13   -1    0    0    0    0  0.00000000000E+00  0.00000000000E+00  0.74505805969E-08  0.10566000000E+00  0.10566000000E+00 0.  1.
     999900   -1    0    0    0    0 -0.00000000000E+00 -0.00000000000E+00 -0.74505805969E-08  0.93827000000E+00  0.93827000000E+00 0.  1.
     999902    2    1    2    0    0  0.12535357365E-03  0.22149194998E-01 -0.23130269527E-01  0.10119048236E+01  0.10113979238E+01 0.  0.
     999903    2    3    3    0    0  0.27365706082E-01 -0.10448980997E+00  0.47003985306E-01  0.11966142182E+00  0.21035184327E-01 0.  0.
         14    1    1    2    0    0 -0.12535357365E-03 -0.22149194998E-01  0.23130269527E-01  0.32025176362E-01  0.00000000000E+00 0.  1.
     999901    1    3    3    0    0 -0.27240352509E-01  0.12663900497E+00 -0.70134254833E-01  0.89224340182E+00  0.88000000000E+00 0.  1.
        -11    1    4    4    0    0  0.20194940638E-01 -0.38019881964E-01  0.21284371027E-01  0.48027415327E-01  0.51100000000E-03 0. -1.
         11    1    4    4    0    0  0.71707654442E-02 -0.66469928011E-01  0.25719614278E-01  0.71634006495E-01  0.51100000000E-03 0.  1.
</event>
<event>
 8    1  0.1063984E+005  0.1043930E+01  0.7957747E-01            NaN
         13   -1    0    0    0    0  0.00000000000E+00  0.00000000000E+00  0.74505805969E-08  0.10566000000E+00  0.10566000000E+00 0. -1.
     999900   -1    0    0    0    0 -0.00000000000E+00 -0.00000000000E+00 -0.74505805969E-08  0.93827000000E+00  0.93827000000E+00 0.  1.
     999902    2    1    2    0    0 -0.17213275730E-01 -0.10585320788E-01 -0.15415551034E-01  0.10185137632E+01  0.10181965924E+01 0.  0.
     999903    2    3    3    0    0  0.97650508481E-01 -0.28851405214E-01  0.70901221973E-01  0.12667413412E+00  0.25521120426E-01 0.  0.
         14    1    1    2    0    0  0.17213275730E-01  0.10585320788E-01  0.15415551034E-01  0.25416236764E-01  0.00000000000E+00 0.  1.
     999901    1    3    3    0    0 -0.11486378421E+00  0.18266084426E-01 -0.86316773007E-01  0.89183962912E+00  0.88000000000E+00 0. -1.
        -11    1    4    4    0    0  0.68437557632E-01 -0.14687483631E-01  0.34974683028E-01  0.78249032224E-01  0.51100000000E-03 0. -1.
         11    1    4    4    0    0  0.29212950850E-01 -0.14163921583E-01  0.35926538944E-01  0.48425101894E-01  0.51100000000E-03 0.  1.
</event>
<event>
 8    1  0.1063984E+005  0.1043930E+01  0.7957747E-01            NaN
         13   -1    0    0    0    0  0.00000000000E+00  0.00000000000E+00  0.74505805969E-08  0.10566000000E+00  0.10566000000E+00 0. -1.
     999900   -1    0    0    0    0 -0.00000000000E+00 -0.00000000000E+00 -0.74505805969E-08  0.93827000000E+00  0.93827000000E+00 0.  1.
     999902    2    1    2    0    0 -0.17492181910E-02  0.47604999616E-02 -0.24255376147E-01  0.10191500606E+01  0.10188487624E+01 0.  0.
     999903    2    3    3    0    0  0.12593900603E+00 -0.13171184218E-02 -0.25151272829E-01  0.12991329648E+00  0.19557863821E-01 0.  0.
         14    1    1    2    0    0  0.17492181910E-02 -0.47604999616E-02  0.24255376147E-01  0.24779939391E-01  0.00000000000E+00 0. -1.
     999901    1    3    3    0    0 -0.12768822422E+00  0.60776183834E-02  0.89589668134E-03  0.88923676413E+00  0.88000000000E+00 0.  1.
        -11    1    4    4    0    0  0.11059533743E+00 -0.19160859257E-02 -0.15309589593E-01  0.11166756333E+00  0.51100000000E-03 0. -1.
         11    1    4    4    0    0  0.15343668596E-01  0.59896750398E-03 -0.98416832359E-02  0.18245733145E-01  0.51100000000E-03 0.  1.
</event>
<event>
 8    1  0.1063984E+005  0.1043930E+01  0.7957747E-01            NaN
         13   -1    0    0    0    0  0.00000000000E+00  0.00000000000E+00  0.74505805969E-08  0.10566000000E+00  0.10566000000E+00 0.  1.
     999900   -1    0    0    0    0 -0.00000000000E+00 -0.00000000000E+00 -0.74505805969E-08  0.93827000000E+00  0.93827000000E+00 0. -1.
     999902    2    1    2    0    0  0.93394940866E-02 -0.15211355801E-01  0.54778264597E-02  0.10252586830E+01  0.10250886542E+01 0.  0.
     999903    2    3    3    0    0 -0.69871943083E-01  0.21296317286E-01  0.11139191976E+00  0.13462685273E+00  0.19509180604E-01 0.  0.
         14    1    1    2    0    0 -0.93394940866E-02  0.15211355801E-01 -0.54778264597E-02  0.18671316981E-01  0.00000000000E+00 0. -1.
     999901    1    3    3    0    0  0.79211437170E-01 -0.36507673087E-01 -0.10591409330E+00  0.89063183029E+00  0.88000000000E+00 0. -1.
        -11    1    4    4    0    0 -0.98655287806E-02  0.51152099372E-02  0.70298095744E-02  0.13159535496E-01  0.51100000000E-03 0.  1.
         11    1    4    4    0    0 -0.60006414303E-01  0.16181107349E-01  0.10436211018E+00  0.12146731723E+00  0.51100000000E-03 0. -1.
</event>
<event>
 8    1  0.1063984E+005  0.1043930E+01  0.7957747E-01            NaN
         13   -1    0    0    0    0  0.00000000000E+00  0.00000000000E+00  0.74505805969E-08  0.10566000000E+00  0.10566000000E+00 0.  1.
     999900   -1    0    0    0    0 -0.00000000000E+00 -0.00000000000E+00 -0.74505805969E-08  0.93827000000E+00  0.93827000000E+00 0.  1.
     999902    2    1    2    0    0 -0.15215566254E-01 -0.14143117592E-01 -0.11839907210E-01  0.10200192360E+01  0.10197389456E+01 0.  0.
     999903    2    3    3    0    0  0.17852012139E-02 -0.12236717568E+00  0.43707580604E-01  0.13148842831E+00  0.20048479948E-01 0.  0.
         14    1    1    2    0    0  0.15215566254E-01  0.14143117592E-01  0.11839907210E-01  0.23910763987E-01  0.00000000000E+00 0.  1.
     999901    1    3    3    0    0 -0.17000767468E-01  0.10822405809E+00 -0.55547487814E-01  0.88853080771E+00  0.88000000000E+00 0.  1.
        -11    1    4    4    0    0  0.13970243192E-02 -0.11028881088E+00  0.32471192219E-01  0.11497918476E+00  0.51100000000E-03 0.  1.
         11    1    4    4    0    0  0.38817689470E-03 -0.12078364800E-01  0.11236388384E-01  0.16509243546E-01  0.51100000000E-03 0. -1.
</event>
<event>
 8    1  0.1063984E+005  0.1043930E+01  0.7957747E-01            NaN
         13   -1    0    0    0    0  0.00000000000E+00  0.00000000000E+00  0.74505805969E-08  0.10566000000E+00  0.10566000000E+00 0. -1.
     999900   -1    0    0    0    0 -0.00000000000E+00 -0.00000000000E+00 -0.74505805969E-08  0.93827000000E+00  0.93827000000E+00 0. -1.
     999902    2    1    2    0    0 -0.14049292998E-01  0.32690003999E-02  0.17943685737E-01  0.10209072970E+01  0.10206476690E+01 0.  0.
     999903    2    3    3    0    0  0.88879611072E-01 -0.90576022551E-01  0.20577687232E-01  0.12994815896E+00  0.18960002101E-01 0.  0.
         14    1    1    2    0    0  0.14049292998E-01 -0.32690003999E-02 -0.17943685737E-01  0.23022703038E-01  0.00000000000E+00 0.  1.
     999901    1    3    3    0    0 -0.10292890407E+00  0.93845022951E-01 -0.26340014955E-02  0.89095913800E+00  0.88000000000E+00 0. -1.
        -11    1    4    4    0    0  0.61266931053E-01 -0.59389723242E-01  0.22504023504E-01  0.88246633150E-01  0.51100000000E-03 0. -1.
         11    1    4    4    0    0  0.27612680019E-01 -0.31186299309E-01 -0.19263362715E-02  0.41701525810E-01  0.51100000000E-03 0.  1.
</event>
<event>
 8    1  0.1063984E+005  0.1043930E+01  0.7957747E-01            NaN
         13   -1    0    0    0    0  0.00000000000E+00  0.00000000000E+00  0.74505805969E-08  0.10566000000E+00  0.10566000000E+00 0.  1.
     999900   -1    0    0    0    0 -0.00000000000E+00 -0.00000000000E+00 -0.74505805969E-08  0.93827000000E+00  0.93827000000E+00 0.  1.
     999902    2    1    2    0    0  0.17090456175E-01 -0.15902440933E-01 -0.82127270368E-02  0.10191828748E+01  0.10188823838E+01 0.  0.
     999903    2    3    3    0    0 -0.55874015209E-01 -0.11325378257E+00 -0.26836211120E-01  0.13061777761E+00  0.19811530962E-01 0.  0.
         14    1    1    2    0    0 -0.17090456175E-01  0.15902440933E-01  0.82127270368E-02  0.24747125192E-01  0.00000000000E+00 0.  1.
     999901    1    3    3    0    0  0.72964471385E-01  0.97351341633E-01  0.18623484084E-01  0.88856509720E+00  0.88000000000E+00 0. -1.
        -11    1    4    4    0    0  0.12839762301E-02 -0.33075850203E-02  0.76147689806E-03  0.36646530112E-02  0.51100000000E-03 0. -1.
         11    1    4    4    0    0 -0.57157991439E-01 -0.10994619754E+00 -0.27597688018E-01  0.12695312460E+00  0.51100000000E-03 0.  1.
</event>
<event>
 8    1  0.1063984E+005  0.1043930E+01  0.7957747E-01            NaN
         13   -1    0    0    0    0  0.00000000000E+00  0.00000000000E+00  0.74505805969E-08  0.10566000000E+00  0.10566000000E+00 0. -1.
     999900   -1    0    0    0    0 -0.00000000000E+00 -0.00000000000E+00 -0.74505805969E-08  0.93827000000E+00  0.93827000000E+00 0.  1.
     999902    2    1    2    0    0  0.18998024271E-01  0.76930707462E-02 -0.19541978720E-02  0.10233405087E+01  0.10231333586E+01 0.  0.
     999903    2    3    3    0    0 -0.70267003641E-01  0.69315397511E-01  0.85640087147E-01  0.13236446235E+00  0.21072499441E-01 0.  0.
         14    1    1    2    0    0 -0.18998024271E-01 -0.76930707462E-02  0.19541978720E-02  0.20589491325E-01  0.00000000000E+00 0. -1.
     999901    1    3    3    0    0  0.89265027912E-01 -0.61622326765E-01 -0.87594285019E-01  0.89097604633E+00  0.88000000000E+00 0.  1.
        -11    1    4    4    0    0 -0.64985121351E-01  0.54106675073E-01  0.75249273606E-01  0.11319590356E+00  0.51100000000E-03 0. -1.
         11    1    4    4    0    0 -0.52818822901E-02  0.15208722438E-01  0.10390813541E-01  0.19168558782E-01  0.51100000000E-03 0.  1.
</event>
<event>
 8    1  0.1063984E+005  0.1043930E+01  0.7957747E-01            NaN
         13   -1    0    0    0    0  0.00000000000E+00  0.00000000000E+00  0.74505805969E-08  0.10566000000E+00  0.10566000000E+00 0.  1.
     999900   -1    0    0    0    0 -0.00000000000E+00 -0.00000000000E+00 -0.74505805969E-08  0.93827000000E+00  0.93827000000E+00 0. -1.
     999902    2    1    2    0    0 -0.10244599702E-02 -0.19261366499E-01  0.21448964300E-01  0.10150837207E+01  0.10146737664E+01 0.  0.
     999903    2    3    3    0    0 -0.10448766621E+00 -0.43877800393E-01 -0.50895994174E-01  0.12573317293E+00  0.19377688091E-01 0.  0.
         14    1    1    2    0    0  0.10244599702E-02  0.19261366499E-01 -0.21448964300E-01  0.28846279261E-01  0.00000000000E+00 0. -1.
     999901    1    3    3    0    0  0.10346320624E+00  0.24616433894E-01  0.72344958475E-01  0.88935054780E+00  0.88000000000E+00 0.  1.
        -11    1    4    4    0    0 -0.20358061236E-01 -0.15451141933E-01 -0.61452127088E-02  0.26290933885E-01  0.51100000000E-03 0.  1.
         11    1    4    4    0    0 -0.84129604975E-01 -0.28426658460E-01 -0.44750781466E-01  0.99442239050E-01  0.51100000000E-03 0. -1.
</event>
<event>
 8    1  0.1063984E+005  0.1043930E+01  0.7957747E-01            NaN
         13   -1    0    0    0    0  0.00000000000E+00  0.00000000000E+00  0.74505805969E-08  0.10566000000E+00  0.10566000000E+00 0. -1.
     999900   -1    0    0    0    0 -0.00000000000E+00 -0.00000000000E+00 -0.74505805969E-08  0.93827000000E+00  0.93827000000E+00 0. -1.
     999902    2    1    2    0    0 -0.24121920963E-01 -0.87768446146E-03 -0.17465812245E-02  0.10197290094E+01  0.10194417907E+01 0.  0.
     999903    2    3    3    0    0 -0.81912024355E-01  0.40282643544E-01 -0.93260707014E-01  0.13214312403E+00  0.20783999891E-01 0.  0.
         14    1    1    2    0    0  0.24121920963E-01  0.87768446146E-03  0.17465812245E-02  0.24200990619E-01  0.00000000000E+00 0. -1.
     999901    1    3    3    0    0  0.57790103392E-01 -0.41160328005E-01  0.91514125790E-01  0.88758588535E+00  0.88000000000E+00 0.  1.
        -11    1    4    4    0    0 -0.15682934461E-01  0.38370596018E-02 -0.27757114837E-01  0.32115354658E-01  0.51100000000E-03 0. -1.
         11    1    4    4    0    0 -0.66229089893E-01  0.36445583942E-01 -0.65503592177E-01  0.10002776937E+00  0.51100000000E-03 0.  1.
</event>
<event>
 8    1  0.1063984E+005  0.1043930E+01  0.7957747E-01            NaN
         13   -1    0    0    0    0  0.00000000000E+00  0.00000000000E+00  0.74505805969E-08  0.10566000000E+00  0.10566000000E+00 0. -1.
     999900   -1    0    0    0    0 -0.00000000000E+00 -0.00000000000E+00 -0.74505805969E-08  0.93827000000E+00  0.93827000000E+00 0. -1.
     999902    2    1    2    0    0 -0.60508771074E-02 -0.20853819341E-01  0.82516898675E-02  0.10207010250E+01  0.10204366698E+01 0.  0.
     999903    2    3    3    0    0  0.91336502682E-01  0.76248334472E-01  0.46058844892E-01  0.12921770433E+00  0.20484938089E-01 0.  0.
         14    1    1    2    0    0  0.60508771074E-02  0.20853819341E-01 -0.82516898675E-02  0.23228975021E-01  0.00000000000E+00 0. -1.
     999901    1    3    3    0    0 -0.97387379790E-01 -0.97102153812E-01 -0.37807155025E-01  0.89148332065E+00  0.88000000000E+00 0. -1.
        -11    1    4    4    0    0  0.82637855982E-01  0.75090359681E-01  0.44910434828E-01  0.12035275500E+00  0.51100000000E-03 0.  1.
         11    1    4    4    0    0  0.86986467008E-02  0.11579747909E-02  0.11484100638E-02  0.88649493353E-02  0.51100000000E-03 0. -1.
</event>
<event>
 8    1  0.1063984E+005  0.1043930E+01  0.7957747E-01            NaN
         13   -1    0    0    0    0  0.00000000000E+00  0.00000000000E+00  0.74505805969E-08  0.10566000000E+00  0.10566000000E+00 0. -1.
     999900   -1    0    0    0    0 -0.00000000000E+00 -0.00000000000E+00 -0.74505805969E-08  0.93827000000E+00  0.93827000000E+00 0.  1.
     999902    2    1    2    0    0 -0.17048316167E-01  0.13969329968E-01  0.83548988327E-02  0.10203590094E+01  0.10200867201E+01 0.  0.
     999903    2    3    3    0    0  0.78731551628E-01 -0.93285277393E-01  0.35640672653E-01  0.12827053433E+00  0.16800959219E-01 0.  0.
         14    1    1    2    0    0  0.17048316167E-01 -0.13969329968E-01 -0.83548988327E-02  0.23570990612E-01  0.00000000000E+00 0.  1.
     999901    1    3    3    0    0 -0.95779867795E-01  0.10725460736E+00 -0.27285773820E-01  0.89208847506E+00  0.88000000000E+00 0.  1.
        -11    1    4    4    0    0  0.45033161155E-01 -0.41399921671E-01  0.21144339616E-01  0.64724673323E-01  0.51100000000E-03 0. -1.
         11    1    4    4    0    0  0.33698390472E-01 -0.51885355722E-01  0.14496333036E-01  0.63545861009E-01  0.51100000000E-03 0.  1.
</event>
<event>
 8    1  0.1063984E+005  0.1043930E+01  0.7957747E-01            NaN
         13   -1    0    0    0    0  0.00000000000E+00  0.00000000000E+00  0.74505805969E-08  0.10566000000E+00  0.10566000000E+00 0.  1.
     999900   -1    0    0    0    0 -0.00000000000E+00 -0.00000000000E+00 -0.74505805969E-08  0.93827000000E+00  0.93827000000E+00 0. -1.
     999902    2    1    2    0    0  0.71732370623E-03 -0.20037068227E-01 -0.77276922667E-02  0.10224424249E+01  0.10222166093E+01 0.  0.
     999903    2    3    3    0    0 -0.50387246690E-01  0.11693983965E+00  0.16948895497E-01  0.13003932965E+00  0.20227740102E-01 0.  0.
         14    1    1    2    0    0 -0.71732370623E-03  0.20037068227E-01  0.77276922667E-02  0.21487575112E-01  0.00000000000E+00 0.  1.
     999901    1    3    3    0    0  0.51104570396E-01 -0.13697690788E+00 -0.24676587764E-01  0.89240309524E+00  0.88000000000E+00 0. -1.
        -11    1    4    4    0    0 -0.38770436894E-01  0.10188572739E+00  0.88756251303E-02  0.10937497916E+00  0.51100000000E-03 0.  1.
         11    1    4    4    0    0 -0.11616809796E-01  0.15054112262E-01  0.80732703666E-02  0.20664350491E-01  0.51100000000E-03 0. -1.
</event>
<event>
 8    1  0.1063984E+005  0.1043930E+01  0.7957747E-01            NaN
         13   -1    0    0    0    0  0.00000000000E+00  0.00000000000E+00  0.74505805969E-08  0.10566000000E+00  0.10566000000E+00 0. -1.
     999900   -1    0    0    0    0 -0.00000000000E+00 -0.00000000000E+00 -0.74505805969E-08  0.93827000000E+00  0.93827000000E+00 0. -1.
     999902    2    1    2    0    0  0.15682724440E-01 -0.11957603691E-01 -0.70165762265E-02  0.10229976214E+01  0.10227834418E+01 0.  0.
     999903    2    3    3    0    0 -0.28785939777E-01 -0.96315861622E-01 -0.86729573549E-01  0.13426372438E+00  0.19983824120E-01 0.  0.
         14    1    1    2    0    0 -0.15682724440E-01  0.11957603691E-01  0.70165762265E-02  0.20932378600E-01  0.00000000000E+00 0. -1.
     999901    1    3    3    0    0  0.44468664217E-01  0.84358257931E-01  0.79712997323E-01  0.88873389702E+00  0.88000000000E+00 0.  1.
        -11    1    4    4    0    0 -0.37707654924E-02 -0.30589620718E-01 -0.16886975092E-01  0.35147896335E-01  0.51100000000E-03 0.  1.
         11    1    4    4    0    0 -0.25015174284E-01 -0.65726240904E-01 -0.69842598458E-01  0.99115828041E-01  0.51100000000E-03 0. -1.
</event>
<event>
 8    1  0.1063984E+005  0.1043930E+01  0.7957747E-01            NaN
         13   -1    0    0    0    0  0.00000000000E+00  0.00000000000E+00  0.74505805969E-08  0.10566000000E+00  0.10566000000E+00 0.  1.
     999900   -1    0    0    0    0 -0.00000000000E+00 -0.00000000000E+00 -0.74505805969E-08  0.93827000000E+00  0.93827000000E+00 0.  1.
     999902    2    1    2    0    0  0.32934083228E-02 -0.23703544178E-01 -0.10687649867E-03  0.10199985151E+01  0.10197177330E+01 0.  0.
     999903    2    3    3    0    0 -0.32075326184E-01  0.25679621719E-01 -0.12123510148E+00  0.12962685603E+00  0.20418189280E-01 0.  0.
         14    1    1    2    0    0 -0.32934083228E-02  0.23703544178E-01  0.10687649867E-03  0.23931484860E-01  0.00000000000E+00 0.  1.
     999901    1    3    3    0    0  0.35368734507E-01 -0.49383165898E-01  0.12112822498E+00  0.89037165911E+00  0.88000000000E+00 0. -1.
        -11    1    4    4    0    0 -0.27460245532E-01  0.27597553888E-01 -0.91034673175E-01  0.99011428160E-01  0.51100000000E-03 0. -1.
         11    1    4    4    0    0 -0.46150806528E-02 -0.19179321684E-02 -0.30200428302E-01  0.30615427874E-01  0.51100000000E-03 0.  1.
</event>
<event>
 8    1  0.1063984E+005  0.1043930E+01  0.7957747E-01            NaN
         13   -1    0    0    0    0  0.00000000000E+00  0.00000000000E+00  0.74505805969E-08  0.10566000000E+00  0.10566000000E+00 0.  1.
     999900   -1    0    0    0    0 -0.00000000000E+00 -0.00000000000E+00 -0.74505805969E-08  0.93827000000E+00  0.93827000000E+00 0. -1.
     999902    2    1    2    0    0 -0.99692460913E-02 -0.17726344956E-01  0.12043983965E-01  0.10202938683E+01  0.10200200542E+01 0.  0.
     999903    2    3    3    0    0 -0.44912338149E-01  0.70758803166E-01 -0.95576170190E-01  0.12864778451E+00  0.19786909988E-01 0.  0.
         14    1    1    2    0    0  0.99692460913E-02  0.17726344956E-01 -0.12043983965E-01  0.23636131724E-01  0.00000000000E+00 0. -1.
     999901    1    3    3    0    0  0.34943092058E-01 -0.88485148121E-01  0.10762015416E+00  0.89164608377E+00  0.88000000000E+00 0. -1.
        -11    1    4    4    0    0 -0.25862860099E-01  0.23411205721E-01 -0.34699944791E-01  0.49206903736E-01  0.51100000000E-03 0.  1.
         11    1    4    4    0    0 -0.19049478050E-01  0.47347597445E-01 -0.60876225399E-01  0.79440880771E-01  0.51100000000E-03 0. -1.
</event>
<event>
 8    1  0.1063984E+005  0.1043930E+01  0.7957747E-01            NaN
         13   -1    0    0    0    0  0.00000000000E+00  0.00000000000E+00  0.74505805969E-08  0.10566000000E+00  0.10566000000E+00 0.  1.
     999900   -1    0    0    0    0 -0.00000000000E+00 -0.00000000000E+00 -0.74505805969E-08  0.93827000000E+00  0.93827000000E+00 0. -1.
     999902    2    1    2    0    0 -0.13046526410E-02 -0.12552775977E-01  0.17574703876E-01  0.10222933524E+01  0.10220643589E+01 0.  0.
     999903    2    3    3    0    0  0.69396688413E-03 -0.10801680516E+00  0.78459569011E-01  0.13503671413E+00  0.20270629156E-01 0.  0.
         14    1    1    2    0    0  0.13046526410E-02  0.12552775977E-01 -0.17574703876E-01  0.21636647605E-01  0.00000000000E+00 0. -1.
     999901    1    3    3    0    0 -0.19986195251E-02  0.95464029181E-01 -0.60884865135E-01  0.88725663827E+00  0.88000000000E+00 0. -1.
        -11    1    4    4    0    0 -0.96962598093E-02 -0.53395858350E-01  0.40339839435E-01  0.67621734005E-01  0.51100000000E-03 0.  1.
         11    1    4    4    0    0  0.10390226693E-01 -0.54620946808E-01  0.38119729576E-01  0.67414980123E-01  0.51100000000E-03 0. -1.
</event>
<event>
 7    1  0.1063984E+005  0.1043930E+01  0.7957747E-01            NaN
         13   -1    0    0    0    0  0.00000000000E+00  0.00000000000E+00  0.74505805969E-08  0.10566000000E+00  0.10566000000E+00 0. -1.
     999900   -1    0    0    0    0 -0.00000000000E+00 -0.00000000000E+00 -0.74505805969E-08  0.93827000000E+00  0.93827000000E+00 0. -1.
     999903    2    1    2    0    0 -0.50163808404E-01  0.82817390579E-01 -0.55617705531E-01  0.11311999772E+00  0.18101846832E-01 0.  0.
         14    1    1    2    0    0 -0.21379396794E-02  0.36806520091E-01  0.16295557129E-01  0.40309253149E-01  0.00000000000E+00 0.  1.
     999901    1    1    2    0    0  0.52301748084E-01 -0.11962391067E+00  0.39322148402E-01  0.89050074914E+00  0.88000000000E+00 0.  1.
        -11    1    3    3    0    0 -0.12712157580E-01  0.17844711525E-01 -0.21596185630E-01  0.30768312182E-01  0.51100000000E-03 0. -1.
         11    1    3    3    0    0 -0.37451650824E-01  0.64972679054E-01 -0.34021519901E-01  0.82351685534E-01  0.51100000000E-03 0.  1.
</event>
<event>
 8    1  0.1063984E+005  0.1043930E+01  0.7957747E-01            NaN
         13   -1    0    0    0    0  0.00000000000E+00  0.00000000000E+00  0.74505805969E-08  0.10566000000E+00  0.10566000000E+00 0.  1.
     999900   -1    0    0    0    0 -0.00000000000E+00 -0.00000000000E+00 -0.74505805969E-08  0.93827000000E+00  0.93827000000E+00 0. -1.
     999902    2    1    2    0    0  0.33545200227E-02 -0.16120104664E-01  0.15820014293E-01  0.10210961779E+01  0.10208408402E+01 0.  0.
     999903    2    3    3    0    0  0.22017583300E-01 -0.67148232128E-01 -0.10814116459E+00  0.13074874371E+00  0.20175813508E-01 0.  0.
         14    1    1    2    0    0 -0.33545200227E-02  0.16120104664E-01 -0.15820014293E-01  0.22833822089E-01  0.00000000000E+00 0. -1.
     999901    1    3    3    0    0 -0.18663063278E-01  0.51028127465E-01  0.12396117888E+00  0.89034743420E+00  0.88000000000E+00 0.  1.
        -11    1    4    4    0    0  0.11013208675E-01 -0.36517899941E-01 -0.75829213642E-01  0.84883323120E-01  0.51100000000E-03 0. -1.
         11    1    4    4    0    0  0.11004374626E-01 -0.30630332188E-01 -0.32311950945E-01  0.45865420588E-01  0.51100000000E-03 0.  1.
</event>
<event>
 8    1  0.1063984E+005  0.1043930E+01  0.7957747E-01            NaN
         13   -1    0    0    0    0  0.00000000000E+00  0.00000000000E+00  0.74505805969E-08  0.10566000000E+00  0.10566000000E+00 0. -1.
     999900   -1    0    0    0    0 -0.00000000000E+00 -0.00000000000E+00 -0.74505805969E-08  0.93827000000E+00  0.93827000000E+00 0. -1.
     999902    2    1    2    0    0 -0.19228641031E-01  0.48407237720E-02 -0.12320719111E-01  0.10205853355E+01  0.10203183099E+01 0.  0.
     999903    2    3    3    0    0  0.82990068996E-02  0.41422856392E-01  0.12080542027E+00  0.12939590958E+00  0.19095164390E-01 0.  0.
         14    1    1    2    0    0  0.19228641031E-01 -0.48407237720E-02  0.12320719111E-01  0.23344664529E-01  0.00000000000E+00 0. -1.
     999901    1    3    3    0    0 -0.27527647931E-01 -0.36582132620E-01 -0.13312613938E+00  0.89118942589E+00  0.88000000000E+00 0. -1.
        -11    1    4    4    0    0 -0.36876197119E-02  0.20821248659E-01  0.41421560391E-01  0.46509458405E-01  0.51100000000E-03 0.  1.
         11    1    4    4    0    0  0.11986626612E-01  0.20601607733E-01  0.79383859879E-01  0.82886451179E-01  0.51100000000E-03 0. -1.
</event>
<event>
 8    1  0.1063984E+005  0.1043930E+01  0.7957747E-01            NaN
         13   -1    0    0    0    0  0.00000000000E+00  0.00000000000E+00  0.74505805969E-08  0.10566000000E+00  0.10566000000E+00 0.  1.
     999900   -1    0    0    0    0 -0.00000000000E+00 -0.00000000000E+00 -0.74505805969E-08  0.93827000000E+00  0.93827000000E+00 0. -1.
     999902    2    1    2    0    0 -0.17555825177E-01  0.16372259122E-01 -0.15708790885E-03  0.10199241144E+01  0.10196415628E+01 0.  0.
     999903    2    3    3    0    0  0.10815937652E+00 -0.60035020986E-01  0.23319337252E-01  0.12740323122E+00  0.19624916841E-01 0.  0.
         14    1    1    2    0    0  0.17555825177E-01 -0.16372259122E-01  0.15708790885E-03  0.24005885591E-01  0.00000000000E+00 0. -1.
     999901    1    3    3    0    0 -0.12571520170E+00  0.76407280108E-01 -0.23476425161E-01  0.89252088319E+00  0.88000000000E+00 0.  1.
        -11    1    4    4    0    0  0.37960734323E-01 -0.32026998449E-01  0.90781406626E-02  0.50491778924E-01  0.51100000000E-03 0. -1.
         11    1    4    4    0    0  0.70198642199E-01 -0.28008022537E-01  0.14241196589E-01  0.76911452296E-01  0.51100000000E-03 0.  1.
</event>
<event>
 8    1  0.1063984E+005  0.1043930E+01  0.7957747E-01            NaN
         13   -1    0    0    0    0  0.00000000000E+00  0.00000000000E+00  0.74505805969E-08  0.10566000000E+00  0.10566000000E+00 0.  1.
     999900   -1    0    0    0    0 -0.00000000000E+00 -0.00000000000E+00 -0.74505805969E-08  0.93827000000E+00  0.93827000000E+00 0.  1.
     999902    2    1    2    0    0  0.83843081846E-02 -0.41427102372E-02 -0.21000070519E-01  0.10209417066E+01  0.10206828629E+01 0.  0.
     999903    2    3    3    0    0 -0.87172232138E-01  0.68008338934E-01 -0.68500076679E-01  0.13156379093E+00  0.19815104274E-01 0.  0.
         14    1    1    2    0    0 -0.83843081846E-02  0.41427102372E-02  0.21000070519E-01  0.22988293404E-01  0.00000000000E+00 0.  1.
     999901    1    3    3    0    0  0.95556540323E-01 -0.72151049171E-01  0.47500006161E-01  0.88937791567E+00  0.88000000000E+00 0.  1.
        -11    1    4    4    0    0 -0.72066008673E-01  0.64248843092E-01 -0.56176252296E-01  0.11170253304E+00  0.51100000000E-03 0. -1.
         11    1    4    4    0    0 -0.15106223465E-01  0.37594958417E-02 -0.12323824384E-01  0.19861257886E-01  0.51100000000E-03 0.  1.
</event>
<event>
 7    1  0.1063984E+005  0.1043930E+01  0.7957747E-01            NaN
         13   -1    0    0    0    0  0.00000000000E+00  0.00000000000E+00  0.74505805969E-08  0.10566000000E+00  0.10566000000E+00 0.  1.
     999900   -1    0    0    0    0 -0.00000000000E+00 -0.00000000000E+00 -0.74505805969E-08  0.93827000000E+00  0.93827000000E+00 0. -1.
     999903    2    1    2    0    0 -0.11186655720E-01 -0.15494491521E-01 -0.72775096831E-01  0.77680388915E-01  0.19308225439E-01 0.  0.
         14    1    1    2    0    0 -0.66237384698E-01 -0.10267614325E-01 -0.35530134563E-01  0.75863070710E-01  0.00000000000E+00 0.  1.
     999901    1    1    2    0    0  0.77424040418E-01  0.25762105846E-01  0.10830523139E+00  0.89038654037E+00  0.88000000000E+00 0.  1.
        -11    1    3    3    0    0  0.43483442450E-02  0.45819331304E-03 -0.18423642561E-01  0.18942274546E-01  0.51100000000E-03 0.  1.
         11    1    3    3    0    0 -0.15534999965E-01 -0.15952684834E-01 -0.54351454270E-01  0.58738114369E-01  0.51100000000E-03 0. -1.
</event>
<event>
 8    1  0.1063984E+005  0.1043930E+01  0.7957747E-01            NaN
         13   -1    0    0    0    0  0.00000000000E+00  0.00000000000E+00  0.74505805969E-08  0.10566000000E+00  0.10566000000E+00 0. -1.
     999900   -1    0    0    0    0 -0.00000000000E+00 -0.00000000000E+00 -0.74505805969E-08  0.93827000000E+00  0.93827000000E+00 0. -1.
     999902    2    1    2    0    0  0.90293817001E-02 -0.22860586096E-01  0.90972267665E-02  0.10177213055E+01  0.10173837821E+01 0.  0.
     999903    2    3    3    0    0 -0.41773338884E-01 -0.36836437541E-02 -0.11817129266E+00  0.12690934582E+00  0.19569020825E-01 0.  0.
         14    1    1    2    0    0 -0.90293817001E-02  0.22860586096E-01 -0.90972267665E-02  0.26208694461E-01  0.00000000000E+00 0. -1.
     999901    1    3    3    0    0  0.50802720584E-01 -0.19176942342E-01  0.12726851942E+00  0.89081195972E+00  0.88000000000E+00 0.  1.
        -11    1    4    4    0    0 -0.20704963486E-01 -0.10215442733E-01 -0.46499373201E-01  0.51918239688E-01  0.51100000000E-03 0. -1.
         11    1    4    4    0    0 -0.21068375397E-01  0.65317989786E-02 -0.71671919457E-01  0.74991106135E-01  0.51100000000E-03 0.  1.
</event>
<event>
 8    1  0.1063984E+005  0.1043930E+01  0.7957747E-01            NaN
         13   -1    0    0    0    0  0.00000000000E+00  0.00000000000E+00  0.74505805969E-08  0.10566000000E+00  0.10566000000E+00 0.  1.
     999900   -1    0    0    0    0 -0.00000000000E+00 -0.00000000000E+00 -0.74505805969E-08  0.93827000000E+00  0.93827000000E+00 0.  1.
     999902    2    1    2    0    0 -0.98091165687E-02 -0.19114972748E-01 -0.93557397214E-02  0.10204964596E+01  0.10202273733E+01 0.  0.
     999903    2    3    3    0    0 -0.19629796910E-01 -0.38879030881E-01  0.12151359824E+00  0.13054486124E+00  0.19480715357E-01 0.  0.
         14    1    1    2    0    0  0.98091165687E-02  0.19114972748E-01  0.93557397214E-02  0.23433540423E-01  0.00000000000E+00 0.  1.
     999901    1    3    3    0    0  0.98206803415E-02  0.19764058133E-01 -0.13086933796E+00  0.88995159833E+00  0.88000000000E+00 0.  1.
        -11    1    4    4    0    0 -0.16737315806E-01 -0.28392164781E-01  0.63791384194E-01  0.71804279675E-01  0.51100000000E-03 0. -1.
         11    1    4    4    0    0 -0.28924811038E-02 -0.10486866100E-01  0.57722214047E-01  0.58740581569E-01  0.51100000000E-03 0.  1.
</event>
<event>
 8    1  0.1063984E+005  0.1043930E+01  0.7957747E-01            NaN
         13   -1    0    0    0    0  0.00000000000E+00  0.00000000000E+00  0.74505805969E-08  0.10566000000E+00  0.10566000000E+00 0. -1.
     999900   -1    0    0    0    0 -0.00000000000E+00 -0.00000000000E+00 -0.74505805969E-08  0.93827000000E+00  0.93827000000E+00 0. -1.
     999902    2    1    2    0    0  0.51768292389E-02 -0.20200008500E-01  0.10518775323E-01  0.10205743896E+01  0.10203071107E+01 0.  0.
     999903    2    3    3    0    0 -0.83465165670E-01  0.19535031376E-01  0.97011182398E-01  0.13101426617E+00  0.20137455127E-01 0.  0.
         14    1    1    2    0    0 -0.51768292389E-02  0.20200008500E-01 -0.10518775323E-01  0.23355610432E-01  0.00000000000E+00 0.  1.
     999901    1    3    3    0    0  0.88641994909E-01 -0.39735039876E-01 -0.86492407076E-01  0.88956012340E+00  0.88000000000E+00 0.  1.
        -11    1    4    4    0    0 -0.13806119499E-01 -0.42321739797E-02  0.15661598660E-01  0.21308848533E-01  0.51100000000E-03 0. -1.
         11    1    4    4    0    0 -0.69659046171E-01  0.23767205356E-01  0.81349583738E-01  0.10970541764E+00  0.51100000000E-03 0.  1.
</event>
<event>
 8    1  0.1063984E+005  0.1043930E+01  0.7957747E-01            NaN
         13   -1    0    0    0    0  0.00000000000E+00  0.00000000000E+00  0.74505805969E-08  0.10566000000E+00  0.10566000000E+00 0.  1.
     999900   -1    0    0    0    0 -0.00000000000E+00 -0.00000000000E+00 -0.74505805969E-08  0.93827000000E+00  0.93827000000E+00 0. -1.
     999902    2    1    2    0    0  0.11647040697E-01 -0.14724475645E-01 -0.13947861680E-01  0.10205418281E+01  0.10202737948E+01 0.  0.
     999903    2    3    3    0    0  0.10610077695E+00 -0.74223236807E-01  0.22904847901E-01  0.13272442959E+00  0.18018834613E-01 0.  0.
         14    1    1    2    0    0 -0.11647040697E-01  0.14724475645E-01  0.13947861680E-01  0.23388171913E-01  0.00000000000E+00 0.  1.
     999901    1    3    3    0    0 -0.94453736253E-01  0.59498761162E-01 -0.36852709581E-01  0.88781739850E+00  0.88000000000E+00 0. -1.
        -11    1    4    4    0    0  0.29630848305E-01 -0.29830729588E-01  0.11318247447E-01  0.43545647834E-01  0.51100000000E-03 0. -1.
         11    1    4    4    0    0  0.76469928645E-01 -0.44392507219E-01  0.11586600454E-01  0.89178781755E-01  0.51100000000E-03 0.  1.
</event>
<event>
 8    1  0.1063984E+005  0.1043930E+01  0.7957747E-01            NaN
         13   -1    0    0    0    0  0.00000000000E+00  0.00000000000E+00  0.74505805969E-08  0.10566000000E+00  0.10566000000E+00 0. -1.
     999900   -1    0    0    0    0 -0.00000000000E+00 -0.00000000000E+00 -0.74505805969E-08  0.93827000000E+00  0.93827000000E+00 0. -1.
     999902    2    1    2    0    0 -0.18078378780E-01 -0.16096102010E-01  0.16775568952E-02  0.10196663136E+01  0.10193775869E+01 0.  0.
     999903    2    3    3    0    0  0.12604544676E+00 -0.83512741928E-02  0.75339564531E-03  0.12790821105E+00  0.20068493198E-01 0.  0.
         14    1    1    2    0    0  0.18078378780E-01  0.16096102010E-01 -0.16775568952E-02  0.24263686372E-01  0.00000000000E+00 0.  1.
     999901    1    3    3    0    0 -0.14412382554E+00 -0.77448278168E-02  0.92416124993E-03  0.89175810258E+00  0.88000000000E+00 0. -1.
        -11    1    4    4    0    0  0.10996058640E-01 -0.65082023173E-02 -0.10275381792E-02  0.12829144895E-01  0.51100000000E-03 0. -1.
         11    1    4    4    0    0  0.11504938812E+00 -0.18430718755E-02  0.17809338245E-02  0.11507906615E+00  0.51100000000E-03 0.  1.
</event>
<event>
 8    1  0.1504130E+005  0.1043930E+01  0.7957747E-01            NaN
         13   -1    0    0    0    0  0.00000000000E+00  0.00000000000E+00  0.74505805969E-08  0.10566000000E+00  0.10566000000E+00 0.  1.
     999900   -1    0    0    0    0 -0.00000000000E+00 -0.00000000000E+00 -0.74505805969E-08  0.93827000000E+00  0.93827000000E+00 0. -1.
     999902    2    1    2    0    0  0.27599692940E-02 -0.29036606333E-01  0.48710323799E-02  0.10143585798E+01  0.10139274429E+01 0.  0.
     999903    2    3    3    0    0  0.11804060151E+00 -0.20996001780E-03  0.38149416000E-01  0.12574840061E+00  0.20582872127E-01 0.  0.
         14    1    1    2    0    0 -0.27599692940E-02  0.29036606333E-01 -0.48710323799E-02  0.29571420227E-01  0.00000000000E+00 0.  1.
     999901    1    3    3    0    0 -0.11528063222E+00 -0.28826646315E-01 -0.33278383620E-01  0.88861017917E+00  0.88000000000E+00 0. -1.
        -11    1    4    4    0    0  0.82660450306E-01  0.88636519986E-02  0.23517631474E-01  0.86398231941E-01  0.51100000000E-03 0. -1.
         11    1    4    4    0    0  0.35380151208E-01 -0.90736120164E-02  0.14631784526E-01  0.39350168664E-01  0.51100000000E-03 0.  1.
</event>
<event>
 8    1  0.1063984E+005  0.1043930E+01  0.7957747E-01            NaN
         13   -1    0    0    0    0  0.00000000000E+00  0.00000000000E+00  0.74505805969E-08  0.10566000000E+00  0.10566000000E+00 0.  1.
     999900   -1    0    0    0    0 -0.00000000000E+00 -0.00000000000E+00 -0.74505805969E-08  0.93827000000E+00  0.93827000000E+00 0. -1.
     999902    2    1    2    0    0  0.30906710820E-01  0.67917950532E-02 -0.66924205706E-02  0.10115858854E+01  0.10110686732E+01 0.  0.
     999903    2    3    3    0    0  0.99011892855E-01 -0.33582758712E-01  0.65676803338E-01  0.12507264528E+00  0.19964155128E-01 0.  0.
         14    1    1    2    0    0 -0.30906710820E-01 -0.67917950532E-02  0.66924205706E-02  0.32344114563E-01  0.00000000000E+00 0. -1.
     999901    1    3    3    0    0 -0.68105182035E-01  0.40374553765E-01 -0.72369223909E-01  0.88651324016E+00  0.88000000000E+00 0. -1.
        -11    1    4    4    0    0  0.52636058318E-01 -0.26977242992E-01  0.42296018195E-01  0.72715476694E-01  0.51100000000E-03 0.  1.
         11    1    4    4    0    0  0.46375834537E-01 -0.66055157204E-02  0.23380785144E-01  0.52357168582E-01  0.51100000000E-03 0. -1.
</event>
<event>
 8    1  0.1063984E+005  0.1043930E+01  0.7957747E-01            NaN
         13   -1    0    0    0    0  0.00000000000E+00  0.00000000000E+00  0.74505805969E-08  0.10566000000E+00  0.10566000000E+00 0. -1.
     999900   -1    0    0    0    0 -0.00000000000E+00 -0.00000000000E+00 -0.74505805969E-08  0.93827000000E+00  0.93827000000E+00 0.  1.
     999902    2    1    2    0    0 -0.25960020951E-02 -0.20073839465E-01  0.11025018746E-01  0.10208811541E+01  0.10206209294E+01 0.  0.
     999903    2    3    3    0    0  0.24114871784E-01  0.12301349064E+00  0.22869140395E-01  0.12884542724E+00  0.19086660734E-01 0.  0.
         14    1    1    2    0    0  0.25960020951E-02  0.20073839465E-01 -0.11025018746E-01  0.23048845873E-01  0.00000000000E+00 0.  1.
     999901    1    3    3    0    0 -0.26710873879E-01 -0.14308733011E+00 -0.11844121649E-01  0.89203572688E+00  0.88000000000E+00 0.  1.
        -11    1    4    4    0    0  0.93259798098E-02  0.23556588607E-01  0.10894145594E-01  0.27583152384E-01  0.51100000000E-03 0. -1.
         11    1    4    4    0    0  0.14788891974E-01  0.99456902034E-01  0.11974994801E-01  0.10126227486E+00  0.51100000000E-03 0.  1.
</event>
<event>
 8    1  0.1063984E+005  0.1043930E+01  0.7957747E-01            NaN
         13   -1    0    0    0    0  0.00000000000E+00  0.00000000000E+00  0.74505805969E-08  0.10566000000E+00  0.10566000000E+00 0. -1.
     999900   -1    0    0    0    0 -0.00000000000E+00 -0.00000000000E+00 -0.74505805969E-08  0.93827000000E+00  0.93827000000E+00 0. -1.
     999902    2    1    2    0    0 -0.29341171018E-02  0.22607368168E-01 -0.77656627893E-02  0.10198466519E+01  0.10195622520E+01 0.  0.
     999903    2    3    3    0    0 -0.42539700021E-01  0.11257642668E+00  0.51196183131E-01  0.13241241038E+00  0.20710367814E-01 0.  0.
         14    1    1    2    0    0  0.29341171018E-02 -0.22607368168E-01  0.77656627893E-02  0.24083348131E-01  0.00000000000E+00 0.  1.
     999901    1    3    3    0    0  0.39605582919E-01 -0.89969058510E-01 -0.58961845921E-01  0.88743424149E+00  0.88000000000E+00 0. -1.
        -11    1    4    4    0    0 -0.15705421901E-01  0.67752796898E-01  0.24482813816E-01  0.73734463163E-01  0.51100000000E-03 0. -1.
         11    1    4    4    0    0 -0.26834278120E-01  0.44823629779E-01  0.26713369316E-01  0.58677947220E-01  0.51100000000E-03 0.  1.
</event>
<event>
 8    1  0.1063984E+005  0.1043930E+01  0.7957747E-01            NaN
         13   -1    0    0    0    0  0.00000000000E+00  0.00000000000E+00  0.74505805969E-08  0.10566000000E+00  0.10566000000E+00 0. -1.
     999900   -1    0    0    0    0 -0.00000000000E+00 -0.00000000000E+00 -0.74505805969E-08  0.93827000000E+00  0.93827000000E+00 0. -1.
     999902    2    1    2    0    0 -0.63364979828E-02  0.32846607741E-02  0.22896337172E-01  0.10199470382E+01  0.10196650323E+01 0.  0.
     999903    2    3    3    0    0 -0.11142958760E+00 -0.96911161728E-02  0.67539111747E-01  0.13247540165E+00  0.21857028658E-01 0.  0.
         14    1    1    2    0    0  0.63364979828E-02 -0.32846607741E-02 -0.22896337172E-01  0.23982961848E-01  0.00000000000E+00 0.  1.
     999901    1    3    3    0    0  0.10509308962E+00  0.12975776947E-01 -0.44642774575E-01  0.88747163650E+00  0.88000000000E+00 0. -1.
        -11    1    4    4    0    0 -0.51391585347E-01  0.61637219850E-02  0.33541654740E-01  0.61679739274E-01  0.51100000000E-03 0.  1.
         11    1    4    4    0    0 -0.60038002252E-01 -0.15854838158E-01  0.33997457007E-01  0.70795662377E-01  0.51100000000E-03 0. -1.
</event>
<event>
 8    1  0.1063984E+005  0.1043930E+01  0.7957747E-01            NaN
         13   -1    0    0    0    0  0.00000000000E+00  0.00000000000E+00  0.74505805969E-08  0.10566000000E+00  0.10566000000E+00 0. -1.
     999900   -1    0    0    0    0 -0.00000000000E+00 -0.00000000000E+00 -0.74505805969E-08  0.93827000000E+00  0.93827000000E+00 0. -1.
     999902    2    1    2    0    0 -0.12081012982E-01  0.10746526345E-01 -0.17108098448E-01  0.10203901246E+01  0.10201185620E+01 0.  0.
     999903    2    3    3    0    0  0.20200910742E-01  0.89461288023E-01  0.89627690437E-01  0.12986743258E+00  0.20518974200E-01 0.  0.
         14    1    1    2    0    0  0.12081012982E-01 -0.10746526345E-01  0.17108098448E-01  0.23539875439E-01  0.00000000000E+00 0. -1.
     999901    1    3    3    0    0 -0.32281923724E-01 -0.78714761678E-01 -0.10673578889E+00  0.89052269198E+00  0.88000000000E+00 0. -1.
        -11    1    4    4    0    0  0.88447091715E-02  0.75003296997E-01  0.73947839546E-01  0.10569894765E+00  0.51100000000E-03 0.  1.
         11    1    4    4    0    0  0.11356201570E-01  0.14457991026E-01  0.15679850891E-01  0.24168484925E-01  0.51100000000E-03 0. -1.
</event>
<event>
 8    1  0.1063984E+005  0.1043930E+01  0.7957747E-01            NaN
         13   -1    0    0    0    0  0.00000000000E+00  0.00000000000E+00  0.74505805969E-08  0.10566000000E+00  0.10566000000E+00 0. -1.
     999900   -1    0    0    0    0 -0.00000000000E+00 -0.00000000000E+00 -0.74505805969E-08  0.93827000000E+00  0.93827000000E+00 0. -1.
     999902    2    1    2    0    0 -0.86108401962E-02  0.20372011383E-01 -0.94889583146E-02  0.10198633063E+01  0.10195793043E+01 0.  0.
     999903    2    3    3    0    0  0.11667393476E+00  0.51444288569E-01  0.17475850782E-01  0.13003811998E+00  0.18579165957E-01 0.  0.
         14    1    1    2    0    0  0.86108401962E-02 -0.20372011383E-01  0.94889583146E-02  0.24066693719E-01  0.00000000000E+00 0. -1.
     999901    1    3    3    0    0 -0.12528477496E+00 -0.31072277186E-01 -0.26964809096E-01  0.88982518630E+00  0.88000000000E+00 0.  1.
        -11    1    4    4    0    0  0.70568377100E-01  0.33127529143E-01  0.19580017770E-01  0.80380142140E-01  0.51100000000E-03 0. -1.
         11    1    4    4    0    0  0.46105557664E-01  0.18316759427E-01 -0.21041669882E-02  0.49657977839E-01  0.51100000000E-03 0.  1.
</event>
<event>
 8    1  0.1063984E+005  0.1043930E+01  0.7957747E-01            NaN
         13   -1    0    0    0    0  0.00000000000E+00  0.00000000000E+00  0.74505805969E-08  0.10566000000E+00  0.10566000000E+00 0. -1.
     999900   -1    0    0    0    0 -0.00000000000E+00 -0.00000000000E+00 -0.74505805969E-08  0.93827000000E+00  0.93827000000E+00 0. -1.
     999902    2    1    2    0    0  0.16036795239E-01  0.33892350325E-02 -0.17237843862E-01  0.10201432605E+01  0.10198659044E+01 0.  0.
     999903    2    3    3    0    0  0.71039426266E-01 -0.86175084371E-01 -0.68333980254E-01  0.13241702347E+00  0.19798737266E-01 0.  0.
         14    1    1    2    0    0 -0.16036795239E-01 -0.33892350325E-02  0.17237843862E-01  0.23786739513E-01  0.00000000000E+00 0. -1.
     999901    1    3    3    0    0 -0.55002631027E-01  0.89564319403E-01  0.51096136391E-01  0.88772623701E+00  0.88000000000E+00 0.  1.
        -11    1    4    4    0    0  0.43350348765E-01 -0.50154693886E-01 -0.51556240386E-01  0.83982457100E-01  0.51100000000E-03 0. -1.
         11    1    4    4    0    0  0.27689077502E-01 -0.36020390485E-01 -0.16777739867E-01  0.48434566372E-01  0.51100000000E-03 0.  1.
</event>
<event>
 8    1  0.1063984E+005  0.1043930E+01  0.7957747E-01            NaN
         13   -1    0    0    0    0  0.00000000000E+00  0.00000000000E+00  0.74505805969E-08  0.10566000000E+00  0.10566000000E+00 0.  1.
     999900   -1    0    0    0    0 -0.00000000000E+00 -0.00000000000E+00 -0.74505805969E-08  0.93827000000E+00  0.93827000000E+00 0.  1.
     999902    2    1    2    0    0  0.12890418312E-01 -0.32148317409E-02  0.19937165841E-01  0.10199719406E+01  0.10196905271E+01 0.  0.
     999903    2    3    3    0    0  0.82480520110E-01 -0.68563927752E-01 -0.70203606342E-01  0.13023116634E+00  0.22968716885E-01 0.  0.
         14    1    1    2    0    0 -0.12890418312E-01  0.32148317409E-02 -0.19937165841E-01  0.23958059378E-01  0.00000000000E+00 0. -1.
     999901    1    3    3    0    0 -0.69590101798E-01  0.65349096011E-01  0.90140772183E-01  0.88974077429E+00  0.88000000000E+00 0.  1.
        -11    1    4    4    0    0  0.87012032444E-02 -0.16011291106E-01 -0.59634919884E-02  0.19180634465E-01  0.51100000000E-03 0.  1.
         11    1    4    4    0    0  0.73779316866E-01 -0.52552636646E-01 -0.64240114353E-01  0.11105053187E+00  0.51100000000E-03 0. -1.
</event>
<event>
 8    1  0.1063984E+005  0.1043930E+01  0.7957747E-01            NaN
         13   -1    0    0    0    0  0.00000000000E+00  0.00000000000E+00  0.74505805969E-08  0.10566000000E+00  0.10566000000E+00 0. -1.
     999900   -1    0    0    0    0 -0.00000000000E+00 -0.00000000000E+00 -0.74505805969E-08  0.93827000000E+00  0.93827000000E+00 0.  1.
     999902    2    1    2    0    0 -0.14979539790E-01 -0.37429239810E-02  0.17471129769E-01  0.10206139869E+01  0.10203476240E+01 0.  0.
     999903    2    3    3    0    0  0.44850442666E-01  0.11959416216E+00 -0.11300482596E-01  0.12953628584E+00  0.18374509879E-01 0.  0.
         14    1    1    2    0    0  0.14979539790E-01  0.37429239810E-02 -0.17471129769E-01  0.23316013116E-01  0.00000000000E+00 0.  1.
     999901    1    3    3    0    0 -0.59829982456E-01 -0.12333708614E+00  0.28771612365E-01  0.89107770104E+00  0.88000000000E+00 0. -1.
        -11    1    4    4    0    0  0.19692179911E-01  0.29814372698E-01 -0.12432605872E-02  0.35755916809E-01  0.51100000000E-03 0. -1.
         11    1    4    4    0    0  0.25158262755E-01  0.89779789459E-01 -0.10057222009E-01  0.93780369032E-01  0.51100000000E-03 0.  1.
</event>
<event>
 8    1  0.1063984E+005  0.1043930E+01  0.7957747E-01            NaN
         13   -1    0    0    0    0  0.00000000000E+00  0.00000000000E+00  0.74505805969E-08  0.10566000000E+00  0.10566000000E+00 0. -1.
     999900   -1    0    0    0    0 -0.00000000000E+00 -0.00000000000E+00 -0.74505805969E-08  0.93827000000E+00  0.93827000000E+00 0.  1.
     999902    2    1    2    0    0 -0.13455069556E-01  0.18070798047E-01  0.65024739406E-02  0.10204805905E+01  0.10202111354E+01 0.  0.
     999903    2    3    3    0    0  0.36439597899E-01 -0.47181893327E-01 -0.11254510950E+00  0.12867359417E+00  0.18344394534E-01 0.  0.
         14    1    1    2    0    0  0.13455069556E-01 -0.18070798047E-01 -0.65024739406E-02  0.23449409505E-01  0.00000000000E+00 0.  1.
     999901    1    3    3    0    0 -0.49894667455E-01  0.65252691374E-01  0.11904758344E+00  0.89180699633E+00  0.88000000000E+00 0. -1.
        -11    1    4    4    0    0  0.18290488830E-01 -0.97581127790E-02 -0.39671084289E-01  0.44764034630E-01  0.51100000000E-03 0. -1.
         11    1    4    4    0    0  0.18149109069E-01 -0.37423780548E-01 -0.72874025212E-01  0.83909559539E-01  0.51100000000E-03 0.  1.
</event>
<event>
 8    1  0.1063984E+005  0.1043930E+01  0.7957747E-01            NaN
         13   -1    0    0    0    0  0.00000000000E+00  0.00000000000E+00  0.74505805969E-08  0.10566000000E+00  0.10566000000E+00 0. -1.
     999900   -1    0    0    0    0 -0.00000000000E+00 -0.00000000000E+00 -0.74505805969E-08  0.93827000000E+00  0.93827000000E+00 0. -1.
     999902    2    1    2    0    0 -0.21130604337E-01 -0.12746562507E-01  0.20065413790E-02  0.10191710924E+01  0.10188703117E+01 0.  0.
     999903    2    3    3    0    0  0.65275059676E-01 -0.65154436962E-01 -0.88051335534E-01  0.12882119196E+00  0.18328331571E-01 0.  0.
         14    1    1    2    0    0  0.21130604337E-01  0.12746562507E-01 -0.20065413790E-02  0.24758907563E-01  0.00000000000E+00 0. -1.
     999901    1    3    3    0    0 -0.86405664013E-01  0.52407874455E-01  0.90057876913E-01  0.89034990047E+00  0.88000000000E+00 0. -1.
        -11    1    4    4    0    0  0.61862585314E-01 -0.54213115459E-01 -0.73670794708E-01  0.11042503549E+00  0.51100000000E-03 0.  1.
         11    1    4    4    0    0  0.34124743625E-02 -0.10941321503E-01 -0.14380540826E-01  0.18396156472E-01  0.51100000000E-03 0. -1.
</event>
<event>
 8    1  0.1063984E+005  0.1043930E+01  0.7957747E-01            NaN
         13   -1    0    0    0    0  0.00000000000E+00  0.00000000000E+00  0.74505805969E-08  0.10566000000E+00  0.10566000000E+00 0.  1.
     999900   -1    0    0    0    0 -0.00000000000E+00 -0.00000000000E+00 -0.74505805969E-08  0.93827000000E+00  0.93827000000E+00 0.  1.
     999902    2    1    2    0    0  0.73565544502E-02  0.13880712400E-01  0.19254826964E-01  0.10190796191E+01  0.10187765842E+01 0.  0.
     999903    2    3    3    0    0 -0.86865296961E-01 -0.17720553313E-01  0.93433967520E-01  0.13038454080E+00  0.20263868513E-01 0.  0.
         14    1    1    2    0    0 -0.73565544502E-02 -0.13880712400E-01 -0.19254826964E-01  0.24850380913E-01  0.00000000000E+00 0. -1.
     999901    1    3    3    0    0  0.94221851411E-01  0.31601265713E-01 -0.74179140556E-01  0.88869507829E+00  0.88000000000E+00 0. -1.
        -11    1    4    4    0    0 -0.19676690767E-01 -0.15936666379E-02  0.33632385147E-01  0.39001415162E-01  0.51100000000E-03 0.  1.
         11    1    4    4    0    0 -0.67188606194E-01 -0.16126886675E-01  0.59801582373E-01  0.91383125638E-01  0.51100000000E-03 0. -1.
</event>
<event>
 8    1  0.1063984E+005  0.1043930E+01  0.7957747E-01            NaN
         13   -1    0    0    0    0  0.00000000000E+00  0.00000000000E+00  0.74505805969E-08  0.10566000000E+00  0.10566000000E+00 0. -1.
     999900   -1    0    0    0    0 -0.00000000000E+00 -0.00000000000E+00 -0.74505805969E-08  0.93827000000E+00  0.93827000000E+00 0.  1.
     999902    2    1    2    0    0  0.21939445581E-01  0.36265927820E-02  0.55897080213E-02  0.10210010601E+01  0.10207435665E+01 0.  0.
     999903    2    3    3    0    0  0.86912243043E-01 -0.13315806085E-01 -0.97053295142E-01  0.13249439421E+00  0.20109045660E-01 0.  0.
         14    1    1    2    0    0 -0.21939445581E-01 -0.36265927820E-02 -0.55897080213E-02  0.22928939866E-01  0.00000000000E+00 0.  1.
     999901    1    3    3    0    0 -0.64972797461E-01  0.16942398867E-01  0.10264300316E+00  0.88850666592E+00  0.88000000000E+00 0. -1.
        -11    1    4    4    0    0  0.40960052626E-01 -0.61115274746E-02 -0.31126898561E-01  0.51809474175E-01  0.51100000000E-03 0.  1.
         11    1    4    4    0    0  0.45952190416E-01 -0.72042786108E-02 -0.65926396580E-01  0.80684920037E-01  0.51100000000E-03 0. -1.
</event>
<event>
 8    1  0.1063984E+005  0.1043930E+01  0.7957747E-01            NaN
         13   -1    0    0    0    0  0.00000000000E+00  0.00000000000E+00  0.74505805969E-08  0.10566000000E+00  0.10566000000E+00 0.  1.
     999900   -1    0    0    0    0 -0.00000000000E+00 -0.00000000000E+00 -0.74505805969E-08  0.93827000000E+00  0.93827000000E+00 0.  1.
     999902    2    1    2    0    0  0.21535695301E-01 -0.55796247488E-02  0.79833265025E-02  0.10202941821E+01  0.10200203754E+01 0.  0.
     999903    2    3    3    0    0  0.13011360765E+00  0.19911859287E-01 -0.16726620341E-04  0.13321866130E+00  0.20522631459E-01 0.  0.
         14    1    1    2    0    0 -0.21535695301E-01  0.55796247488E-02 -0.79833265025E-02  0.23635817872E-01  0.00000000000E+00 0. -1.
     999901    1    3    3    0    0 -0.10857791235E+00 -0.25491484036E-01  0.80000531228E-02  0.88707552083E+00  0.88000000000E+00 0. -1.
        -11    1    4    4    0    0  0.12315774907E+00  0.19762082867E-01 -0.46890392834E-02  0.12482235091E+00  0.51100000000E-03 0.  1.
         11    1    4    4    0    0  0.69558585795E-02  0.14977641981E-03  0.46723126631E-02  0.83963103907E-02  0.51100000000E-03 0. -1.
</event>
<event>
 8    1  0.1063984E+005  0.1043930E+01  0.7957747E-01            NaN
         13   -1    0    0    0    0  0.00000000000E+00  0.00000000000E+00  0.74505805969E-08  0.10566000000E+00  0.10566000000E+00 0.  1.
     999900   -1    0    0    0    0 -0.00000000000E+00 -0.00000000000E+00 -0.74505805969E-08  0.93827000000E+00  0.93827000000E+00 0. -1.
     999902    2    1    2    0    0  0.20207755887E-01 -0.55962405795E-02  0.11348742387E-01  0.10200874905E+01  0.10198088169E+01 0.  0.
     999903    2    3    3    0    0 -0.33067639132E-01  0.12294562922E+00 -0.45619881631E-02  0.12901261632E+00  0.20355513523E-01 0.  0.
         14    1    1    2    0    0 -0.20207755887E-01  0.55962405795E-02 -0.11348742387E-01  0.23842509524E-01  0.00000000000E+00 0.  1.
     999901    1    3    3    0    0  0.53275395019E-01 -0.12854186980E+00  0.15910730550E-01  0.89107487416E+00  0.88000000000E+00 0. -1.
        -11    1    4    4    0    0 -0.31434971495E-01  0.97923011083E-01  0.27647902660E-02  0.10288332576E+00  0.51100000000E-03 0. -1.
         11    1    4    4    0    0 -0.16326676373E-02  0.25022618140E-01 -0.73267784291E-02  0.26129290563E-01  0.51100000000E-03 0.  1.
</event>
<event>
 8    1  0.1063984E+005  0.1043930E+01  0.7957747E-01            NaN
         13   -1    0    0    0    0  0.00000000000E+00  0.00000000000E+00  0.74505805969E-08  0.10566000000E+00  0.10566000000E+00 0.  1.
     999900   -1    0    0    0    0 -0.00000000000E+00 -0.00000000000E+00 -0.74505805969E-08  0.93827000000E+00  0.93827000000E+00 0. -1.
     999902    2    1    2    0    0  0.11363160969E-01 -0.11453282325E-01  0.14365455496E-01  0.10223275600E+01  0.10220992978E+01 0.  0.
     999903    2    3    3    0    0 -0.10160791617E+00  0.53765872721E-01 -0.56559347012E-01  0.12988914190E+00  0.21384381029E-01 0.  0.
         14    1    1    2    0    0 -0.11363160969E-01  0.11453282325E-01 -0.14365455496E-01  0.21602440020E-01  0.00000000000E+00 0.  1.
     999901    1    3    3    0    0  0.11297107713E+00 -0.65219155046E-01  0.70924802509E-01  0.89243841808E+00  0.88000000000E+00 0. -1.
        -11    1    4    4    0    0 -0.42702237709E-01  0.11169573714E-01 -0.23867914571E-01  0.50181460215E-01  0.51100000000E-03 0. -1.
         11    1    4    4    0    0 -0.58905678457E-01  0.42596299007E-01 -0.32691432442E-01  0.79707681685E-01  0.51100000000E-03 0.  1.
</event>
<event>
 8    1  0.1063984E+005  0.1043930E+01  0.7957747E-01            NaN
         13   -1    0    0    0    0  0.00000000000E+00  0.00000000000E+00  0.74505805969E-08  0.10566000000E+00  0.10566000000E+00 0. -1.
     999900   -1    0    0    0    0 -0.00000000000E+00 -0.00000000000E+00 -0.74505805969E-08  0.93827000000E+00  0.93827000000E+00 0. -1.
     999902    2    1    2    0    0 -0.79848467193E-03  0.22570035638E-01 -0.48541631663E-02  0.10208300652E+01  0.10205686724E+01 0.  0.
     999903    2    3    3    0    0 -0.76095263622E-02 -0.11336140845E+00 -0.56671198896E-01  0.12886103383E+00  0.22018797357E-01 0.  0.
         14    1    1    2    0    0  0.79848467193E-03 -0.22570035638E-01  0.48541631663E-02  0.23099934773E-01  0.00000000000E+00 0.  1.
     999901    1    3    3    0    0  0.68110416903E-02  0.13593144409E+00  0.51817035730E-01  0.89196903140E+00  0.88000000000E+00 0. -1.
        -11    1    4    4    0    0 -0.14805888484E-01 -0.84779708020E-01 -0.45369487422E-01  0.97290619978E-01  0.51100000000E-03 0.  1.
         11    1    4    4    0    0  0.71963621217E-02 -0.28581700434E-01 -0.11301711474E-01  0.31570413852E-01  0.51100000000E-03 0. -1.
</event>
<event>
 7    1  0.1063984E+005  0.1043930E+01  0.7957747E-01            NaN
         13   -1    0    0    0    0  0.00000000000E+00  0.00000000000E+00  0.74505805969E-08  0.10566000000E+00  0.10566000000E+00 0. -1.
     999900   -1    0    0    0    0 -0.00000000000E+00 -0.00000000000E+00 -0.74505805969E-08  0.93827000000E+00  0.93827000000E+00 0. -1.
     999903    2    1    2    0    0  0.34215738645E-01 -0.55178873240E-01 -0.14785783817E-01  0.69709292627E-01  0.20623803055E-01 0.  0.
         14    1    1    2    0    0  0.75414669062E-01 -0.26031498546E-01 -0.22608598882E-01  0.82922614344E-01  0.00000000000E+00 0. -1.
     999901    1    1    2    0    0 -0.10963040771E+00  0.81210371786E-01  0.37394382698E-01  0.89129809303E+00  0.88000000000E+00 0.  1.
        -11    1    3    3    0    0  0.99984529767E-02 -0.27827921779E-02 -0.18756703029E-02  0.10558989266E-01  0.51100000000E-03 0.  1.
         11    1    3    3    0    0  0.24217285668E-01 -0.52396081062E-01 -0.12910113514E-01  0.59150303361E-01  0.51100000000E-03 0. -1.
</event>
<event>
 8    1  0.1063984E+005  0.1043930E+01  0.7957747E-01            NaN
         13   -1    0    0    0    0  0.00000000000E+00  0.00000000000E+00  0.74505805969E-08  0.10566000000E+00  0.10566000000E+00 0.  1.
     999900   -1    0    0    0    0 -0.00000000000E+00 -0.00000000000E+00 -0.74505805969E-08  0.93827000000E+00  0.93827000000E+00 0.  1.
     999902    2    1    2    0    0  0.60395605480E-02 -0.22923585372E-01 -0.31170308587E-02  0.10200201079E+01  0.10197398382E+01 0.  0.
     999903    2    3    3    0    0 -0.39529623454E-01  0.10295070925E+00  0.60943939600E-01  0.12759381039E+00  0.20114099798E-01 0.  0.
         14    1    1    2    0    0 -0.60395605480E-02  0.22923585372E-01  0.31170308587E-02  0.23909892081E-01  0.00000000000E+00 0.  1.
     999901    1    3    3    0    0  0.45569184002E-01 -0.12587429463E+00 -0.64060970459E-01  0.89242629753E+00  0.88000000000E+00 0.  1.
        -11    1    4    4    0    0 -0.16591004178E-01  0.21664170827E-01  0.10686221648E-01  0.29309625917E-01  0.51100000000E-03 0. -1.
         11    1    4    4    0    0 -0.22938619276E-01  0.81286538427E-01  0.50257717952E-01  0.98284184478E-01  0.51100000000E-03 0.  1.
</event>
<event>
 8    1  0.1063984E+005  0.1043930E+01  0.7957747E-01            NaN
         13   -1    0    0    0    0  0.00000000000E+00  0.00000000000E+00  0.74505805969E-08  0.10566000000E+00  0.10566000000E+00 0. -1.
     999900   -1    0    0    0    0 -0.00000000000E+00 -0.00000000000E+00 -0.74505805969E-08  0.93827000000E+00  0.93827000000E+00 0. -1.
     999902    2    1    2    0    0 -0.88348796329E-02  0.27939624025E-02 -0.22814720489E-01  0.10193053620E+01  0.10190078745E+01 0.  0.
     999903    2    3    3    0    0 -0.24043821141E-01 -0.11888641174E+00 -0.44180491034E-01  0.13054559612E+00  0.19446147381E-01 0.  0.
         14    1    1    2    0    0  0.88348796329E-02 -0.27939624025E-02  0.22814720489E-01  0.24624637967E-01  0.00000000000E+00 0. -1.
     999901    1    3    3    0    0  0.15208941508E-01  0.12168037414E+00  0.21365770546E-01  0.88875976591E+00  0.88000000000E+00 0. -1.
        -11    1    4    4    0    0 -0.28017663254E-02 -0.19690662238E-02  0.67794849426E-03  0.35281512859E-02  0.51100000000E-03 0.  1.
         11    1    4    4    0    0 -0.21242054815E-01 -0.11691734551E+00 -0.44858439528E-01  0.12701744484E+00  0.51100000000E-03 0. -1.
</event>
<event>
 8    1  0.1063984E+005  0.1043930E+01  0.7957747E-01            NaN
         13   -1    0    0    0    0  0.00000000000E+00  0.00000000000E+00  0.74505805969E-08  0.10566000000E+00  0.10566000000E+00 0.  1.
     999900   -1    0    0    0    0 -0.00000000000E+00 -0.00000000000E+00 -0.74505805969E-08  0.93827000000E+00  0.93827000000E+00 0.  1.
     999902    2    1    2    0    0 -0.11504981431E-01 -0.12881134226E-02 -0.18824787734E-01  0.10218303062E+01  0.10215912970E+01 0.  0.
     999903    2    3    3    0    0 -0.11346779466E+00  0.57145271609E-01  0.32170066275E-01  0.13255456103E+00  0.19881549092E-01 0.  0.
         14    1    1    2    0    0  0.11504981431E-01  0.12881134226E-02  0.18824787734E-01  0.22099693825E-01  0.00000000000E+00 0.  1.
     999901    1    3    3    0    0  0.10196281323E+00 -0.58433385032E-01 -0.50994854009E-01  0.88927574514E+00  0.88000000000E+00 0. -1.
        -11    1    4    4    0    0 -0.79552429367E-01  0.47812587674E-01  0.28956130901E-01  0.97228345641E-01  0.51100000000E-03 0. -1.
         11    1    4    4    0    0 -0.33915365290E-01  0.93326839347E-02  0.32139353739E-02  0.35326215390E-01  0.51100000000E-03 0.  1.
</event>
<event>
 8    1  0.1063984E+005  0.1043930E+01  0.7957747E-01            NaN
         13   -1    0    0    0    0  0.00000000000E+00  0.00000000000E+00  0.74505805969E-08  0.10566000000E+00  0.10566000000E+00 0. -1.
     999900   -1    0    0    0    0 -0.00000000000E+00 -0.00000000000E+00 -0.74505805969E-08  0.93827000000E+00  0.93827000000E+00 0. -1.
     999902    2    1    2    0    0 -0.54735747988E-03 -0.16927007618E-02 -0.23377451760E-01  0.10204849560E+01  0.10202156024E+01 0.  0.
     999903    2    3    3    0    0  0.80559021139E-01 -0.10033171052E+00 -0.34832920733E-02  0.13104486446E+00  0.24584856228E-01 0.  0.
         14    1    1    2    0    0  0.54735747988E-03  0.16927007618E-02  0.23377451760E-01  0.23445043973E-01  0.00000000000E+00 0. -1.
     999901    1    3    3    0    0 -0.81106378619E-01  0.98639009754E-01 -0.19894159687E-01  0.88944009157E+00  0.88000000000E+00 0.  1.
        -11    1    4    4    0    0  0.76836797354E-02 -0.19239680107E-01 -0.72423008654E-02  0.21952591367E-01  0.51100000000E-03 0.  1.
         11    1    4    4    0    0  0.72875341404E-01 -0.81092030408E-01  0.37590087921E-02  0.10909227309E+00  0.51100000000E-03 0. -1.
</event>
<event>
 8    1  0.1063984E+005  0.1043930E+01  0.7957747E-01            NaN
         13   -1    0    0    0    0  0.00000000000E+00  0.00000000000E+00  0.74505805969E-08  0.10566000000E+00  0.10566000000E+00 0.  1.
     999900   -1    0    0    0    0 -0.00000000000E+00 -0.00000000000E+00 -0.74505805969E-08  0.93827000000E+00  0.93827000000E+00 0.  1.
     999902    2    1    2    0    0 -0.85628852783E-03 -0.95270605962E-02  0.21819277824E-01  0.10201060835E+01  0.10198278495E+01 0.  0.
     999903    2    3    3    0    0  0.99669223790E-01 -0.70323253929E-01  0.46208449623E-01  0.13196398480E+00  0.19998956294E-01 0.  0.
         14    1    1    2    0    0  0.85628852783E-03  0.95270605962E-02 -0.21819277824E-01  0.23823916521E-01  0.00000000000E+00 0. -1.
     999901    1    3    3    0    0 -0.10052551232E+00  0.60796193333E-01 -0.24389171799E-01  0.88814209868E+00  0.88000000000E+00 0. -1.
        -11    1    4    4    0    0  0.80138603073E-01 -0.65456183374E-01  0.38549129082E-01  0.11042193676E+00  0.51100000000E-03 0. -1.
         11    1    4    4    0    0  0.19530620716E-01 -0.48670705554E-02  0.76593205409E-02  0.21542048034E-01  0.51100000000E-03 0.  1.
</event>
<event>
 8    1  0.1063984E+005  0.1043930E+01  0.7957747E-01            NaN
         13   -1    0    0    0    0  0.00000000000E+00  0.00000000000E+00  0.74505805969E-08  0.10566000000E+00  0.10566000000E+00 0. -1.
     999900   -1    0    0    0    0 -0.00000000000E+00 -0.00000000000E+00 -0.74505805969E-08  0.93827000000E+00  0.93827000000E+00 0.  1.
     999902    2    1    2    0    0 -0.10559631493E-01 -0.14784666879E-01 -0.15446640477E-01  0.10200827592E+01  0.10198039737E+01 0.  0.
     999903    2    3    3    0    0 -0.33606210010E-01 -0.17474327441E-01  0.12185219714E+00  0.12913419173E+00  0.19823018303E-01 0.  0.
         14    1    1    2    0    0  0.10559631493E-01  0.14784666879E-01  0.15446640477E-01  0.23847240805E-01  0.00000000000E+00 0. -1.
     999901    1    3    3    0    0  0.23046578517E-01  0.26896605626E-02 -0.13729883762E+00  0.89094856746E+00  0.88000000000E+00 0.  1.
        -11    1    4    4    0    0 -0.18945677325E-01 -0.84171524745E-02  0.35804966768E-01  0.41376852362E-01  0.51100000000E-03 0. -1.
         11    1    4    4    0    0 -0.14660532685E-01 -0.90571749669E-02  0.86047230374E-01  0.87757339369E-01  0.51100000000E-03 0.  1.
</event>
<event>
 8    1  0.1063984E+005  0.1043930E+01  0.7957747E-01            NaN
         13   -1    0    0    0    0  0.00000000000E+00  0.00000000000E+00  0.74505805969E-08  0.10566000000E+00  0.10566000000E+00 0.  1.
     999900   -1    0    0    0    0 -0.00000000000E+00 -0.00000000000E+00 -0.74505805969E-08  0.93827000000E+00  0.93827000000E+00 0.  1.
     999902    2    1    2    0    0  0.10727752451E-01  0.17833790195E-01 -0.11147954151E-01  0.10203205606E+01  0.10200473719E+01 0.  0.
     999903    2    3    3    0    0 -0.68403128424E-01  0.10985165803E+00  0.13073616265E-01  0.13166108210E+00  0.20429056476E-01 0.  0.
         14    1    1    2    0    0 -0.10727752451E-01 -0.17833790195E-01  0.11147954151E-01  0.23609439364E-01  0.00000000000E+00 0.  1.
     999901    1    3    3    0    0  0.79130880875E-01 -0.92017867836E-01 -0.24221570416E-01  0.88865947853E+00  0.88000000000E+00 0. -1.
        -11    1    4    4    0    0 -0.46186779511E-01  0.89994608383E-01  0.11666092421E-01  0.10182635697E+00  0.51100000000E-03 0.  1.
         11    1    4    4    0    0 -0.22216348913E-01  0.19857049647E-01  0.14075238438E-02  0.29834725138E-01  0.51100000000E-03 0. -1.
</event>
<event>
 8    1  0.1063984E+005  0.1043930E+01  0.7957747E-01            NaN
         13   -1    0    0    0    0  0.00000000000E+00  0.00000000000E+00  0.74505805969E-08  0.10566000000E+00  0.10566000000E+00 0.  1.
     999900   -1    0    0    0    0 -0.00000000000E+00 -0.00000000000E+00 -0.74505805969E-08  0.93827000000E+00  0.93827000000E+00 0. -1.
     999902    2    1    2    0    0 -0.98458862175E-02 -0.11799976121E-01  0.15611501845E-01  0.10220233822E+01  0.10217885760E+01 0.  0.
     999903    2    3    3    0    0 -0.31856571927E-01  0.10625231799E+00 -0.65226823296E-01  0.13019624134E+00  0.19802184925E-01 0.  0.
         14    1    1    2    0    0  0.98458862175E-02  0.11799976121E-01 -0.15611501845E-01  0.21906617761E-01  0.00000000000E+00 0. -1.
     999901    1    3    3    0    0  0.22010685709E-01 -0.11805229412E+00  0.80838325141E-01  0.89182714090E+00  0.88000000000E+00 0.  1.
        -11    1    4    4    0    0 -0.10693046929E-01  0.17454321080E-01 -0.18730333525E-01  0.27750334988E-01  0.51100000000E-03 0.  1.
         11    1    4    4    0    0 -0.21163524997E-01  0.88797996915E-01 -0.46496489771E-01  0.10244590635E+00  0.51100000000E-03 0. -1.
</event>
<event>
 8    1  0.1063984E+005  0.1043930E+01  0.7957747E-01            NaN
         13   -1    0    0    0    0  0.00000000000E+00  0.00000000000E+00  0.74505805969E-08  0.10566000000E+00  0.10566000000E+00 0.  1.
     999900   -1    0    0    0    0 -0.00000000000E+00 -0.00000000000E+00 -0.74505805969E-08  0.93827000000E+00  0.93827000000E+00 0. -1.
     999902    2    1    2    0    0 -0.10542162273E-01 -0.18883967211E-01  0.30483163465E-02  0.10220889003E+01  0.10218555116E+01 0.  0.
     999903    2    3    3    0    0  0.97483784432E-01  0.66930642405E-01  0.50424110324E-01  0.13008093048E+00  0.19891165206E-01 0.  0.
         14    1    1    2    0    0  0.10542162273E-01  0.18883967211E-01 -0.30483163465E-02  0.21841099688E-01  0.00000000000E+00 0. -1.
     999901    1    3    3    0    0 -0.10802594670E+00 -0.85814609616E-01 -0.47375793977E-01  0.89200796983E+00  0.88000000000E+00 0. -1.
        -11    1    4    4    0    0  0.72051486468E-01  0.53882079833E-01  0.46331244988E-01  0.10120049710E+00  0.51100000000E-03 0.  1.
         11    1    4    4    0    0  0.25432297964E-01  0.13048562571E-01  0.40928653363E-02  0.28880433386E-01  0.51100000000E-03 0. -1.
</event>
<event>
 8    1  0.1063984E+005  0.1043930E+01  0.7957747E-01            NaN
         13   -1    0    0    0    0  0.00000000000E+00  0.00000000000E+00  0.74505805969E-08  0.10566000000E+00  0.10566000000E+00 0.  1.
     999900   -1    0    0    0    0 -0.00000000000E+00 -0.00000000000E+00 -0.74505805969E-08  0.93827000000E+00  0.93827000000E+00 0.  1.
     999902    2    1    2    0    0  0.14493660009E-01  0.34219019246E-02 -0.18305589359E-01  0.10203319027E+01  0.10200589794E+01 0.  0.
     999903    2    3    3    0    0 -0.54213667370E-01 -0.11159352411E+00  0.27779289526E-01  0.12899971935E+00  0.21840382604E-01 0.  0.
         14    1    1    2    0    0 -0.14493660009E-01 -0.34219019246E-02  0.18305589359E-01  0.23598097276E-01  0.00000000000E+00 0.  1.
     999901    1    3    3    0    0  0.68707327379E-01  0.11501542603E+00 -0.46084878885E-01  0.89133218338E+00  0.88000000000E+00 0.  1.
        -11    1    4    4    0    0 -0.88954705338E-02 -0.40865615588E-01  0.63307108845E-02  0.42302091612E-01  0.51100000000E-03 0. -1.
         11    1    4    4    0    0 -0.45318196836E-01 -0.70727908521E-01  0.21448578642E-01  0.86697627736E-01  0.51100000000E-03 0.  1.
</event>
<event>
 8    1  0.1063984E+005  0.1043930E+01  0.7957747E-01            NaN
         13   -1    0    0    0    0  0.00000000000E+00  0.00000000000E+00  0.74505805969E-08  0.10566000000E+00  0.10566000000E+00 0. -1.
     999900   -1    0    0    0    0 -0.00000000000E+00 -0.00000000000E+00 -0.74505805969E-08  0.93827000000E+00  0.93827000000E+00 0.  1.
     999902    2    1    2    0    0  0.11117299421E-01 -0.64341174143E-02  0.20554177073E-01  0.10196922937E+01  0.10194041923E+01 0.  0.
     999903    2    3    3    0    0  0.43381591880E-01 -0.10763001452E+00 -0.55295856618E-01  0.13006606779E+00  0.19833499201E-01 0.  0.
         14    1    1    2    0    0 -0.11117299421E-01  0.64341174143E-02 -0.20554177073E-01  0.24237706337E-01  0.00000000000E+00 0.  1.
     999901    1    3    3    0    0 -0.32264292459E-01  0.10119589711E+00  0.75850033691E-01  0.88962622588E+00  0.88000000000E+00 0. -1.
        -11    1    4    4    0    0  0.26540512887E-01 -0.43909079122E-01 -0.30211421412E-01  0.59543237722E-01  0.51100000000E-03 0.  1.
         11    1    4    4    0    0  0.16841078992E-01 -0.63720935398E-01 -0.25084435206E-01  0.70522830064E-01  0.51100000000E-03 0. -1.
</event>
<event>
 8    1  0.1063984E+005  0.1043930E+01  0.7957747E-01            NaN
         13   -1    0    0    0    0  0.00000000000E+00  0.00000000000E+00  0.74505805969E-08  0.10566000000E+00  0.10566000000E+00 0.  1.
     999900   -1    0    0    0    0 -0.00000000000E+00 -0.00000000000E+00 -0.74505805969E-08  0.93827000000E+00  0.93827000000E+00 0.  1.
     999902    2    1    2    0    0 -0.16735644660E-01 -0.16971477408E-01 -0.89617832551E-02  0.10184657818E+01  0.10181473972E+01 0.  0.
     999903    2    3    3    0    0 -0.64797669388E-01 -0.41776806062E-01  0.10245480212E+00  0.12979322231E+00  0.20130936354E-01 0.  0.
         14    1    1    2    0    0  0.16735644660E-01  0.16971477408E-01  0.89617832551E-02  0.25464218164E-01  0.00000000000E+00 0. -1.
     999901    1    3    3    0    0  0.48062024729E-01  0.24805328654E-01 -0.11141658537E+00  0.88867255952E+00  0.88000000000E+00 0.  1.
        -11    1    4    4    0    0 -0.46932260509E-01 -0.26556652991E-01  0.56001701533E-01  0.77745383079E-01  0.51100000000E-03 0.  1.
         11    1    4    4    0    0 -0.17865408880E-01 -0.15220153072E-01  0.46453100587E-01  0.52047839235E-01  0.51100000000E-03 0. -1.
</event>
<event>
 8    1  0.1063984E+005  0.1043930E+01  0.7957747E-01            NaN
         13   -1    0    0    0    0  0.00000000000E+00  0.00000000000E+00  0.74505805969E-08  0.10566000000E+00  0.10566000000E+00 0.  1.
     999900   -1    0    0    0    0 -0.00000000000E+00 -0.00000000000E+00 -0.74505805969E-08  0.93827000000E+00  0.93827000000E+00 0.  1.
     999902    2    1    2    0    0 -0.18995059736E-01  0.46087836511E-02  0.46565106815E-02  0.10238368103E+01  0.10236396230E+01 0.  0.
     999903    2    3    3    0    0 -0.10037958049E+00 -0.85017476789E-01  0.23691648127E-01  0.13534446748E+00  0.21279077687E-01 0.  0.
         14    1    1    2    0    0  0.18995059736E-01 -0.46087836511E-02 -0.46565106815E-02  0.20093189713E-01  0.00000000000E+00 0. -1.
     999901    1    3    3    0    0  0.81384520750E-01  0.89626260440E-01 -0.19035137446E-01  0.88849234281E+00  0.88000000000E+00 0. -1.
        -11    1    4    4    0    0 -0.78650061011E-01 -0.68908680359E-01  0.10062393667E-01  0.10505118378E+00  0.51100000000E-03 0. -1.
         11    1    4    4    0    0 -0.21729519474E-01 -0.16108796430E-01  0.13629254461E-01  0.30293283697E-01  0.51100000000E-03 0.  1.
</event>
<event>
 8    1  0.1063984E+005  0.1043930E+01  0.7957747E-01            NaN
         13   -1    0    0    0    0  0.00000000000E+00  0.00000000000E+00  0.74505805969E-08  0.10566000000E+00  0.10566000000E+00 0. -1.
     999900   -1    0    0    0    0 -0.00000000000E+00 -0.00000000000E+00 -0.74505805969E-08  0.93827000000E+00  0.93827000000E+00 0.  1.
     999902    2    1    2    0    0  0.92649908928E-02  0.10402188267E-01  0.19304435964E-01  0.10201243951E+01  0.10198465937E+01 0.  0.
     999903    2    3    3    0    0  0.62931283633E-01  0.54165171135E-01 -0.97742659512E-01  0.12967771381E+00  0.19195565836E-01 0.  0.
         14    1    1    2    0    0 -0.92649908928E-02 -0.10402188267E-01 -0.19304435964E-01  0.23805604905E-01  0.00000000000E+00 0.  1.
     999901    1    3    3    0    0 -0.53666292741E-01 -0.43762982868E-01  0.11704709548E+00  0.89044668128E+00  0.88000000000E+00 0. -1.
        -11    1    4    4    0    0  0.31680502833E-01  0.37224238569E-01 -0.47761220164E-01  0.68342471929E-01  0.51100000000E-03 0. -1.
         11    1    4    4    0    0  0.31250780801E-01  0.16940932566E-01 -0.49981439347E-01  0.61335241885E-01  0.51100000000E-03 0.  1.
</event>
<event>
 8    1  0.1063984E+005  0.1043930E+01  0.7957747E-01            NaN
         13   -1    0    0    0    0  0.00000000000E+00  0.00000000000E+00  0.74505805969E-08  0.10566000000E+00  0.10566000000E+00 0.  1.
     999900   -1    0    0    0    0 -0.00000000000E+00 -0.00000000000E+00 -0.74505805969E-08  0.93827000000E+00  0.93827000000E+00 0.  1.
     999902    2    1    2    0    0  0.15133239804E-01  0.17614663027E-01 -0.13083565333E-02  0.10206705267E+01  0.10204054689E+01 0.  0.
     999903    2    3    3    0    0 -0.34562930123E-01 -0.89521900737E-01 -0.83557411108E-01  0.12897951545E+00  0.21097573416E-01 0.  0.
         14    1    1    2    0    0 -0.15133239804E-01 -0.17614663027E-01  0.13083565333E-02  0.23259473281E-01  0.00000000000E+00 0.  1.
     999901    1    3    3    0    0  0.49696169926E-01  0.10713656376E+00  0.82249054575E-01  0.89169101127E+00  0.88000000000E+00 0. -1.
        -11    1    4    4    0    0 -0.29542372149E-01 -0.47814452674E-01 -0.46099360596E-01  0.72693781061E-01  0.51100000000E-03 0.  1.
         11    1    4    4    0    0 -0.50205579740E-02 -0.41707448064E-01 -0.37458050513E-01  0.56285734388E-01  0.51100000000E-03 0. -1.
</event>
<event>
 8    1  0.1063984E+005  0.1043930E+01  0.7957747E-01            NaN
         13   -1    0    0    0    0  0.00000000000E+00  0.00000000000E+00  0.74505805969E-08  0.10566000000E+00  0.10566000000E+00 0. -1.
     999900   -1    0    0    0    0 -0.00000000000E+00 -0.00000000000E+00 -0.74505805969E-08  0.93827000000E+00  0.93827000000E+00 0. -1.
     999902    2    1    2    0    0 -0.17907510954E-01  0.64476204598E-02  0.10933940013E-01  0.10219800159E+01  0.10217442689E+01 0.  0.
     999903    2    3    3    0    0 -0.21356535160E-01 -0.72948478632E-01 -0.10598359052E+00  0.13069703879E+00  0.84624087780E-02 0.  0.
         14    1    1    2    0    0  0.17907510954E-01 -0.64476204598E-02 -0.10933940013E-01  0.21949984108E-01  0.00000000000E+00 0.  1.
     999901    1    3    3    0    0  0.34490242063E-02  0.79396099092E-01  0.11691753053E+00  0.89128297710E+00  0.88000000000E+00 0.  1.
        -11    1    4    4    0    0 -0.16413897384E-01 -0.63762317484E-01 -0.88081523201E-01  0.10997120081E+00  0.51100000000E-03 0. -1.
         11    1    4    4    0    0 -0.49426377757E-02 -0.91861611475E-02 -0.17902067314E-01  0.20725837979E-01  0.51100000000E-03 0.  1.
</event>
<event>
 8    1  0.1063984E+005  0.1043930E+01  0.7957747E-01            NaN
         13   -1    0    0    0    0  0.00000000000E+00  0.00000000000E+00  0.74505805969E-08  0.10566000000E+00  0.10566000000E+00 0.  1.
     999900   -1    0    0    0    0 -0.00000000000E+00 -0.00000000000E+00 -0.74505805969E-08  0.93827000000E+00  0.93827000000E+00 0. -1.
     999902    2    1    2    0    0  0.12114330363E-02 -0.22578988953E-01  0.56829260329E-02  0.10206153274E+01  0.10203489954E+01 0.  0.
     999903    2    3    3    0    0  0.12415193786E+00 -0.40184493201E-01  0.11996812039E-02  0.13188340997E+00  0.19060362542E-01 0.  0.
         14    1    1    2    0    0 -0.12114330363E-02  0.22578988953E-01 -0.56829260329E-02  0.23314672642E-01  0.00000000000E+00 0. -1.
     999901    1    3    3    0    0 -0.12294050483E+00  0.17605504249E-01  0.44832448290E-02  0.88873191739E+00  0.88000000000E+00 0. -1.
        -11    1    4    4    0    0  0.97671018937E-01 -0.30764348597E-01  0.87498688987E-02  0.10277594277E+00  0.51100000000E-03 0.  1.
         11    1    4    4    0    0  0.26480918926E-01 -0.94201446048E-02 -0.75501876949E-02  0.29107467199E-01  0.51100000000E-03 0. -1.
</event>
<event>
 8    1  0.1063984E+005  0.1043930E+01  0.7957747E-01            NaN
         13   -1    0    0    0    0  0.00000000000E+00  0.00000000000E+00  0.74505805969E-08  0.10566000000E+00  0.10566000000E+00 0.  1.
     999900   -1    0    0    0    0 -0.00000000000E+00 -0.00000000000E+00 -0.74505805969E-08  0.93827000000E+00  0.93827000000E+00 0.  1.
     999902    2    1    2    0    0 -0.68688899037E-02 -0.10059973628E-01  0.20338599245E-01  0.10202225468E+01  0.10199470583E+01 0.  0.
     999903    2    3    3    0    0 -0.22669120247E-01 -0.10504854374E+00 -0.69535243249E-01  0.13041931951E+00  0.24999265852E-01 0.  0.
         14    1    1    2    0    0  0.68688899037E-02  0.10059973628E-01 -0.20338599245E-01  0.23707453198E-01  0.00000000000E+00 0. -1.
     999901    1    3    3    0    0  0.15800230343E-01  0.94988570114E-01  0.89873842493E-01  0.88980322729E+00  0.88000000000E+00 0. -1.
        -11    1    4    4    0    0 -0.21998872399E-01 -0.43929860244E-01 -0.33438912458E-01  0.59432356467E-01  0.51100000000E-03 0.  1.
         11    1    4    4    0    0 -0.67024784778E-03 -0.61118683498E-01 -0.36096330791E-01  0.70986963044E-01  0.51100000000E-03 0. -1.
</event>
<event>
 8    1  0.1063984E+005  0.1043930E+01  0.7957747E-01            NaN
         13   -1    0    0    0    0  0.00000000000E+00  0.00000000000E+00  0.74505805969E-08  0.10566000000E+00  0.10566000000E+00 0.  1.
     999900   -1    0    0    0    0 -0.00000000000E+00 -0.00000000000E+00 -0.74505805969E-08  0.93827000000E+00  0.93827000000E+00 0. -1.
     999902    2    1    2    0    0  0.85373824304E-02 -0.18677839178E-01  0.12927590592E-01  0.10196633320E+01  0.10193745335E+01 0.  0.
     999903    2    3    3    0    0  0.89454883631E-01  0.90671980728E-01 -0.64190819300E-02  0.12900103979E+00  0.19403076005E-01 0.  0.
         14    1    1    2    0    0 -0.85373824304E-02  0.18677839178E-01 -0.12927590592E-01  0.24266667955E-01  0.00000000000E+00 0. -1.
     999901    1    3    3    0    0 -0.80917501200E-01 -0.10934981991E+00  0.19346672522E-01  0.89066229226E+00  0.88000000000E+00 0.  1.
        -11    1    4    4    0    0  0.61673148743E-01  0.58081729582E-01  0.43819766510E-02  0.84832348945E-01  0.51100000000E-03 0.  1.
         11    1    4    4    0    0  0.27781734887E-01  0.32590251146E-01 -0.10801058581E-01  0.44168690841E-01  0.51100000000E-03 0. -1.
</event>
<event>
 8    1  0.1063984E+005  0.1043930E+01  0.7957747E-01            NaN
         13   -1    0    0    0    0  0.00000000000E+00  0.00000000000E+00  0.74505805969E-08  0.10566000000E+00  0.10566000000E+00 0. -1.
     999900   -1    0    0    0    0 -0.00000000000E+00 -0.00000000000E+00 -0.74505805969E-08  0.93827000000E+00  0.93827000000E+00 0.  1.
     999902    2    1    2    0    0 -0.84000800033E-02 -0.18961617454E-01 -0.10940849862E-01  0.10204820475E+01  0.10202126263E+01 0.  0.
     999903    2    3    3    0    0  0.81367807631E-01 -0.20651981004E-01 -0.99300272971E-01  0.13151156507E+00  0.19685606375E-01 0.  0.
         14    1    1    2    0    0  0.84000800033E-02  0.18961617454E-01  0.10940849862E-01  0.23447952496E-01  0.00000000000E+00 0. -1.
     999901    1    3    3    0    0 -0.89767887634E-01  0.16903635497E-02  0.88359423109E-01  0.88897048243E+00  0.88000000000E+00 0. -1.
        -11    1    4    4    0    0  0.53932586749E-01 -0.19784479160E-01 -0.77411648972E-01  0.96400072856E-01  0.51100000000E-03 0. -1.
         11    1    4    4    0    0  0.27435220881E-01 -0.86750184376E-03 -0.21888623998E-01  0.35111492218E-01  0.51100000000E-03 0.  1.
</event>
<event>
 8    1  0.1063984E+005  0.1043930E+01  0.7957747E-01            NaN
         13   -1    0    0    0    0  0.00000000000E+00  0.00000000000E+00  0.74505805969E-08  0.10566000000E+00  0.10566000000E+00 0. -1.
     999900   -1    0    0    0    0 -0.00000000000E+00 -0.00000000000E+00 -0.74505805969E-08  0.93827000000E+00  0.93827000000E+00 0. -1.
     999902    2    1    2    0    0 -0.36671383806E-02 -0.13946309755E-01 -0.12007048018E-01  0.10251652282E+01  0.10249934772E+01 0.  0.
     999903    2    3    3    0    0 -0.11814917329E+00 -0.30922921457E-01 -0.57649600574E-01  0.13641465334E+00  0.19236085346E-01 0.  0.
         14    1    1    2    0    0  0.36671383806E-02  0.13946309755E-01  0.12007048018E-01  0.18764771829E-01  0.00000000000E+00 0. -1.
     999901    1    3    3    0    0  0.11448203491E+00  0.16976611701E-01  0.45642552556E-01  0.88875057483E+00  0.88000000000E+00 0. -1.
        -11    1    4    4    0    0 -0.27287761986E-01  0.98980347537E-03 -0.11726895389E-01  0.29721757377E-01  0.51100000000E-03 0. -1.
         11    1    4    4    0    0 -0.90861411301E-01 -0.31912724932E-01 -0.45922705185E-01  0.10669289596E+00  0.51100000000E-03 0.  1.
</event>
<event>
 8    1  0.1063984E+005  0.1043930E+01  0.7957747E-01            NaN
         13   -1    0    0    0    0  0.00000000000E+00  0.00000000000E+00  0.74505805969E-08  0.10566000000E+00  0.10566000000E+00 0.  1.
     999900   -1    0    0    0    0 -0.00000000000E+00 -0.00000000000E+00 -0.74505805969E-08  0.93827000000E+00  0.93827000000E+00 0. -1.
     999902    2    1    2    0    0 -0.18369588274E-01 -0.77348783177E-02 -0.11991172439E-01  0.10206693394E+01  0.10204042542E+01 0.  0.
     999903    2    3    3    0    0 -0.48329436804E-01  0.66462386127E-01 -0.10197080987E+00  0.13246938344E+00  0.19927575186E-01 0.  0.
         14    1    1    2    0    0  0.18369588274E-01  0.77348783177E-02  0.11991172439E-01  0.23260660618E-01  0.00000000000E+00 0.  1.
     999901    1    3    3    0    0  0.29959848530E-01 -0.74197264445E-01  0.89979637433E-01  0.88819995594E+00  0.88000000000E+00 0.  1.
        -11    1    4    4    0    0 -0.19637316942E-01  0.12409265204E-01 -0.31341113826E-01  0.39014620548E-01  0.51100000000E-03 0.  1.
         11    1    4    4    0    0 -0.28692119861E-01  0.54053120923E-01 -0.70629696045E-01  0.93454762897E-01  0.51100000000E-03 0. -1.
</event>
<event>
 8    1  0.1063984E+005  0.1043930E+01  0.7957747E-01            NaN
         13   -1    0    0    0    0  0.00000000000E+00  0.00000000000E+00  0.74505805969E-08  0.10566000000E+00  0.10566000000E+00 0. -1.
     999900   -1    0    0    0    0 -0.00000000000E+00 -0.00000000000E+00 -0.74505805969E-08  0.93827000000E+00  0.93827000000E+00 0. -1.
     999902    2    1    2    0    0  0.27194480883E-02  0.19940841312E-01  0.13399114531E-01  0.10197521419E+01  0.10194654787E+01 0.  0.
     999903    2    3    3    0    0 -0.74853357097E-01 -0.99213082270E-01 -0.19214293706E-01  0.12774382807E+00  0.22428458849E-01 0.  0.
         14    1    1    2    0    0 -0.27194480883E-02 -0.19940841312E-01 -0.13399114531E-01  0.24177858059E-01  0.00000000000E+00 0.  1.
     999901    1    3    3    0    0  0.77572805186E-01  0.11915392358E+00  0.32613408237E-01  0.89200831387E+00  0.88000000000E+00 0. -1.
        -11    1    4    4    0    0 -0.48643676259E-01 -0.54066402933E-01 -0.20358676476E-01  0.75525624757E-01  0.51100000000E-03 0. -1.
         11    1    4    4    0    0 -0.26209680838E-01 -0.45146679337E-01  0.11443827694E-02  0.52218203318E-01  0.51100000000E-03 0.  1.
</event>
<event>
 8    1  0.1063984E+005  0.1043930E+01  0.7957747E-01            NaN
         13   -1    0    0    0    0  0.00000000000E+00  0.00000000000E+00  0.74505805969E-08  0.10566000000E+00  0.10566000000E+00 0.  1.
     999900   -1    0    0    0    0 -0.00000000000E+00 -0.00000000000E+00 -0.74505805969E-08  0.93827000000E+00  0.93827000000E+00 0. -1.
     999902    2    1    2    0    0  0.42683180254E-02 -0.18524989702E-02 -0.21065782612E-01  0.10223564632E+01  0.10221288179E+01 0.  0.
     999903    2    3    3    0    0 -0.10879054024E+00  0.27383011856E-01 -0.69174498400E-01  0.13333932670E+00  0.20225079280E-01 0.  0.
         14    1    1    2    0    0 -0.42683180254E-02  0.18524989702E-02  0.21065782612E-01  0.21573536758E-01  0.00000000000E+00 0.  1.
     999901    1    3    3    0    0  0.11305885827E+00 -0.29235510826E-01  0.48108715788E-01  0.88901713654E+00  0.88000000000E+00 0. -1.
        -11    1    4    4    0    0 -0.45752911669E-01  0.20511108196E-01 -0.24787049945E-01  0.55934724917E-01  0.51100000000E-03 0. -1.
         11    1    4    4    0    0 -0.63037628574E-01  0.68719036602E-02 -0.44387448455E-01  0.77404601785E-01  0.51100000000E-03 0.  1.
</event>
<event>
 8    1  0.1063984E+005  0.1043930E+01  0.7957747E-01            NaN
         13   -1    0    0    0    0  0.00000000000E+00  0.00000000000E+00  0.74505805969E-08  0.10566000000E+00  0.10566000000E+00 0.  1.
     999900   -1    0    0    0    0 -0.00000000000E+00 -0.00000000000E+00 -0.74505805969E-08  0.93827000000E+00  0.93827000000E+00 0.  1.
     999902    2    1    2    0    0  0.22734490781E-01 -0.30217316989E-03  0.57930564428E-02  0.10204670956E+01  0.10201973267E+01 0.  0.
     999903    2    3    3    0    0  0.78650280858E-01 -0.49572284530E-01 -0.91478509316E-01  0.13197630952E+00  0.20153176801E-01 0.  0.
         14    1    1    2    0    0 -0.22734490781E-01  0.30217316989E-03 -0.57930564428E-02  0.23462904395E-01  0.00000000000E+00 0. -1.
     999901    1    3    3    0    0 -0.55915790077E-01  0.49270111360E-01  0.97271565759E-01  0.88849078609E+00  0.88000000000E+00 0. -1.
        -11    1    4    4    0    0  0.60921410483E-01 -0.27585881546E-01 -0.64710082484E-01  0.93059416568E-01  0.51100000000E-03 0.  1.
         11    1    4    4    0    0  0.17728870375E-01 -0.21986402984E-01 -0.26768426832E-01  0.38916892952E-01  0.51100000000E-03 0. -1.
</event>
<event>
 8    1  0.1063984E+005  0.1043930E+01  0.7957747E-01            NaN
         13   -1    0    0    0    0  0.00000000000E+00  0.00000000000E+00  0.74505805969E-08  0.10566000000E+00  0.10566000000E+00 0. -1.
     999900   -1    0    0    0    0 -0.00000000000E+00 -0.00000000000E+00 -0.74505805969E-08  0.93827000000E+00  0.93827000000E+00 0.  1.
     999902    2    1    2    0    0 -0.17001922001E-01 -0.13456821012E-02  0.16061816051E-01  0.10205022782E+01  0.10202333271E+01 0.  0.
     999903    2    3    3    0    0  0.87901660886E-01 -0.91543493585E-01  0.18334715722E-01  0.12969052878E+00  0.19405108880E-01 0.  0.
         14    1    1    2    0    0  0.17001922001E-01  0.13456821012E-02 -0.16061816051E-01  0.23427721761E-01  0.00000000000E+00 0.  1.
     999901    1    3    3    0    0 -0.10490358289E+00  0.90197811484E-01 -0.22728996706E-02  0.89081174946E+00  0.88000000000E+00 0.  1.
        -11    1    4    4    0    0  0.58106759491E-01 -0.60255076653E-01  0.27418063445E-02  0.83754691714E-01  0.51100000000E-03 0. -1.
         11    1    4    4    0    0  0.29794901395E-01 -0.31288416932E-01  0.15592909377E-01  0.45935837068E-01  0.51100000000E-03 0.  1.
</event>
<event>
 8    1  0.1063984E+005  0.1043930E+01  0.7957747E-01            NaN
         13   -1    0    0    0    0  0.00000000000E+00  0.00000000000E+00  0.74505805969E-08  0.10566000000E+00  0.10566000000E+00 0. -1.
     999900   -1    0    0    0    0 -0.00000000000E+00 -0.00000000000E+00 -0.74505805969E-08  0.93827000000E+00  0.93827000000E+00 0.  1.
     999902    2    1    2    0    0 -0.21920508525E-01 -0.81928834286E-02 -0.33656796192E-02  0.10202876686E+01  0.10200137092E+01 0.  0.
     999903    2    3    3    0    0  0.70109430360E-01 -0.78563903144E-01  0.72523590361E-01  0.12945616304E+00  0.20288121840E-01 0.  0.
         14    1    1    2    0    0  0.21920508525E-01  0.81928834286E-02  0.33656796192E-02  0.23642331361E-01  0.00000000000E+00 0.  1.
     999901    1    3    3    0    0 -0.92029938886E-01  0.70371019716E-01 -0.75889269981E-01  0.89083150560E+00  0.88000000000E+00 0.  1.
        -11    1    4    4    0    0  0.30858962545E-01 -0.46195339475E-01  0.45714480381E-01  0.71946923465E-01  0.51100000000E-03 0. -1.
         11    1    4    4    0    0  0.39250467815E-01 -0.32368563669E-01  0.26809109981E-01  0.57509239576E-01  0.51100000000E-03 0.  1.
</event>
<event>
 8    1  0.1063984E+005  0.1043930E+01  0.7957747E-01            NaN
         13   -1    0    0    0    0  0.00000000000E+00  0.00000000000E+00  0.74505805969E-08  0.10566000000E+00  0.10566000000E+00 0. -1.
     999900   -1    0    0    0    0 -0.00000000000E+00 -0.00000000000E+00 -0.74505805969E-08  0.93827000000E+00  0.93827000000E+00 0. -1.
     999902    2    1    2    0    0 -0.32357363814E-02  0.71103727417E-02  0.23730214552E-01  0.10189469963E+01  0.10186406780E+01 0.  0.
     999903    2    3    3    0    0 -0.10323473031E+00  0.58830368982E-01 -0.46104359772E-01  0.12903035720E+00  0.20119623116E-01 0.  0.
         14    1    1    2    0    0  0.32357363814E-02 -0.71103727417E-02 -0.23730214552E-01  0.24983003685E-01  0.00000000000E+00 0.  1.
     999901    1    3    3    0    0  0.99998993924E-01 -0.51719996240E-01  0.69834574323E-01  0.88991663911E+00  0.88000000000E+00 0.  1.
        -11    1    4    4    0    0 -0.24522372861E-01  0.17844749332E-01 -0.20693696076E-01  0.36718823888E-01  0.51100000000E-03 0. -1.
         11    1    4    4    0    0 -0.78712357445E-01  0.40985619650E-01 -0.25410663696E-01  0.92311533315E-01  0.51100000000E-03 0.  1.
</event>
<event>
 8    1  0.1063984E+005  0.1043930E+01  0.7957747E-01            NaN
         13   -1    0    0    0    0  0.00000000000E+00  0.00000000000E+00  0.74505805969E-08  0.10566000000E+00  0.10566000000E+00 0. -1.
     999900   -1    0    0    0    0 -0.00000000000E+00 -0.00000000000E+00 -0.74505805969E-08  0.93827000000E+00  0.93827000000E+00 0. -1.
     999902    2    1    2    0    0  0.19605193630E-01 -0.96934935181E-02 -0.95137051826E-02  0.10200796746E+01  0.10198008161E+01 0.  0.
     999903    2    3    3    0    0 -0.98973641319E-01 -0.91257285846E-02 -0.80229104115E-01  0.12931487397E+00  0.20163503766E-01 0.  0.
         14    1    1    2    0    0 -0.19605193630E-01  0.96934935181E-02  0.95137051826E-02  0.23850325368E-01  0.00000000000E+00 0. -1.
     999901    1    3    3    0    0  0.11857883495E+00 -0.56776493347E-03  0.70715398933E-01  0.89076480066E+00  0.88000000000E+00 0.  1.
        -11    1    4    4    0    0 -0.43719982620E-01 -0.13514936060E-01 -0.40574431163E-01  0.61160738732E-01  0.51100000000E-03 0. -1.
         11    1    4    4    0    0 -0.55253658699E-01  0.43892074754E-02 -0.39654672952E-01  0.68154135237E-01  0.51100000000E-03 0.  1.
</event>
<event>
 8    1  0.1063984E+005  0.1043930E+01  0.7957747E-01            NaN
         13   -1    0    0    0    0  0.00000000000E+00  0.00000000000E+00  0.74505805969E-08  0.10566000000E+00  0.10566000000E+00 0.  1.
     999900   -1    0    0    0    0 -0.00000000000E+00 -0.00000000000E+00 -0.74505805969E-08  0.93827000000E+00  0.93827000000E+00 0. -1.
     999902    2    1    2    0    0  0.15544211863E-01 -0.11045383889E-02  0.17496001017E-01  0.10205002629E+01  0.10202312650E+01 0.  0.
     999903    2    3    3    0    0 -0.10651932642E+00 -0.29705719881E-01  0.66046573081E-01  0.13028978613E+00  0.19608209001E-01 0.  0.
         14    1    1    2    0    0 -0.15544211863E-01  0.11045383889E-02 -0.17496001017E-01  0.23429737068E-01  0.00000000000E+00 0. -1.
     999901    1    3    3    0    0  0.12206353828E+00  0.28601181492E-01 -0.48550572064E-01  0.89021047680E+00  0.88000000000E+00 0. -1.
        -11    1    4    4    0    0 -0.77472019994E-02  0.17322690982E-02  0.88535184477E-02  0.11902344515E-01  0.51100000000E-03 0. -1.
         11    1    4    4    0    0 -0.98772124417E-01 -0.31437988979E-01  0.57193054633E-01  0.11838744161E+00  0.51100000000E-03 0.  1.
</event>
<event>
 8    1  0.1063984E+005  0.1043930E+01  0.7957747E-01            NaN
         13   -1    0    0    0    0  0.00000000000E+00  0.00000000000E+00  0.74505805969E-08  0.10566000000E+00  0.10566000000E+00 0.  1.
     999900   -1    0    0    0    0 -0.00000000000E+00 -0.00000000000E+00 -0.74505805969E-08  0.93827000000E+00  0.93827000000E+00 0. -1.
     999902    2    1    2    0    0 -0.14211457382E-01  0.18348977654E-01 -0.35277432696E-02  0.10204545772E+01  0.10201845170E+01 0.  0.
     999903    2    3    3    0    0  0.73638774631E-01  0.10474679852E+00 -0.23486685923E-01  0.13164604548E+00  0.19608568134E-01 0.  0.
         14    1    1    2    0    0  0.14211457382E-01 -0.18348977654E-01  0.35277432696E-02  0.23475422775E-01  0.00000000000E+00 0.  1.
     999901    1    3    3    0    0 -0.87850232013E-01 -0.86397820868E-01  0.19958942654E-01  0.88880853175E+00  0.88000000000E+00 0.  1.
        -11    1    4    4    0    0  0.43421178022E-01  0.73466748888E-01 -0.21976919348E-01  0.88124956726E-01  0.51100000000E-03 0.  1.
         11    1    4    4    0    0  0.30217596609E-01  0.31280049635E-01 -0.15097665756E-02  0.43521088751E-01  0.51100000000E-03 0. -1.
</event>
<event>
 8    1  0.1063984E+005  0.1043930E+01  0.7957747E-01            NaN
         13   -1    0    0    0    0  0.00000000000E+00  0.00000000000E+00  0.74505805969E-08  0.10566000000E+00  0.10566000000E+00 0. -1.
     999900   -1    0    0    0    0 -0.00000000000E+00 -0.00000000000E+00 -0.74505805969E-08  0.93827000000E+00  0.93827000000E+00 0.  1.
     999902    2    1    2    0    0 -0.15769028392E-01 -0.14243177600E-01  0.10639548265E-01  0.10201659441E+01  0.10198891230E+01 0.  0.
     999903    2    3    3    0    0  0.93020994438E-01 -0.84792452990E-01 -0.26334524944E-01  0.12989657398E+00  0.18356122596E-01 0.  0.
         14    1    1    2    0    0  0.15769028392E-01  0.14243177600E-01 -0.10639548265E-01  0.23764055879E-01  0.00000000000E+00 0.  1.
     999901    1    3    3    0    0 -0.10879002283E+00  0.70549275390E-01  0.36974073209E-01  0.89026937014E+00  0.88000000000E+00 0. -1.
        -11    1    4    4    0    0  0.17759189949E-01 -0.24408136909E-01 -0.11322723935E-01  0.32243001928E-01  0.51100000000E-03 0. -1.
         11    1    4    4    0    0  0.75261804489E-01 -0.60384316081E-01 -0.15011801009E-01  0.97653572050E-01  0.51100000000E-03 0.  1.
</event>
<event>
 8    1  0.1063984E+005  0.1043930E+01  0.7957747E-01            NaN
         13   -1    0    0    0    0  0.00000000000E+00  0.00000000000E+00  0.74505805969E-08  0.10566000000E+00  0.10566000000E+00 0. -1.
     999900   -1    0    0    0    0 -0.00000000000E+00 -0.00000000000E+00 -0.74505805969E-08  0.93827000000E+00  0.93827000000E+00 0.  1.
     999902    2    1    2    0    0  0.15627044693E-01  0.13471674657E-01  0.12990623448E-01  0.10195487194E+01  0.10192571533E+01 0.  0.
     999903    2    3    3    0    0  0.37459914563E-01  0.14823447322E-02  0.12562316387E+00  0.13202040587E+00  0.15580940942E-01 0.  0.
         14    1    1    2    0    0 -0.15627044693E-01 -0.13471674657E-01 -0.12990623448E-01  0.24381280554E-01  0.00000000000E+00 0.  1.
     999901    1    3    3    0    0 -0.21832869870E-01  0.11989329925E-01 -0.11263254042E+00  0.88752831358E+00  0.88000000000E+00 0.  1.
        -11    1    4    4    0    0  0.32399317960E-01  0.15687922001E-02  0.83326421184E-01  0.89418848693E-01  0.51100000000E-03 0.  1.
         11    1    4    4    0    0  0.50605966029E-02 -0.86447467959E-04  0.42296742685E-01  0.42601557177E-01  0.51100000000E-03 0. -1.
</event>
<event>
 8    1  0.1063984E+005  0.1043930E+01  0.7957747E-01            NaN
         13   -1    0    0    0    0  0.00000000000E+00  0.00000000000E+00  0.74505805969E-08  0.10566000000E+00  0.10566000000E+00 0. -1.
     999900   -1    0    0    0    0 -0.00000000000E+00 -0.00000000000E+00 -0.74505805969E-08  0.93827000000E+00  0.93827000000E+00 0.  1.
     999902    2    1    2    0    0  0.83238909782E-02 -0.25441207375E-01  0.10784495098E-01  0.10150709022E+01  0.10146605782E+01 0.  0.
     999903    2    3    3    0    0  0.33980693434E-01  0.10751158167E-01  0.12033295213E+00  0.12716943056E+00  0.20537034111E-01 0.  0.
         14    1    1    2    0    0 -0.83238909782E-02  0.25441207375E-01 -0.10784495098E-01  0.28859097842E-01  0.00000000000E+00 0. -1.
     999901    1    3    3    0    0 -0.25656802456E-01 -0.36192365542E-01 -0.10954845704E+00  0.88790147160E+00  0.88000000000E+00 0.  1.
        -11    1    4    4    0    0  0.93115371276E-02  0.56640137874E-02  0.13257064054E-01  0.17169643100E-01  0.51100000000E-03 0. -1.
         11    1    4    4    0    0  0.24669156306E-01  0.50871443797E-02  0.10707588808E+00  0.10999978745E+00  0.51100000000E-03 0.  1.
</event>
<event>
 8    1  0.1063984E+005  0.1043930E+01  0.7957747E-01            NaN
         13   -1    0    0    0    0  0.00000000000E+00  0.00000000000E+00  0.74505805969E-08  0.10566000000E+00  0.10566000000E+00 0.  1.
     999900   -1    0    0    0    0 -0.00000000000E+00 -0.00000000000E+00 -0.74505805969E-08  0.93827000000E+00  0.93827000000E+00 0. -1.
     999902    2    1    2    0    0  0.44700735168E-02 -0.19864193404E-01  0.17746473413E-01  0.10169206487E+01  0.10165619021E+01 0.  0.
     999903    2    3    3    0    0  0.11056415131E+00  0.50287154326E-01 -0.29824932348E-01  0.12650490114E+00  0.18992998140E-01 0.  0.
         14    1    1    2    0    0 -0.44700735168E-02  0.19864193404E-01 -0.17746473413E-01  0.27009351259E-01  0.00000000000E+00 0. -1.
     999901    1    3    3    0    0 -0.10609407779E+00 -0.70151347730E-01  0.47571405761E-01  0.89041574760E+00  0.88000000000E+00 0.  1.
        -11    1    4    4    0    0  0.53019108095E-01  0.33399980710E-01 -0.10819995659E-01  0.63591807347E-01  0.51100000000E-03 0.  1.
         11    1    4    4    0    0  0.57545043212E-01  0.16887173617E-01 -0.19004936689E-01  0.62913093793E-01  0.51100000000E-03 0. -1.
</event>
<event>
 8    1  0.1063984E+005  0.1043930E+01  0.7957747E-01            NaN
         13   -1    0    0    0    0  0.00000000000E+00  0.00000000000E+00  0.74505805969E-08  0.10566000000E+00  0.10566000000E+00 0. -1.
     999900   -1    0    0    0    0 -0.00000000000E+00 -0.00000000000E+00 -0.74505805969E-08  0.93827000000E+00  0.93827000000E+00 0. -1.
     999902    2    1    2    0    0  0.91487289809E-02  0.15326518903E-01  0.16093117471E-01  0.10198969009E+01  0.10196137007E+01 0.  0.
     999903    2    3    3    0    0  0.58516027616E-01  0.11306052075E+00 -0.22918997952E-01  0.13225338547E+00  0.27547607167E-01 0.  0.
         14    1    1    2    0    0 -0.91487289809E-02 -0.15326518903E-01 -0.16093117471E-01  0.24033099125E-01  0.00000000000E+00 0.  1.
     999901    1    3    3    0    0 -0.49367298635E-01 -0.97734001848E-01  0.39012115423E-01  0.88764351541E+00  0.88000000000E+00 0.  1.
        -11    1    4    4    0    0  0.29846067032E-01  0.79550803916E-01 -0.23460940925E-01  0.88146440603E-01  0.51100000000E-03 0.  1.
         11    1    4    4    0    0  0.28669960584E-01  0.33509716834E-01  0.54194297251E-03  0.44106944866E-01  0.51100000000E-03 0. -1.
</event>
<event>
 8    1  0.1063984E+005  0.1043930E+01  0.7957747E-01            NaN
         13   -1    0    0    0    0  0.00000000000E+00  0.00000000000E+00  0.74505805969E-08  0.10566000000E+00  0.10566000000E+00 0. -1.
     999900   -1    0    0    0    0 -0.00000000000E+00 -0.00000000000E+00 -0.74505805969E-08  0.93827000000E+00  0.93827000000E+00 0.  1.
     999902    2    1    2    0    0  0.66123779894E-02  0.32649983237E-02 -0.23012734535E-01  0.10197645348E+01  0.10194781689E+01 0.  0.
     999903    2    3    3    0    0  0.79982789817E-01 -0.91347298522E-01 -0.45480595247E-01  0.13137300581E+00  0.21185053634E-01 0.  0.
         14    1    1    2    0    0 -0.66123779894E-02 -0.32649983237E-02  0.23012734535E-01  0.24165465183E-01  0.00000000000E+00 0. -1.
     999901    1    3    3    0    0 -0.73370411828E-01  0.94612296845E-01  0.22467860712E-01  0.88839152901E+00  0.88000000000E+00 0. -1.
        -11    1    4    4    0    0  0.66689179192E-01 -0.63667439868E-01 -0.38256800827E-01  0.99824012398E-01  0.51100000000E-03 0. -1.
         11    1    4    4    0    0  0.13293610625E-01 -0.27679858653E-01 -0.72237944205E-02  0.31548993413E-01  0.51100000000E-03 0.  1.
</event>
<event>
 8    1  0.1063984E+005  0.1043930E+01  0.7957747E-01            NaN
         13   -1    0    0    0    0  0.00000000000E+00  0.00000000000E+00  0.74505805969E-08  0.10566000000E+00  0.10566000000E+00 0.  1.
     999900   -1    0    0    0    0 -0.00000000000E+00 -0.00000000000E+00 -0.74505805969E-08  0.93827000000E+00  0.93827000000E+00 0.  1.
     999902    2    1    2    0    0  0.20607656748E-01  0.10354691774E-01 -0.83117976639E-02  0.10194150833E+01  0.10191202731E+01 0.  0.
     999903    2    3    3    0    0  0.78870071792E-01 -0.87832169359E-01 -0.48478445616E-01  0.13113104751E+00  0.30169748639E-01 0.  0.
         14    1    1    2    0    0 -0.20607656748E-01 -0.10354691774E-01  0.83117976639E-02  0.24514916659E-01  0.00000000000E+00 0.  1.
     999901    1    3    3    0    0 -0.58262415044E-01  0.98186861133E-01  0.40166647952E-01  0.88828403583E+00  0.88000000000E+00 0.  1.
        -11    1    4    4    0    0  0.40713018554E-01 -0.40355405667E-01 -0.39364890827E-01  0.69541098619E-01  0.51100000000E-03 0. -1.
         11    1    4    4    0    0  0.38157053237E-01 -0.47476763692E-01 -0.91135547884E-02  0.61589948890E-01  0.51100000000E-03 0.  1.
</event>
<event>
 8    1  0.1063984E+005  0.1043930E+01  0.7957747E-01            NaN
         13   -1    0    0    0    0  0.00000000000E+00  0.00000000000E+00  0.74505805969E-08  0.10566000000E+00  0.10566000000E+00 0.  1.
     999900   -1    0    0    0    0 -0.00000000000E+00 -0.00000000000E+00 -0.74505805969E-08  0.93827000000E+00  0.93827000000E+00 0.  1.
     999902    2    1    2    0    0  0.49350558467E-02  0.11057393808E-01 -0.20315563449E-01  0.10202795697E+01  0.10200054203E+01 0.  0.
     999903    2    3    3    0    0  0.64680560572E-01  0.11182461256E+00  0.15788054537E-01  0.13178250786E+00  0.20713469586E-01 0.  0.
         14    1    1    2    0    0 -0.49350558467E-02 -0.11057393808E-01  0.20315563449E-01  0.23650430277E-01  0.00000000000E+00 0.  1.
     999901    1    3    3    0    0 -0.59745504725E-01 -0.10076721875E+00 -0.36103617986E-01  0.88849706186E+00  0.88000000000E+00 0. -1.
        -11    1    4    4    0    0  0.46163331688E-01  0.65157313325E-01  0.16620844711E-01  0.81566183386E-01  0.51100000000E-03 0. -1.
         11    1    4    4    0    0  0.18517228884E-01  0.46667299232E-01 -0.83279017410E-03  0.50216324473E-01  0.51100000000E-03 0.  1.
</event>
<event>
 8    1  0.1063984E+005  0.1043930E+01  0.7957747E-01            NaN
         13   -1    0    0    0    0  0.00000000000E+00  0.00000000000E+00  0.74505805969E-08  0.10566000000E+00  0.10566000000E+00 0.  1.
     999900   -1    0    0    0    0 -0.00000000000E+00 -0.00000000000E+00 -0.74505805969E-08  0.93827000000E+00  0.93827000000E+00 0.  1.
     999902    2    1    2    0    0  0.15942787195E-01  0.43704132117E-02  0.23002678884E-01  0.10156034010E+01  0.10152082899E+01 0.  0.
     999903    2    3    3    0    0 -0.29360645009E-01  0.90402348013E-01  0.83613395813E-01  0.12817590887E+00  0.20080628827E-01 0.  0.
         14    1    1    2    0    0 -0.15942787195E-01 -0.43704132117E-02 -0.23002678884E-01  0.28326599002E-01  0.00000000000E+00 0. -1.
     999901    1    3    3    0    0  0.45303432204E-01 -0.86031934801E-01 -0.60610716928E-01  0.88742749213E+00  0.88000000000E+00 0. -1.
        -11    1    4    4    0    0 -0.17069507106E-01  0.69366270005E-01  0.71069233684E-01  0.10076777553E+00  0.51100000000E-03 0.  1.
         11    1    4    4    0    0 -0.12291137903E-01  0.21036078008E-01  0.12544162129E-01  0.27408133344E-01  0.51100000000E-03 0. -1.
</event>
<event>
 8    1  0.1063984E+005  0.1043930E+01  0.7957747E-01            NaN
         13   -1    0    0    0    0  0.00000000000E+00  0.00000000000E+00  0.74505805969E-08  0.10566000000E+00  0.10566000000E+00 0. -1.
     999900   -1    0    0    0    0 -0.00000000000E+00 -0.00000000000E+00 -0.74505805969E-08  0.93827000000E+00  0.93827000000E+00 0. -1.
     999902    2    1    2    0    0 -0.17547031738E-01  0.18235502114E-01 -0.35801016653E-02  0.10183712640E+01  0.10180504812E+01 0.  0.
     999903    2    3    3    0    0 -0.11540388167E-02  0.31241214083E-01  0.12352737287E+00  0.12899272315E+00  0.20069018769E-01 0.  0.
         14    1    1    2    0    0  0.17547031738E-01 -0.18235502114E-01  0.35801016653E-02  0.25558736043E-01  0.00000000000E+00 0. -1.
     999901    1    3    3    0    0 -0.16392992922E-01 -0.13005711969E-01 -0.12710747454E+00  0.88937854080E+00  0.88000000000E+00 0. -1.
        -11    1    4    4    0    0  0.77112046395E-02  0.24439354589E-01  0.77640153102E-01  0.81761844552E-01  0.51100000000E-03 0.  1.
         11    1    4    4    0    0 -0.88652434562E-02  0.68018594942E-02  0.45887219770E-01  0.47230878600E-01  0.51100000000E-03 0. -1.
</event>
<event>
 8    1  0.1063984E+005  0.1043930E+01  0.7957747E-01            NaN
         13   -1    0    0    0    0  0.00000000000E+00  0.00000000000E+00  0.74505805969E-08  0.10566000000E+00  0.10566000000E+00 0.  1.
     999900   -1    0    0    0    0 -0.00000000000E+00 -0.00000000000E+00 -0.74505805969E-08  0.93827000000E+00  0.93827000000E+00 0.  1.
     999902    2    1    2    0    0  0.14779004457E-01 -0.10107821849E-01 -0.15734125181E-01  0.10200941084E+01  0.10198155913E+01 0.  0.
     999903    2    3    3    0    0 -0.10201025587E+00 -0.62641369367E-01  0.43480757388E-01  0.12885569622E+00  0.19575002589E-01 0.  0.
         14    1    1    2    0    0 -0.14779004457E-01  0.10107821849E-01  0.15734125181E-01  0.23835891644E-01  0.00000000000E+00 0.  1.
     999901    1    3    3    0    0  0.11678926033E+00  0.52533547518E-01 -0.59214882569E-01  0.89123841213E+00  0.88000000000E+00 0. -1.
        -11    1    4    4    0    0 -0.48942723107E-01 -0.20116608556E-01  0.14027189180E-01  0.54745696107E-01  0.51100000000E-03 0.  1.
         11    1    4    4    0    0 -0.53067532767E-01 -0.42524760811E-01  0.29453568208E-01  0.74110000116E-01  0.51100000000E-03 0. -1.
</event>
<event>
 8    1  0.1063984E+005  0.1043930E+01  0.7957747E-01            NaN
         13   -1    0    0    0    0  0.00000000000E+00  0.00000000000E+00  0.74505805969E-08  0.10566000000E+00  0.10566000000E+00 0. -1.
     999900   -1    0    0    0    0 -0.00000000000E+00 -0.00000000000E+00 -0.74505805969E-08  0.93827000000E+00  0.93827000000E+00 0.  1.
     999902    2    1    2    0    0 -0.23151312847E-01  0.87190210994E-02 -0.88621253273E-02  0.10176518364E+01  0.10173124979E+01 0.  0.
     999903    2    3    3    0    0  0.84007257150E-02 -0.55291592754E-01 -0.11384579767E+00  0.12854303471E+00  0.20849789059E-01 0.  0.
         14    1    1    2    0    0  0.23151312847E-01 -0.87190210994E-02  0.88621253273E-02  0.26278163574E-01  0.00000000000E+00 0.  1.
     999901    1    3    3    0    0 -0.31552038562E-01  0.64010613854E-01  0.10498367235E+00  0.88910880171E+00  0.88000000000E+00 0. -1.
        -11    1    4    4    0    0 -0.61547349321E-02 -0.25500036593E-01 -0.44089343599E-01  0.51305593928E-01  0.51100000000E-03 0. -1.
         11    1    4    4    0    0  0.14555460647E-01 -0.29791556161E-01 -0.69756454074E-01  0.77237440786E-01  0.51100000000E-03 0.  1.
</event>
<event>
 8    1  0.1063984E+005  0.1043930E+01  0.7957747E-01            NaN
         13   -1    0    0    0    0  0.00000000000E+00  0.00000000000E+00  0.74505805969E-08  0.10566000000E+00  0.10566000000E+00 0. -1.
     999900   -1    0    0    0    0 -0.00000000000E+00 -0.00000000000E+00 -0.74505805969E-08  0.93827000000E+00  0.93827000000E+00 0.  1.
     999902    2    1    2    0    0 -0.59114089015E-02  0.59971681360E-02 -0.50096230408E-02  0.10341316785E+01  0.10340852583E+01 0.  0.
     999903    2    3    3    0    0 -0.15919255479E-01  0.13084746220E+00  0.53675304004E-01  0.14332773062E+00  0.16950488119E-01 0.  0.
         14    1    1    2    0    0  0.59114089015E-02 -0.59971681360E-02  0.50096230408E-02  0.97983214819E-02  0.00000000000E+00 0.  1.
     999901    1    3    3    0    0  0.10007846577E-01 -0.12485029406E+00 -0.58684927045E-01  0.89080394789E+00  0.88000000000E+00 0. -1.
        -11    1    4    4    0    0 -0.60113399504E-02  0.10554715306E+00  0.43038498861E-01  0.11414425624E+00  0.51100000000E-03 0. -1.
         11    1    4    4    0    0 -0.99079155284E-02  0.25300309139E-01  0.10636805144E-01  0.29183474387E-01  0.51100000000E-03 0.  1.
</event>
<event>
 8    1  0.1063984E+005  0.1043930E+01  0.7957747E-01            NaN
         13   -1    0    0    0    0  0.00000000000E+00  0.00000000000E+00  0.74505805969E-08  0.10566000000E+00  0.10566000000E+00 0.  1.
     999900   -1    0    0    0    0 -0.00000000000E+00 -0.00000000000E+00 -0.74505805969E-08  0.93827000000E+00  0.93827000000E+00 0.  1.
     999902    2    1    2    0    0  0.97949763657E-02  0.17544647052E-01 -0.52859597256E-02  0.10231526669E+01  0.10229416807E+01 0.  0.
     999903    2    3    3    0    0 -0.20841611632E-01  0.96051976513E-03 -0.13049571901E+00  0.13360721124E+00  0.19658556441E-01 0.  0.
         14    1    1    2    0    0 -0.97949763657E-02 -0.17544647052E-01  0.52859597256E-02  0.20777333140E-01  0.00000000000E+00 0.  1.
     999901    1    3    3    0    0  0.30636587998E-01  0.16584127287E-01  0.12520975928E+00  0.88954545562E+00  0.88000000000E+00 0. -1.
        -11    1    4    4    0    0 -0.19997453705E-01 -0.56188929781E-02 -0.79133647426E-01  0.81816046036E-01  0.51100000000E-03 0. -1.
         11    1    4    4    0    0 -0.84415792669E-03  0.65794127432E-02 -0.51362071581E-01  0.51791165200E-01  0.51100000000E-03 0.  1.
</event>
<event>
 8    1  0.1297555E+005  0.1043930E+01  0.7957747E-01            NaN
         13   -1    0    0    0    0  0.00000000000E+00  0.00000000000E+00  0.74505805969E-08  0.10566000000E+00  0.10566000000E+00 0. -1.
     999900   -1    0    0    0    0 -0.00000000000E+00 -0.00000000000E+00 -0.74505805969E-08  0.93827000000E+00  0.93827000000E+00 0.  1.
     999902    2    1    2    0    0  0.29017120119E-01 -0.14730184094E-02 -0.12948788742E-01  0.10121206590E+01  0.10116206771E+01 0.  0.
     999903    2    3    3    0    0 -0.80403588961E-01  0.11900973738E-01  0.85678198468E-01  0.11977597347E+00  0.19978984798E-01 0.  0.
         14    1    1    2    0    0 -0.29017120119E-01  0.14730184094E-02  0.12948788742E-01  0.31809340973E-01  0.00000000000E+00 0. -1.
     999901    1    3    3    0    0  0.10942070908E+00 -0.13373992147E-01 -0.98626987209E-01  0.89234468556E+00  0.88000000000E+00 0. -1.
        -11    1    4    4    0    0 -0.26677556515E-01  0.12195220140E-01  0.37478587871E-01  0.47595389332E-01  0.51100000000E-03 0. -1.
         11    1    4    4    0    0 -0.53726032446E-01 -0.29424640231E-03  0.48199610596E-01  0.72180584135E-01  0.51100000000E-03 0.  1.
</event>
<event>
 8    1  0.1063984E+005  0.1043930E+01  0.7957747E-01            NaN
         13   -1    0    0    0    0  0.00000000000E+00  0.00000000000E+00  0.74505805969E-08  0.10566000000E+00  0.10566000000E+00 0.  1.
     999900   -1    0    0    0    0 -0.00000000000E+00 -0.00000000000E+00 -0.74505805969E-08  0.93827000000E+00  0.93827000000E+00 0.  1.
     999902    2    1    2    0    0  0.11565108190E-01  0.67528409524E-02  0.20591310350E-01  0.10193667215E+01  0.10190707327E+01 0.  0.
     999903    2    3    3    0    0 -0.23559212256E-01 -0.10544904807E+00 -0.64994634254E-01  0.12743178234E+00  0.18439589152E-01 0.  0.
         14    1    1    2    0    0 -0.11565108190E-01 -0.67528409524E-02 -0.20591310350E-01  0.24563278493E-01  0.00000000000E+00 0. -1.
     999901    1    3    3    0    0  0.35124320446E-01  0.11220188902E+00  0.85585944604E-01  0.89193493916E+00  0.88000000000E+00 0.  1.
        -11    1    4    4    0    0 -0.13792257706E-01 -0.37266043646E-01 -0.32173672987E-01  0.51131113191E-01  0.51100000000E-03 0. -1.
         11    1    4    4    0    0 -0.97669545500E-02 -0.68183004425E-01 -0.32820961267E-01  0.76300669153E-01  0.51100000000E-03 0.  1.
</event>
<event>
 8    1  0.1063984E+005  0.1043930E+01  0.7957747E-01            NaN
         13   -1    0    0    0    0  0.00000000000E+00  0.00000000000E+00  0.74505805969E-08  0.10566000000E+00  0.10566000000E+00 0. -1.
     999900   -1    0    0    0    0 -0.00000000000E+00 -0.00000000000E+00 -0.74505805969E-08  0.93827000000E+00  0.93827000000E+00 0. -1.
     999902    2    1    2    0    0  0.35171803380E-02 -0.14505718765E-01 -0.19755183705E-01  0.10191700784E+01  0.10188692728E+01 0.  0.
     999903    2    3    3    0    0  0.38742202930E-01  0.48000345580E-01  0.10918040832E+00  0.12688525998E+00  0.19352420391E-01 0.  0.
         14    1    1    2    0    0 -0.35171803380E-02  0.14505718765E-01  0.19755183705E-01  0.24759921600E-01  0.00000000000E+00 0. -1.
     999901    1    3    3    0    0 -0.35225022592E-01 -0.62506064345E-01 -0.12893559202E+00  0.89228481842E+00  0.88000000000E+00 0. -1.
        -11    1    4    4    0    0  0.28080641252E-01  0.28660119182E-01  0.85800337601E-01  0.94720029022E-01  0.51100000000E-03 0. -1.
         11    1    4    4    0    0  0.10661561678E-01  0.19340226398E-01  0.23380070719E-01  0.32165230955E-01  0.51100000000E-03 0.  1.
</event>
<event>
 8    1  0.1063984E+005  0.1043930E+01  0.7957747E-01            NaN
         13   -1    0    0    0    0  0.00000000000E+00  0.00000000000E+00  0.74505805969E-08  0.10566000000E+00  0.10566000000E+00 0. -1.
     999900   -1    0    0    0    0 -0.00000000000E+00 -0.00000000000E+00 -0.74505805969E-08  0.93827000000E+00  0.93827000000E+00 0.  1.
     999902    2    1    2    0    0 -0.32622658945E-02 -0.21344502043E-01 -0.10515547712E-01  0.10199131957E+01  0.10196303839E+01 0.  0.
     999903    2    3    3    0    0 -0.44308734460E-01  0.12593597093E-01 -0.12153763848E+00  0.13133989437E+00  0.18891999626E-01 0.  0.
         14    1    1    2    0    0  0.32622658945E-02  0.21344502043E-01  0.10515547712E-01  0.24016804323E-01  0.00000000000E+00 0. -1.
     999901    1    3    3    0    0  0.41046468566E-01 -0.33938099135E-01  0.11102209076E+00  0.88857330131E+00  0.88000000000E+00 0. -1.
        -11    1    4    4    0    0 -0.27345611838E-01  0.16508131429E-01 -0.70166740682E-01  0.77096909854E-01  0.51100000000E-03 0. -1.
         11    1    4    4    0    0 -0.16963122622E-01 -0.39145343367E-02 -0.51370897794E-01  0.54242984518E-01  0.51100000000E-03 0.  1.
</event>
<event>
 8    1  0.1063984E+005  0.1043930E+01  0.7957747E-01            NaN
         13   -1    0    0    0    0  0.00000000000E+00  0.00000000000E+00  0.74505805969E-08  0.10566000000E+00  0.10566000000E+00 0.  1.
     999900   -1    0    0    0    0 -0.00000000000E+00 -0.00000000000E+00 -0.74505805969E-08  0.93827000000E+00  0.93827000000E+00 0. -1.
     999902    2    1    2    0    0  0.60243625872E-03 -0.20708393493E-01 -0.12021719994E-01  0.10199775003E+01  0.10196962189E+01 0.  0.
     999903    2    3    3    0    0  0.33529032463E-02  0.12153292632E+00  0.32529035818E-01  0.12743902607E+00  0.20026808371E-01 0.  0.
         14    1    1    2    0    0 -0.60243625872E-03  0.20708393493E-01  0.12021719994E-01  0.23952499705E-01  0.00000000000E+00 0.  1.
     999901    1    3    3    0    0 -0.27504669876E-02 -0.14224131981E+00 -0.44550755812E-01  0.89253847423E+00  0.88000000000E+00 0. -1.
        -11    1    4    4    0    0  0.11613108021E-01  0.65227053663E-01  0.15652457367E-01  0.68078582169E-01  0.51100000000E-03 0.  1.
         11    1    4    4    0    0 -0.82602047747E-02  0.56305872659E-01  0.16876578450E-01  0.59360443900E-01  0.51100000000E-03 0. -1.
</event>
<event>
 8    1  0.1063984E+005  0.1043930E+01  0.7957747E-01            NaN
         13   -1    0    0    0    0  0.00000000000E+00  0.00000000000E+00  0.74505805969E-08  0.10566000000E+00  0.10566000000E+00 0. -1.
     999900   -1    0    0    0    0 -0.00000000000E+00 -0.00000000000E+00 -0.74505805969E-08  0.93827000000E+00  0.93827000000E+00 0. -1.
     999902    2    1    2    0    0 -0.16553370683E-01 -0.16057997933E-01 -0.67999781890E-02  0.10198860178E+01  0.10196025579E+01 0.  0.
     999903    2    3    3    0    0 -0.61099936382E-01 -0.11370733420E+00 -0.25896892187E-01  0.13315918186E+00  0.19953912153E-01 0.  0.
         14    1    1    2    0    0  0.16553370683E-01  0.16057997933E-01  0.67999781890E-02  0.24043982239E-01  0.00000000000E+00 0.  1.
     999901    1    3    3    0    0  0.44546565699E-01  0.97649336270E-01  0.19096913998E-01  0.88672683590E+00  0.88000000000E+00 0.  1.
        -11    1    4    4    0    0 -0.17249884415E-01 -0.51318469180E-01 -0.69954460724E-02  0.54592501115E-01  0.51100000000E-03 0. -1.
         11    1    4    4    0    0 -0.43850051967E-01 -0.62388865023E-01 -0.18901446115E-01  0.78566680740E-01  0.51100000000E-03 0.  1.
</event>
<event>
 8    1  0.1063984E+005  0.1043930E+01  0.7957747E-01            NaN
         13   -1    0    0    0    0  0.00000000000E+00  0.00000000000E+00  0.74505805969E-08  0.10566000000E+00  0.10566000000E+00 0.  1.
     999900   -1    0    0    0    0 -0.00000000000E+00 -0.00000000000E+00 -0.74505805969E-08  0.93827000000E+00  0.93827000000E+00 0. -1.
     999902    2    1    2    0    0 -0.21502859863E-01 -0.10033179541E-01 -0.15560145373E-04  0.10202015800E+01  0.10199255982E+01 0.  0.
     999903    2    3    3    0    0  0.10201190867E+00  0.57703472214E-01  0.46275069124E-01  0.12779641730E+00  0.21317177004E-01 0.  0.
         14    1    1    2    0    0  0.21502859863E-01  0.10033179541E-01  0.15560145373E-04  0.23728420009E-01  0.00000000000E+00 0.  1.
     999901    1    3    3    0    0 -0.12351476854E+00 -0.67736651755E-01 -0.46290629269E-01  0.89240516269E+00  0.88000000000E+00 0. -1.
        -11    1    4    4    0    0  0.11004038968E-01  0.55766107642E-02 -0.17013632594E-02  0.12463675989E-01  0.51100000000E-03 0. -1.
         11    1    4    4    0    0  0.91007869707E-01  0.52126861450E-01  0.47976432383E-01  0.11533274131E+00  0.51100000000E-03 0.  1.
</event>
<event>
 8    1  0.1063984E+005  0.1043930E+01  0.7957747E-01            NaN
         13   -1    0    0    0    0  0.00000000000E+00  0.00000000000E+00  0.74505805969E-08  0.10566000000E+00  0.10566000000E+00 0. -1.
     999900   -1    0    0    0    0 -0.00000000000E+00 -0.00000000000E+00 -0.74505805969E-08  0.93827000000E+00  0.93827000000E+00 0.  1.
     999902    2    1    2    0    0  0.22413674966E-02 -0.19433275979E-01  0.12571422292E-01  0.10206766862E+01  0.10204117704E+01 0.  0.
     999903    2    3    3    0    0  0.34824683703E-01 -0.10644675021E+00 -0.67364433466E-01  0.13218202769E+00  0.19759866452E-01 0.  0.
         14    1    1    2    0    0 -0.22413674966E-02  0.19433275979E-01 -0.12571422292E-01  0.23253313785E-01  0.00000000000E+00 0.  1.
     999901    1    3    3    0    0 -0.32583316206E-01  0.87013474232E-01  0.79935855758E-01  0.88849465853E+00  0.88000000000E+00 0.  1.
        -11    1    4    4    0    0  0.32530581248E-01 -0.91264933360E-01 -0.64911980431E-01  0.11662483913E+00  0.51100000000E-03 0.  1.
         11    1    4    4    0    0  0.22941024549E-02 -0.15181816852E-01 -0.24524530354E-02  0.15557188560E-01  0.51100000000E-03 0. -1.
</event>
<event>
 8    1  0.1063984E+005  0.1043930E+01  0.7957747E-01            NaN
         13   -1    0    0    0    0  0.00000000000E+00  0.00000000000E+00  0.74505805969E-08  0.10566000000E+00  0.10566000000E+00 0. -1.
     999900   -1    0    0    0    0 -0.00000000000E+00 -0.00000000000E+00 -0.74505805969E-08  0.93827000000E+00  0.93827000000E+00 0.  1.
     999902    2    1    2    0    0 -0.46705291220E-02 -0.65872371850E-02 -0.22752171465E-01  0.10197873646E+01  0.10195015460E+01 0.  0.
     999903    2    3    3    0    0  0.11237763085E+00 -0.52577049344E-01 -0.34559484661E-01  0.13076838440E+00  0.22648053883E-01 0.  0.
         14    1    1    2    0    0  0.46705291220E-02  0.65872371850E-02  0.22752171465E-01  0.24142635366E-01  0.00000000000E+00 0. -1.
     999901    1    3    3    0    0 -0.11704815997E+00  0.45989812159E-01  0.11807313195E-01  0.88901898024E+00  0.88000000000E+00 0. -1.
        -11    1    4    4    0    0  0.18822790725E-01 -0.18878267655E-01 -0.81365855488E-02  0.27877438651E-01  0.51100000000E-03 0.  1.
         11    1    4    4    0    0  0.93554840126E-01 -0.33698781689E-01 -0.26422899112E-01  0.10289094575E+00  0.51100000000E-03 0. -1.
</event>
<event>
 8    1  0.1063984E+005  0.1043930E+01  0.7957747E-01            NaN
         13   -1    0    0    0    0  0.00000000000E+00  0.00000000000E+00  0.74505805969E-08  0.10566000000E+00  0.10566000000E+00 0.  1.
     999900   -1    0    0    0    0 -0.00000000000E+00 -0.00000000000E+00 -0.74505805969E-08  0.93827000000E+00  0.93827000000E+00 0. -1.
     999902    2    1    2    0    0 -0.21496763390E-01 -0.71388721559E-02 -0.90220093203E-02  0.10195482243E+01  0.10192566462E+01 0.  0.
     999903    2    3    3    0    0  0.10778229983E+00 -0.38066109410E-01  0.52488395523E-01  0.12744223283E+00  0.20504589779E-01 0.  0.
         14    1    1    2    0    0  0.21496763390E-01  0.71388721559E-02  0.90220093203E-02  0.24381775655E-01  0.00000000000E+00 0.  1.
     999901    1    3    3    0    0 -0.12927906322E+00  0.30927237255E-01 -0.61510404844E-01  0.89210599151E+00  0.88000000000E+00 0. -1.
        -11    1    4    4    0    0  0.80345498807E-01 -0.20090025320E-01  0.32138019726E-01  0.88837614381E-01  0.51100000000E-03 0.  1.
         11    1    4    4    0    0  0.27436801023E-01 -0.17976084090E-01  0.20350375798E-01  0.38604618451E-01  0.51100000000E-03 0. -1.
</event>
<event>
 8    1  0.1063984E+005  0.1043930E+01  0.7957747E-01            NaN
         13   -1    0    0    0    0  0.00000000000E+00  0.00000000000E+00  0.74505805969E-08  0.10566000000E+00  0.10566000000E+00 0. -1.
     999900   -1    0    0    0    0 -0.00000000000E+00 -0.00000000000E+00 -0.74505805969E-08  0.93827000000E+00  0.93827000000E+00 0.  1.
     999902    2    1    2    0    0  0.24141462583E-01 -0.42079926503E-02  0.64560277783E-03  0.10194160403E+01  0.10191212533E+01 0.  0.
     999903    2    3    3    0    0 -0.11112054978E-01 -0.11171330679E+00 -0.62322059593E-01  0.12994140345E+00  0.19934606601E-01 0.  0.
         14    1    1    2    0    0 -0.24141462583E-01  0.42079926503E-02 -0.64560277783E-03  0.24513959712E-01  0.00000000000E+00 0. -1.
     999901    1    3    3    0    0  0.35253517561E-01  0.10750531414E+00  0.62967662371E-01  0.88947463683E+00  0.88000000000E+00 0.  1.
        -11    1    4    4    0    0 -0.15408444599E-01 -0.61545701726E-01 -0.30728318225E-01  0.70496696574E-01  0.51100000000E-03 0. -1.
         11    1    4    4    0    0  0.42963896207E-02 -0.50167605061E-01 -0.31593741368E-01  0.59444706879E-01  0.51100000000E-03 0.  1.
</event>
<event>
 8    1  0.1063984E+005  0.1043930E+01  0.7957747E-01            NaN
         13   -1    0    0    0    0  0.00000000000E+00  0.00000000000E+00  0.74505805969E-08  0.10566000000E+00  0.10566000000E+00 0.  1.
     999900   -1    0    0    0    0 -0.00000000000E+00 -0.00000000000E+00 -0.74505805969E-08  0.93827000000E+00  0.93827000000E+00 0.  1.
     999902    2    1    2    0    0  0.21880609383E-01 -0.64008452372E-02 -0.59838273197E-02  0.10203601448E+01  0.10200878820E+01 0.  0.
     999903    2    3    3    0    0  0.96957518332E-01 -0.87967533480E-01 -0.15486373927E-01  0.13335396367E+00  0.20109812103E-01 0.  0.
         14    1    1    2    0    0 -0.21880609383E-01  0.64008452372E-02  0.59838273197E-02  0.23569855242E-01  0.00000000000E+00 0.  1.
     999901    1    3    3    0    0 -0.75076908948E-01  0.81566688243E-01  0.95025466078E-02  0.88700618108E+00  0.88000000000E+00 0.  1.
        -11    1    4    4    0    0  0.65177000391E-01 -0.47190454711E-01 -0.13661953704E-01  0.81620404898E-01  0.51100000000E-03 0.  1.
         11    1    4    4    0    0  0.31780517941E-01 -0.40777078769E-01 -0.18244202233E-02  0.51733558776E-01  0.51100000000E-03 0. -1.
</event>
<event>
 8    1  0.1063984E+005  0.1043930E+01  0.7957747E-01            NaN
         13   -1    0    0    0    0  0.00000000000E+00  0.00000000000E+00  0.74505805969E-08  0.10566000000E+00  0.10566000000E+00 0.  1.
     999900   -1    0    0    0    0 -0.00000000000E+00 -0.00000000000E+00 -0.74505805969E-08  0.93827000000E+00  0.93827000000E+00 0.  1.
     999902    2    1    2    0    0 -0.18426259599E-01 -0.10377779328E-01  0.84899782817E-02  0.10211417338E+01  0.10208874254E+01 0.  0.
     999903    2    3    3    0    0  0.37591993601E-01 -0.72232324163E-01 -0.10099834977E+00  0.13043879598E+00  0.13525760742E-01 0.  0.
         14    1    1    2    0    0  0.18426259599E-01  0.10377779328E-01 -0.84899782817E-02  0.22788266231E-01  0.00000000000E+00 0. -1.
     999901    1    3    3    0    0 -0.56018253200E-01  0.61854544834E-01  0.10948832805E+00  0.89070293779E+00  0.88000000000E+00 0. -1.
        -11    1    4    4    0    0  0.35638547607E-01 -0.61067641312E-01 -0.81665412007E-01  0.10802251400E+00  0.51100000000E-03 0. -1.
         11    1    4    4    0    0  0.19534459939E-02 -0.11164682850E-01 -0.19332937762E-01  0.22416281982E-01  0.51100000000E-03 0.  1.
</event>
<event>
 8    1  0.1063984E+005  0.1043930E+01  0.7957747E-01            NaN
         13   -1    0    0    0    0  0.00000000000E+00  0.00000000000E+00  0.74505805969E-08  0.10566000000E+00  0.10566000000E+00 0.  1.
     999900   -1    0    0    0    0 -0.00000000000E+00 -0.00000000000E+00 -0.74505805969E-08  0.93827000000E+00  0.93827000000E+00 0. -1.
     999902    2    1    2    0    0  0.75299527250E-02  0.22794533292E-01  0.54140977880E-02  0.10193209896E+01  0.10190238842E+01 0.  0.
     999903    2    3    3    0    0 -0.10863494515E+00 -0.60228850255E-01  0.21113438439E-01  0.12767440326E+00  0.20637593203E-01 0.  0.
         14    1    1    2    0    0 -0.75299527250E-02 -0.22794533292E-01 -0.54140977880E-02  0.24609010360E-01  0.00000000000E+00 0. -1.
     999901    1    3    3    0    0  0.11616489787E+00  0.83023383548E-01 -0.15699340651E-01  0.89164658638E+00  0.88000000000E+00 0.  1.
        -11    1    4    4    0    0 -0.69169820228E-01 -0.43607566121E-01  0.22557876354E-01  0.84824541024E-01  0.51100000000E-03 0.  1.
         11    1    4    4    0    0 -0.39465124921E-01 -0.16621284135E-01 -0.14444379156E-02  0.42849862231E-01  0.51100000000E-03 0. -1.
</event>
<event>
 8    1  0.1063984E+005  0.1043930E+01  0.7957747E-01            NaN
         13   -1    0    0    0    0  0.00000000000E+00  0.00000000000E+00  0.74505805969E-08  0.10566000000E+00  0.10566000000E+00 0. -1.
     999900   -1    0    0    0    0 -0.00000000000E+00 -0.00000000000E+00 -0.74505805969E-08  0.93827000000E+00  0.93827000000E+00 0. -1.
     999902    2    1    2    0    0 -0.24237005123E-01 -0.42473011341E-02 -0.21664066324E-03  0.10193227060E+01  0.10190256425E+01 0.  0.
     999903    2    3    3    0    0  0.10863277580E+00 -0.46025740128E-01  0.44022312923E-01  0.12727063261E+00  0.18449963600E-01 0.  0.
         14    1    1    2    0    0  0.24237005123E-01  0.42473011341E-02  0.21664066324E-03  0.24607293989E-01  0.00000000000E+00 0. -1.
     999901    1    3    3    0    0 -0.13286978092E+00  0.41778438994E-01 -0.44238953586E-01  0.89205207340E+00  0.88000000000E+00 0. -1.
        -11    1    4    4    0    0  0.97370390110E-01 -0.37777887471E-01  0.33178031013E-01  0.10958651612E+00  0.51100000000E-03 0.  1.
         11    1    4    4    0    0  0.11262385691E-01 -0.82478526571E-02  0.10844281910E-01  0.17684116491E-01  0.51100000000E-03 0. -1.
</event>
<event>
 8    1  0.1063984E+005  0.1043930E+01  0.7957747E-01            NaN
         13   -1    0    0    0    0  0.00000000000E+00  0.00000000000E+00  0.74505805969E-08  0.10566000000E+00  0.10566000000E+00 0. -1.
     999900   -1    0    0    0    0 -0.00000000000E+00 -0.00000000000E+00 -0.74505805969E-08  0.93827000000E+00  0.93827000000E+00 0.  1.
     999902    2    1    2    0    0 -0.12250816226E-01 -0.18183262925E-01 -0.90645179093E-02  0.10202049282E+01  0.10199290252E+01 0.  0.
     999903    2    3    3    0    0  0.12970906213E-02 -0.11043276875E-01  0.12752893060E+00  0.12953535118E+00  0.19802592173E-01 0.  0.
         14    1    1    2    0    0  0.12250816226E-01  0.18183262925E-01  0.90645179093E-02  0.23725071838E-01  0.00000000000E+00 0. -1.
     999901    1    3    3    0    0 -0.13547906847E-01 -0.71399860495E-02 -0.13659344851E+00  0.89066957698E+00  0.88000000000E+00 0.  1.
        -11    1    4    4    0    0 -0.41792736724E-03 -0.16690923854E-01  0.98772323930E-01  0.10017482068E+00  0.51100000000E-03 0.  1.
         11    1    4    4    0    0  0.17150179885E-02  0.56476469786E-02  0.28756606673E-01  0.29360530503E-01  0.51100000000E-03 0. -1.
</event>
<event>
 8    1  0.1063984E+005  0.1043930E+01  0.7957747E-01            NaN
         13   -1    0    0    0    0  0.00000000000E+00  0.00000000000E+00  0.74505805969E-08  0.10566000000E+00  0.10566000000E+00 0.  1.
     999900   -1    0    0    0    0 -0.00000000000E+00 -0.00000000000E+00 -0.74505805969E-08  0.93827000000E+00  0.93827000000E+00 0.  1.
     999902    2    1    2    0    0  0.23646090944E-01  0.83449588354E-03  0.43281236872E-02  0.10198765875E+01  0.10195929026E+01 0.  0.
     999903    2    3    3    0    0 -0.64204441028E-01  0.51282607437E-01  0.97634093851E-01  0.12916410186E+00  0.19970800043E-01 0.  0.
         14    1    1    2    0    0 -0.23646090944E-01 -0.83449588354E-03 -0.43281236872E-02  0.24053412543E-01  0.00000000000E+00 0. -1.
     999901    1    3    3    0    0  0.87850531972E-01 -0.50448111554E-01 -0.93305970163E-01  0.89071248560E+00  0.88000000000E+00 0.  1.
        -11    1    4    4    0    0 -0.18045162843E-01  0.53532896242E-02  0.28796849654E-01  0.34406471525E-01  0.51100000000E-03 0. -1.
         11    1    4    4    0    0 -0.46159278185E-01  0.45929317813E-01  0.68837244197E-01  0.94757630336E-01  0.51100000000E-03 0.  1.
</event>
<event>
 8    1  0.1063984E+005  0.1043930E+01  0.7957747E-01            NaN
         13   -1    0    0    0    0  0.00000000000E+00  0.00000000000E+00  0.74505805969E-08  0.10566000000E+00  0.10566000000E+00 0. -1.
     999900   -1    0    0    0    0 -0.00000000000E+00 -0.00000000000E+00 -0.74505805969E-08  0.93827000000E+00  0.93827000000E+00 0.  1.
     999902    2    1    2    0    0 -0.10744223195E-02  0.23186638647E-01 -0.48762027855E-02  0.10202118224E+01  0.10199360816E+01 0.  0.
     999903    2    3    3    0    0  0.24419619335E-01 -0.11410810625E+00  0.47375561845E-01  0.12767048440E+00  0.20936356097E-01 0.  0.
         14    1    1    2    0    0  0.10744223195E-02 -0.23186638647E-01  0.48762027855E-02  0.23718177600E-01  0.00000000000E+00 0. -1.
     999901    1    3    3    0    0 -0.25494041654E-01  0.13729474489E+00 -0.52251764631E-01  0.89254133800E+00  0.88000000000E+00 0.  1.
        -11    1    4    4    0    0  0.33513501621E-03 -0.32033355458E-01  0.57817324998E-02  0.32556684860E-01  0.51100000000E-03 0. -1.
         11    1    4    4    0    0  0.24084484318E-01 -0.82074750788E-01  0.41593829346E-01  0.95113799537E-01  0.51100000000E-03 0.  1.
</event>
<event>
 8    1  0.1063984E+005  0.1043930E+01  0.7957747E-01            NaN
         13   -1    0    0    0    0  0.00000000000E+00  0.00000000000E+00  0.74505805969E-08  0.10566000000E+00  0.10566000000E+00 0. -1.
     999900   -1    0    0    0    0 -0.00000000000E+00 -0.00000000000E+00 -0.74505805969E-08  0.93827000000E+00  0.93827000000E+00 0. -1.
     999902    2    1    2    0    0  0.11885617180E-01 -0.19958107025E-01 -0.84102471411E-02  0.10192252193E+01  0.10189257684E+01 0.  0.
     999903    2    3    3    0    0  0.10929512050E+00  0.71908523482E-02 -0.69578856536E-01  0.13132473159E+00  0.20194952981E-01 0.  0.
         14    1    1    2    0    0 -0.11885617180E-01  0.19958107025E-01  0.84102471411E-02  0.24704780686E-01  0.00000000000E+00 0. -1.
     999901    1    3    3    0    0 -0.97409503323E-01 -0.27148959374E-01  0.61168609395E-01  0.88790048773E+00  0.88000000000E+00 0.  1.
        -11    1    4    4    0    0  0.13170806471E-01  0.76683781198E-02 -0.97710481621E-02  0.18111009615E-01  0.51100000000E-03 0. -1.
         11    1    4    4    0    0  0.96124314032E-01 -0.47752577158E-03 -0.59807808374E-01  0.11321372197E+00  0.51100000000E-03 0.  1.
</event>
<event>
 8    1  0.1063984E+005  0.1043930E+01  0.7957747E-01            NaN
         13   -1    0    0    0    0  0.00000000000E+00  0.00000000000E+00  0.74505805969E-08  0.10566000000E+00  0.10566000000E+00 0.  1.
     999900   -1    0    0    0    0 -0.00000000000E+00 -0.00000000000E+00 -0.74505805969E-08  0.93827000000E+00  0.93827000000E+00 0.  1.
     999902    2    1    2    0    0 -0.54347589657E-02  0.83541825760E-02 -0.21267727970E-01  0.10204428711E+01  0.10201725383E+01 0.  0.
     999903    2    3    3    0    0 -0.11189590407E+00 -0.61969302854E-01  0.15786915650E-01  0.13046960484E+00  0.20302788933E-01 0.  0.
         14    1    1    2    0    0  0.54347589657E-02 -0.83541825760E-02  0.21267727970E-01  0.23487128912E-01  0.00000000000E+00 0.  1.
     999901    1    3    3    0    0  0.10646114510E+00  0.70323485430E-01 -0.37054643619E-01  0.88997326625E+00  0.88000000000E+00 0.  1.
        -11    1    4    4    0    0 -0.91877106043E-01 -0.43762525880E-01  0.69781074561E-02  0.10200743302E+00  0.51100000000E-03 0.  1.
         11    1    4    4    0    0 -0.20018798025E-01 -0.18206776974E-01  0.88088081937E-02  0.28462171824E-01  0.51100000000E-03 0. -1.
</event>
<event>
 8    1  0.1063984E+005  0.1043930E+01  0.7957747E-01            NaN
         13   -1    0    0    0    0  0.00000000000E+00  0.00000000000E+00  0.74505805969E-08  0.10566000000E+00  0.10566000000E+00 0.  1.
     999900   -1    0    0    0    0 -0.00000000000E+00 -0.00000000000E+00 -0.74505805969E-08  0.93827000000E+00  0.93827000000E+00 0.  1.
     999902    2    1    2    0    0 -0.15765923086E-01  0.11315204722E-01 -0.19588325079E-01  0.10163564498E+01  0.10159823485E+01 0.  0.
     999903    2    3    3    0    0  0.97815506365E-01 -0.74035863140E-01 -0.12566947430E-01  0.12493351675E+00  0.20031802816E-01 0.  0.
         14    1    1    2    0    0  0.15765923086E-01 -0.11315204722E-01  0.19588325079E-01  0.27573550153E-01  0.00000000000E+00 0.  1.
     999901    1    3    3    0    0 -0.11358142945E+00  0.85351067863E-01 -0.70213776491E-02  0.89142293309E+00  0.88000000000E+00 0. -1.
        -11    1    4    4    0    0  0.37809299696E-01 -0.17332283820E-01 -0.13854683515E-02  0.41618888134E-01  0.51100000000E-03 0.  1.
         11    1    4    4    0    0  0.60006206669E-01 -0.56703579320E-01 -0.11181479079E-01  0.83314628619E-01  0.51100000000E-03 0. -1.
</event>
<event>
 8    1  0.1063984E+005  0.1043930E+01  0.7957747E-01            NaN
         13   -1    0    0    0    0  0.00000000000E+00  0.00000000000E+00  0.74505805969E-08  0.10566000000E+00  0.10566000000E+00 0.  1.
     999900   -1    0    0    0    0 -0.00000000000E+00 -0.00000000000E+00 -0.74505805969E-08  0.93827000000E+00  0.93827000000E+00 0. -1.
     999902    2    1    2    0    0 -0.56726738369E-02  0.99327184094E-02  0.19768691618E-01  0.10210905759E+01  0.10208351115E+01 0.  0.
     999903    2    3    3    0    0  0.78227165013E-01  0.92440723310E-01  0.50530754071E-01  0.13272519034E+00  0.19945986361E-01 0.  0.
         14    1    1    2    0    0  0.56726738369E-02 -0.99327184094E-02 -0.19768691618E-01  0.22839424068E-01  0.00000000000E+00 0. -1.
     999901    1    3    3    0    0 -0.83899838850E-01 -0.82508004900E-01 -0.30762062453E-01  0.88836538559E+00  0.88000000000E+00 0. -1.
        -11    1    4    4    0    0  0.71783652983E-01  0.91183045549E-01  0.48965039218E-01  0.12595664658E+00  0.51100000000E-03 0. -1.
         11    1    4    4    0    0  0.64435120296E-02  0.12576777608E-02  0.15657148523E-02  0.67685437595E-02  0.51100000000E-03 0.  1.
</event>
<event>
 8    1  0.1063984E+005  0.1043930E+01  0.7957747E-01            NaN
         13   -1    0    0    0    0  0.00000000000E+00  0.00000000000E+00  0.74505805969E-08  0.10566000000E+00  0.10566000000E+00 0.  1.
     999900   -1    0    0    0    0 -0.00000000000E+00 -0.00000000000E+00 -0.74505805969E-08  0.93827000000E+00  0.93827000000E+00 0. -1.
     999902    2    1    2    0    0 -0.91425519167E-02  0.10046579114E-01  0.19852489074E-01  0.10198750352E+01  0.10195913133E+01 0.  0.
     999903    2    3    3    0    0 -0.74070206610E-01 -0.93382662444E-01 -0.45400347448E-01  0.12904893491E+00  0.19639727578E-01 0.  0.
         14    1    1    2    0    0  0.91425519167E-02 -0.10046579114E-01 -0.19852489074E-01  0.24054964766E-01  0.00000000000E+00 0. -1.
     999901    1    3    3    0    0  0.64927654693E-01  0.10342924156E+00  0.65252836523E-01  0.89082610033E+00  0.88000000000E+00 0.  1.
        -11    1    4    4    0    0 -0.39552906109E-01 -0.54560033504E-01 -0.15655045524E-01  0.69185050474E-01  0.51100000000E-03 0. -1.
         11    1    4    4    0    0 -0.34517300501E-01 -0.38822628940E-01 -0.29745301924E-01  0.59863884431E-01  0.51100000000E-03 0.  1.
</event>
<event>
 8    1  0.1063984E+005  0.1043930E+01  0.7957747E-01            NaN
         13   -1    0    0    0    0  0.00000000000E+00  0.00000000000E+00  0.74505805969E-08  0.10566000000E+00  0.10566000000E+00 0.  1.
     999900   -1    0    0    0    0 -0.00000000000E+00 -0.00000000000E+00 -0.74505805969E-08  0.93827000000E+00  0.93827000000E+00 0.  1.
     999902    2    1    2    0    0  0.54816143264E-02 -0.17430818827E-01  0.15730342911E-01  0.10198193130E+01  0.10195342593E+01 0.  0.
     999903    2    3    3    0    0 -0.88484076285E-01 -0.91840905030E-01 -0.14717749498E-01  0.13117230867E+00  0.26932857582E-01 0.  0.
         14    1    1    2    0    0 -0.54816143264E-02  0.17430818827E-01 -0.15730342911E-01  0.24110687023E-01  0.00000000000E+00 0.  1.
     999901    1    3    3    0    0  0.93965690611E-01  0.74410086203E-01  0.30448092410E-01  0.88864700431E+00  0.88000000000E+00 0.  1.
        -11    1    4    4    0    0 -0.78840023391E-02 -0.58982122933E-02 -0.87726170897E-02  0.13197209279E-01  0.51100000000E-03 0. -1.
         11    1    4    4    0    0 -0.80600073946E-01 -0.85942692737E-01 -0.59451324085E-02  0.11797509939E+00  0.51100000000E-03 0.  1.
</event>
<event>
 8    1  0.1063984E+005  0.1043930E+01  0.7957747E-01            NaN
         13   -1    0    0    0    0  0.00000000000E+00  0.00000000000E+00  0.74505805969E-08  0.10566000000E+00  0.10566000000E+00 0.  1.
     999900   -1    0    0    0    0 -0.00000000000E+00 -0.00000000000E+00 -0.74505805969E-08  0.93827000000E+00  0.93827000000E+00 0. -1.
     999902    2    1    2    0    0 -0.22539172308E-01 -0.32779305367E-02  0.20635544989E-02  0.10210604269E+01  0.10208042800E+01 0.  0.
     999903    2    3    3    0    0 -0.12427041875E+00  0.31447061743E-01 -0.33336835390E-01  0.13381285198E+00  0.19038909903E-01 0.  0.
         14    1    1    2    0    0  0.22539172308E-01  0.32779305367E-02 -0.20635544989E-02  0.22869573107E-01  0.00000000000E+00 0. -1.
     999901    1    3    3    0    0  0.10173124645E+00 -0.34724992280E-01  0.35400389889E-01  0.88724757492E+00  0.88000000000E+00 0.  1.
        -11    1    4    4    0    0 -0.47281958688E-01  0.19488263835E-01 -0.72859994801E-02  0.51659684031E-01  0.51100000000E-03 0. -1.
         11    1    4    4    0    0 -0.76988460066E-01  0.11958797908E-01 -0.26050835910E-01  0.82153167945E-01  0.51100000000E-03 0.  1.
</event>
<event>
 8    1  0.1063984E+005  0.1043930E+01  0.7957747E-01            NaN
         13   -1    0    0    0    0  0.00000000000E+00  0.00000000000E+00  0.74505805969E-08  0.10566000000E+00  0.10566000000E+00 0.  1.
     999900   -1    0    0    0    0 -0.00000000000E+00 -0.00000000000E+00 -0.74505805969E-08  0.93827000000E+00  0.93827000000E+00 0.  1.
     999902    2    1    2    0    0 -0.10916622139E-01 -0.62078565796E-02  0.19830369979E-01  0.10204575971E+01  0.10201876072E+01 0.  0.
     999903    2    3    3    0    0 -0.54549223147E-01 -0.11851838585E+00  0.12096010672E-01  0.13221366715E+00  0.17661109179E-01 0.  0.
         14    1    1    2    0    0  0.10916622139E-01  0.62078565796E-02 -0.19830369979E-01  0.23472402854E-01  0.00000000000E+00 0. -1.
     999901    1    3    3    0    0  0.43632601009E-01  0.11231052927E+00  0.77343593075E-02  0.88824392999E+00  0.88000000000E+00 0. -1.
        -11    1    4    4    0    0 -0.37576309391E-01 -0.61097965717E-01  0.47682794095E-02  0.71888372159E-01  0.51100000000E-03 0. -1.
         11    1    4    4    0    0 -0.16972913757E-01 -0.57420420133E-01  0.73277312624E-02  0.60325294994E-01  0.51100000000E-03 0.  1.
</event>
<event>
 8    1  0.1063984E+005  0.1043930E+01  0.7957747E-01            NaN
         13   -1    0    0    0    0  0.00000000000E+00  0.00000000000E+00  0.74505805969E-08  0.10566000000E+00  0.10566000000E+00 0.  1.
     999900   -1    0    0    0    0 -0.00000000000E+00 -0.00000000000E+00 -0.74505805969E-08  0.93827000000E+00  0.93827000000E+00 0. -1.
     999902    2    1    2    0    0  0.92640848787E-02 -0.20359268654E-01 -0.60247614903E-02  0.10207649220E+01  0.10205020358E+01 0.  0.
     999903    2    3    3    0    0 -0.39921431742E-02  0.12259570655E+00  0.31902846694E-01  0.12832424833E+00  0.20091704989E-01 0.  0.
         14    1    1    2    0    0 -0.92640848787E-02  0.20359268654E-01  0.60247614903E-02  0.23165078022E-01  0.00000000000E+00 0.  1.
     999901    1    3    3    0    0  0.13256228053E-01 -0.14295497521E+00 -0.37927608184E-01  0.89244067365E+00  0.88000000000E+00 0.  1.
        -11    1    4    4    0    0  0.66821088762E-02  0.63688499294E-01  0.21538154660E-01  0.67564996473E-01  0.51100000000E-03 0. -1.
         11    1    4    4    0    0 -0.10674252050E-01  0.58907207261E-01  0.10364692034E-01  0.60759251856E-01  0.51100000000E-03 0.  1.
</event>
<event>
 8    1  0.1063984E+005  0.1043930E+01  0.7957747E-01            NaN
         13   -1    0    0    0    0  0.00000000000E+00  0.00000000000E+00  0.74505805969E-08  0.10566000000E+00  0.10566000000E+00 0.  1.
     999900   -1    0    0    0    0 -0.00000000000E+00 -0.00000000000E+00 -0.74505805969E-08  0.93827000000E+00  0.93827000000E+00 0. -1.
     999902    2    1    2    0    0 -0.17732279342E-01  0.10298934314E-01  0.10839553074E-01  0.10207352228E+01  0.10204716544E+01 0.  0.
     999903    2    3    3    0    0 -0.12359723976E-01  0.90089344200E-01  0.95559811040E-01  0.13305684863E+00  0.17423970995E-01 0.  0.
         14    1    1    2    0    0  0.17732279342E-01 -0.10298934314E-01 -0.10839553074E-01  0.23194777203E-01  0.00000000000E+00 0. -1.
     999901    1    3    3    0    0 -0.53725553663E-02 -0.79790409886E-01 -0.84720257965E-01  0.88767837417E+00  0.88000000000E+00 0. -1.
        -11    1    4    4    0    0 -0.37877967928E-02  0.14059709746E-01  0.25211287002E-01  0.29118601546E-01  0.51100000000E-03 0.  1.
         11    1    4    4    0    0 -0.85719271829E-02  0.76029634454E-01  0.70348524037E-01  0.10393824708E+00  0.51100000000E-03 0. -1.
</event>
<event>
 8    1  0.1063984E+005  0.1043930E+01  0.7957747E-01            NaN
         13   -1    0    0    0    0  0.00000000000E+00  0.00000000000E+00  0.74505805969E-08  0.10566000000E+00  0.10566000000E+00 0.  1.
     999900   -1    0    0    0    0 -0.00000000000E+00 -0.00000000000E+00 -0.74505805969E-08  0.93827000000E+00  0.93827000000E+00 0. -1.
     999902    2    1    2    0    0  0.20025513155E-01 -0.62880880238E-02  0.11607914597E-01  0.10199444854E+01  0.10196624189E+01 0.  0.
     999903    2    3    3    0    0 -0.32572693415E-02  0.81819383760E-01 -0.97007784841E-01  0.12859585290E+00  0.20527096732E-01 0.  0.
         14    1    1    2    0    0 -0.20025513155E-01  0.62880880238E-02 -0.11607914597E-01  0.23985514574E-01  0.00000000000E+00 0. -1.
     999901    1    3    3    0    0  0.23282782496E-01 -0.88107471784E-01  0.10861569944E+00  0.89134863253E+00  0.88000000000E+00 0.  1.
        -11    1    4    4    0    0  0.60781501181E-03  0.54602141781E-01 -0.49492885036E-01  0.73699186674E-01  0.51100000000E-03 0.  1.
         11    1    4    4    0    0 -0.38650843533E-02  0.27217241978E-01 -0.47514899805E-01  0.54896666224E-01  0.51100000000E-03 0. -1.
</event>
<event>
 8    1  0.1063984E+005  0.1043930E+01  0.7957747E-01            NaN
         13   -1    0    0    0    0  0.00000000000E+00  0.00000000000E+00  0.74505805969E-08  0.10566000000E+00  0.10566000000E+00 0.  1.
     999900   -1    0    0    0    0 -0.00000000000E+00 -0.00000000000E+00 -0.74505805969E-08  0.93827000000E+00  0.93827000000E+00 0.  1.
     999902    2    1    2    0    0  0.12794851568E-01 -0.19933751172E-01  0.19199693955E-02  0.10201655529E+01  0.10198887226E+01 0.  0.
     999903    2    3    3    0    0 -0.10354314226E-01  0.10836260629E+00 -0.64436284852E-01  0.12808988814E+00  0.20132520289E-01 0.  0.
         14    1    1    2    0    0 -0.12794851568E-01  0.19933751172E-01 -0.19199693955E-02  0.23764447078E-01  0.00000000000E+00 0.  1.
     999901    1    3    3    0    0  0.23149165793E-01 -0.12829635746E+00  0.66356254247E-01  0.89207566478E+00  0.88000000000E+00 0. -1.
        -11    1    4    4    0    0  0.56552056959E-02  0.33142664736E-01 -0.22908724574E-01  0.40687692978E-01  0.51100000000E-03 0. -1.
         11    1    4    4    0    0 -0.16009519921E-01  0.75219941556E-01 -0.41527560278E-01  0.87402195164E-01  0.51100000000E-03 0.  1.
</event>
<event>
 8    1  0.1063984E+005  0.1043930E+01  0.7957747E-01            NaN
         13   -1    0    0    0    0  0.00000000000E+00  0.00000000000E+00  0.74505805969E-08  0.10566000000E+00  0.10566000000E+00 0.  1.
     999900   -1    0    0    0    0 -0.00000000000E+00 -0.00000000000E+00 -0.74505805969E-08  0.93827000000E+00  0.93827000000E+00 0. -1.
     999902    2    1    2    0    0  0.63119393946E-02  0.23068439368E-01 -0.69645856488E-02  0.10190201841E+01  0.10187156800E+01 0.  0.
     999903    2    3    3    0    0 -0.45475199987E-01 -0.25454588142E-01  0.11505955134E+00  0.12777034148E+00  0.19251751509E-01 0.  0.
         14    1    1    2    0    0 -0.63119393946E-02 -0.23068439368E-01  0.69645856488E-02  0.24909815878E-01  0.00000000000E+00 0.  1.
     999901    1    3    3    0    0  0.51787139381E-01  0.48523027510E-01 -0.12202413699E+00  0.89124984264E+00  0.88000000000E+00 0. -1.
        -11    1    4    4    0    0 -0.97098258946E-02 -0.87661870765E-02  0.49896702729E-01  0.51585548548E-01  0.51100000000E-03 0.  1.
         11    1    4    4    0    0 -0.35765374092E-01 -0.16688401066E-01  0.65162848610E-01  0.76184792931E-01  0.51100000000E-03 0. -1.
</event>
<event>
 8    1  0.1063984E+005  0.1043930E+01  0.7957747E-01            NaN
         13   -1    0    0    0    0  0.00000000000E+00  0.00000000000E+00  0.74505805969E-08  0.10566000000E+00  0.10566000000E+00 0.  1.
     999900   -1    0    0    0    0 -0.00000000000E+00 -0.00000000000E+00 -0.74505805969E-08  0.93827000000E+00  0.93827000000E+00 0.  1.
     999902    2    1    2    0    0 -0.12031821161E-01  0.97413459458E-02 -0.43646603708E-02  0.10278455727E+01  0.10277197150E+01 0.  0.
     999903    2    3    3    0    0 -0.64076755491E-01  0.12004207994E+00 -0.22248554626E-01  0.13925412508E+00  0.19513626539E-01 0.  0.
         14    1    1    2    0    0  0.12031821161E-01 -0.97413459458E-02  0.43646603708E-02  0.16084427296E-01  0.00000000000E+00 0. -1.
     999901    1    3    3    0    0  0.52044934330E-01 -0.11030073399E+00  0.17883894255E-01  0.88859144762E+00  0.88000000000E+00 0. -1.
        -11    1    4    4    0    0 -0.79079106449E-02  0.28764936589E-01 -0.21856086962E-03  0.29837317533E-01  0.51100000000E-03 0. -1.
         11    1    4    4    0    0 -0.56168844846E-01  0.91277143346E-01 -0.22029993757E-01  0.10941680755E+00  0.51100000000E-03 0.  1.
</event>
<event>
 8    1  0.1063984E+005  0.1043930E+01  0.7957747E-01            NaN
         13   -1    0    0    0    0  0.00000000000E+00  0.00000000000E+00  0.74505805969E-08  0.10566000000E+00  0.10566000000E+00 0.  1.
     999900   -1    0    0    0    0 -0.00000000000E+00 -0.00000000000E+00 -0.74505805969E-08  0.93827000000E+00  0.93827000000E+00 0.  1.
     999902    2    1    2    0    0 -0.54851719574E-02 -0.84311038209E-02 -0.30935917547E-01  0.10113999890E+01  0.10108767166E+01 0.  0.
     999903    2    3    3    0    0  0.42775813967E-01  0.16342243541E-01  0.10780215803E+00  0.11888046811E+00  0.20357338649E-01 0.  0.
         14    1    1    2    0    0  0.54851719574E-02  0.84311038209E-02  0.30935917547E-01  0.32530011029E-01  0.00000000000E+00 0.  1.
     999901    1    3    3    0    0 -0.48260985924E-01 -0.24773347362E-01 -0.13873807558E+00  0.89251952086E+00  0.88000000000E+00 0.  1.
        -11    1    4    4    0    0  0.44559899759E-01  0.16309465334E-01  0.97764446506E-01  0.10867258830E+00  0.51100000000E-03 0.  1.
         11    1    4    4    0    0 -0.17840857921E-02  0.32778207069E-04  0.10037711527E-01  0.10207879811E-01  0.51100000000E-03 0. -1.
</event>
<event>
 8    1  0.1063984E+005  0.1043930E+01  0.7957747E-01            NaN
         13   -1    0    0    0    0  0.00000000000E+00  0.00000000000E+00  0.74505805969E-08  0.10566000000E+00  0.10566000000E+00 0.  1.
     999900   -1    0    0    0    0 -0.00000000000E+00 -0.00000000000E+00 -0.74505805969E-08  0.93827000000E+00  0.93827000000E+00 0.  1.
     999902    2    1    2    0    0  0.16185018064E-01 -0.27878447324E-02 -0.17685371957E-01  0.10197949784E+01  0.10195093421E+01 0.  0.
     999903    2    3    3    0    0 -0.45990037775E-01  0.52354553834E-01  0.10475331204E+00  0.12743986238E+00  0.20287416273E-01 0.  0.
         14    1    1    2    0    0 -0.16185018064E-01  0.27878447324E-02  0.17685371957E-01  0.24135021633E-01  0.00000000000E+00 0.  1.
     999901    1    3    3    0    0  0.62175055839E-01 -0.55142398566E-01 -0.12243868399E+00  0.89235511599E+00  0.88000000000E+00 0.  1.
        -11    1    4    4    0    0 -0.32554546646E-01  0.22849669536E-01  0.64118585405E-01  0.75454357201E-01  0.51100000000E-03 0.  1.
         11    1    4    4    0    0 -0.13435491129E-01  0.29504884297E-01  0.40634726633E-01  0.51985505180E-01  0.51100000000E-03 0. -1.
</event>
<event>
 8    1  0.1063984E+005  0.1043930E+01  0.7957747E-01            NaN
         13   -1    0    0    0    0  0.00000000000E+00  0.00000000000E+00  0.74505805969E-08  0.10566000000E+00  0.10566000000E+00 0. -1.
     999900   -1    0    0    0    0 -0.00000000000E+00 -0.00000000000E+00 -0.74505805969E-08  0.93827000000E+00  0.93827000000E+00 0.  1.
     999902    2    1    2    0    0  0.23545765725E-01  0.46003403972E-02  0.82828787362E-02  0.10185494504E+01  0.10182331809E+01 0.  0.
     999903    2    3    3    0    0  0.44922697536E-01  0.46797233252E-01 -0.10977145674E+00  0.12940695506E+00  0.22098812389E-01 0.  0.
         14    1    1    2    0    0 -0.23545765725E-01 -0.46003403972E-02 -0.82828787362E-02  0.25380549551E-01  0.00000000000E+00 0. -1.
     999901    1    3    3    0    0 -0.21376931810E-01 -0.42196892855E-01  0.11805433548E+00  0.88914249539E+00  0.88000000000E+00 0. -1.
        -11    1    4    4    0    0  0.22071584843E-01  0.36217832430E-01 -0.78766098863E-01  0.89460861244E-01  0.51100000000E-03 0. -1.
         11    1    4    4    0    0  0.22851112693E-01  0.10579400822E-01 -0.31005357878E-01  0.39946093816E-01  0.51100000000E-03 0.  1.
</event>
<event>
 8    1  0.1063984E+005  0.1043930E+01  0.7957747E-01            NaN
         13   -1    0    0    0    0  0.00000000000E+00  0.00000000000E+00  0.74505805969E-08  0.10566000000E+00  0.10566000000E+00 0.  1.
     999900   -1    0    0    0    0 -0.00000000000E+00 -0.00000000000E+00 -0.74505805969E-08  0.93827000000E+00  0.93827000000E+00 0.  1.
     999902    2    1    2    0    0  0.21937378785E-01  0.76110722531E-02  0.21275535826E-02  0.10206125496E+01  0.10203461535E+01 0.  0.
     999903    2    3    3    0    0 -0.79417160386E-01 -0.83710810516E-01 -0.51989616687E-01  0.12845723969E+00  0.21994477147E-01 0.  0.
         14    1    1    2    0    0 -0.21937378785E-01 -0.76110722531E-02 -0.21275535826E-02  0.23317450398E-01  0.00000000000E+00 0.  1.
     999901    1    3    3    0    0  0.10135453917E+00  0.91321882769E-01  0.54117170270E-01  0.89215530991E+00  0.88000000000E+00 0. -1.
        -11    1    4    4    0    0 -0.74287471092E-01 -0.84041093584E-01 -0.48391130302E-01  0.12216176319E+00  0.51100000000E-03 0.  1.
         11    1    4    4    0    0 -0.51296892940E-02  0.33028306805E-03 -0.35984863858E-02  0.62954765052E-02  0.51100000000E-03 0. -1.
</event>
<event>
 8    1  0.1063984E+005  0.1043930E+01  0.7957747E-01            NaN
         13   -1    0    0    0    0  0.00000000000E+00  0.00000000000E+00  0.74505805969E-08  0.10566000000E+00  0.10566000000E+00 0. -1.
     999900   -1    0    0    0    0 -0.00000000000E+00 -0.00000000000E+00 -0.74505805969E-08  0.93827000000E+00  0.93827000000E+00 0.  1.
     999902    2    1    2    0    0  0.87828934600E-02 -0.17387233985E-01  0.10848553774E-01  0.10216332235E+01  0.10213898850E+01 0.  0.
     999903    2    3    3    0    0 -0.14878830921E-01  0.11174025646E+00  0.62413303211E-01  0.13040221564E+00  0.20051256902E-01 0.  0.
         14    1    1    2    0    0 -0.87828934600E-02  0.17387233985E-01 -0.10848553774E-01  0.22296776498E-01  0.00000000000E+00 0.  1.
     999901    1    3    3    0    0  0.23661724381E-01 -0.12912749044E+00 -0.51564749437E-01  0.89123100786E+00  0.88000000000E+00 0.  1.
        -11    1    4    4    0    0 -0.82966015505E-02  0.66447545059E-01  0.48083164050E-01  0.82440048688E-01  0.51100000000E-03 0.  1.
         11    1    4    4    0    0 -0.65822293709E-02  0.45292711400E-01  0.14330139161E-01  0.47962166953E-01  0.51100000000E-03 0. -1.
</event>
<event>
 8    1  0.1063984E+005  0.1043930E+01  0.7957747E-01            NaN
         13   -1    0    0    0    0  0.00000000000E+00  0.00000000000E+00  0.74505805969E-08  0.10566000000E+00  0.10566000000E+00 0. -1.
     999900   -1    0    0    0    0 -0.00000000000E+00 -0.00000000000E+00 -0.74505805969E-08  0.93827000000E+00  0.93827000000E+00 0. -1.
     999902    2    1    2    0    0  0.42458196665E-02  0.18876897856E-01  0.27090833905E-02  0.10243927691E+01  0.10242064450E+01 0.  0.
     999903    2    3    3    0    0 -0.15676806111E-01 -0.35011894932E-01  0.12656320273E+00  0.13386441142E+00  0.20732614955E-01 0.  0.
         14    1    1    2    0    0 -0.42458196665E-02 -0.18876897856E-01 -0.27090833905E-02  0.19537230871E-01  0.00000000000E+00 0.  1.
     999901    1    3    3    0    0  0.19922625778E-01  0.53888792788E-01 -0.12385411934E+00  0.89052835771E+00  0.88000000000E+00 0. -1.
        -11    1    4    4    0    0 -0.59589658439E-02  0.11712370185E-02  0.15750775981E-01  0.16888728048E-01  0.51100000000E-03 0. -1.
         11    1    4    4    0    0 -0.97178402671E-02 -0.36183131951E-01  0.11081242675E+00  0.11697568337E+00  0.51100000000E-03 0.  1.
</event>
<event>
 8    1  0.1063984E+005  0.1043930E+01  0.7957747E-01            NaN
         13   -1    0    0    0    0  0.00000000000E+00  0.00000000000E+00  0.74505805969E-08  0.10566000000E+00  0.10566000000E+00 0.  1.
     999900   -1    0    0    0    0 -0.00000000000E+00 -0.00000000000E+00 -0.74505805969E-08  0.93827000000E+00  0.93827000000E+00 0. -1.
     999902    2    1    2    0    0 -0.22381773858E-01 -0.46117134667E-02  0.11825229146E-01  0.10181997115E+01  0.10178745526E+01 0.  0.
     999903    2    3    3    0    0  0.50431329234E-01 -0.75784860996E-01 -0.86411221034E-01  0.12689854744E+00  0.18699681719E-01 0.  0.
         14    1    1    2    0    0  0.22381773858E-01  0.46117134667E-02 -0.11825229146E-01  0.25730288504E-01  0.00000000000E+00 0. -1.
     999901    1    3    3    0    0 -0.72813103093E-01  0.71173147529E-01  0.98236450179E-01  0.89130116406E+00  0.88000000000E+00 0.  1.
        -11    1    4    4    0    0  0.25028672630E-01 -0.44467779777E-01 -0.36545729978E-01  0.62766785743E-01  0.51100000000E-03 0.  1.
         11    1    4    4    0    0  0.25402656605E-01 -0.31317081219E-01 -0.49865491055E-01  0.64131761693E-01  0.51100000000E-03 0. -1.
</event>
<event>
 8    1  0.1063984E+005  0.1043930E+01  0.7957747E-01            NaN
         13   -1    0    0    0    0  0.00000000000E+00  0.00000000000E+00  0.74505805969E-08  0.10566000000E+00  0.10566000000E+00 0. -1.
     999900   -1    0    0    0    0 -0.00000000000E+00 -0.00000000000E+00 -0.74505805969E-08  0.93827000000E+00  0.93827000000E+00 0.  1.
     999902    2    1    2    0    0  0.60734131317E-02 -0.14869433599E-01  0.17368773915E-01  0.10202728508E+01  0.10199985438E+01 0.  0.
     999903    2    3    3    0    0  0.25705446914E-01 -0.12359939292E+00  0.37611261515E-01  0.13313285104E+00  0.19291684804E-01 0.  0.
         14    1    1    2    0    0 -0.60734131317E-02  0.14869433599E-01 -0.17368773915E-01  0.23657149236E-01  0.00000000000E+00 0.  1.
     999901    1    3    3    0    0 -0.19632033782E-01  0.10872995932E+00 -0.20242487600E-01  0.88713999972E+00  0.88000000000E+00 0. -1.
        -11    1    4    4    0    0  0.26285849774E-01 -0.11060617746E+00  0.38642865218E-01  0.12007582831E+00  0.51100000000E-03 0. -1.
         11    1    4    4    0    0 -0.58040285961E-03 -0.12993215462E-01 -0.10316037028E-02  0.13057022736E-01  0.51100000000E-03 0.  1.
</event>
<event>
 8    1  0.1063984E+005  0.1043930E+01  0.7957747E-01            NaN
         13   -1    0    0    0    0  0.00000000000E+00  0.00000000000E+00  0.74505805969E-08  0.10566000000E+00  0.10566000000E+00 0. -1.
     999900   -1    0    0    0    0 -0.00000000000E+00 -0.00000000000E+00 -0.74505805969E-08  0.93827000000E+00  0.93827000000E+00 0. -1.
     999902    2    1    2    0    0  0.43001050511E-02  0.16560265239E-01  0.20125629864E-01  0.10175145828E+01  0.10171716433E+01 0.  0.
     999903    2    3    3    0    0  0.63364981253E-01 -0.10766047931E+00  0.78459666061E-02  0.12674511593E+00  0.19921485078E-01 0.  0.
         14    1    1    2    0    0 -0.43001050511E-02 -0.16560265239E-01 -0.20125629864E-01  0.26415417197E-01  0.00000000000E+00 0.  1.
     999901    1    3    3    0    0 -0.59064876201E-01  0.12422074455E+00  0.12279663258E-01  0.89076946687E+00  0.88000000000E+00 0. -1.
        -11    1    4    4    0    0  0.40320189212E-01 -0.63370164081E-01  0.14106001236E-01  0.76424706382E-01  0.51100000000E-03 0.  1.
         11    1    4    4    0    0  0.23044792041E-01 -0.44290315225E-01 -0.62600346302E-02  0.50320409553E-01  0.51100000000E-03 0. -1.
</event>
<event>
 8    1  0.1063984E+005  0.1043930E+01  0.7957747E-01            NaN
         13   -1    0    0    0    0  0.00000000000E+00  0.00000000000E+00  0.74505805969E-08  0.10566000000E+00  0.10566000000E+00 0.  1.
     999900   -1    0    0    0    0 -0.00000000000E+00 -0.00000000000E+00 -0.74505805969E-08  0.93827000000E+00  0.93827000000E+00 0.  1.
     999902    2    1    2    0    0  0.69888666098E-02  0.14915101080E-01 -0.21211476636E-01  0.10170742513E+01  0.10167196277E+01 0.  0.
     999903    2    3    3    0    0  0.14877862228E-01  0.39760681083E-01  0.11694770876E+00  0.12591349162E+00  0.19369518381E-01 0.  0.
         14    1    1    2    0    0 -0.69888666098E-02 -0.14915101080E-01  0.21211476636E-01  0.26855748692E-01  0.00000000000E+00 0.  1.
     999901    1    3    3    0    0 -0.78889956180E-02 -0.24845580004E-01 -0.13815918540E+00  0.89116075969E+00  0.88000000000E+00 0.  1.
        -11    1    4    4    0    0  0.18858324566E-01  0.35108801179E-01  0.92807354965E-01  0.10100361668E+00  0.51100000000E-03 0. -1.
         11    1    4    4    0    0 -0.39804623383E-02  0.46518799044E-02  0.24140353799E-01  0.24909874941E-01  0.51100000000E-03 0.  1.
</event>
<event>
 8    1  0.1063984E+005  0.1043930E+01  0.7957747E-01            NaN
         13   -1    0    0    0    0  0.00000000000E+00  0.00000000000E+00  0.74505805969E-08  0.10566000000E+00  0.10566000000E+00 0. -1.
     999900   -1    0    0    0    0 -0.00000000000E+00 -0.00000000000E+00 -0.74505805969E-08  0.93827000000E+00  0.93827000000E+00 0.  1.
     999902    2    1    2    0    0  0.15836318107E-01  0.86001304329E-02  0.14456262972E-01  0.10208272999E+01  0.10205658437E+01 0.  0.
     999903    2    3    3    0    0  0.77710164593E-01 -0.85879729546E-01 -0.58443811646E-01  0.13061988712E+00  0.15220977733E-01 0.  0.
         14    1    1    2    0    0 -0.15836318107E-01 -0.86001304329E-02 -0.14456262972E-01  0.23102700140E-01  0.00000000000E+00 0.  1.
     999901    1    3    3    0    0 -0.61873846486E-01  0.94479859979E-01  0.72900074618E-01  0.89020741274E+00  0.88000000000E+00 0. -1.
        -11    1    4    4    0    0  0.25546266175E-01 -0.30001825753E-01 -0.27973661895E-01  0.48327095349E-01  0.51100000000E-03 0. -1.
         11    1    4    4    0    0  0.52163898418E-01 -0.55877903792E-01 -0.30470149751E-01  0.82292791770E-01  0.51100000000E-03 0.  1.
</event>
<event>
 8    1  0.1063984E+005  0.1043930E+01  0.7957747E-01            NaN
         13   -1    0    0    0    0  0.00000000000E+00  0.00000000000E+00  0.74505805969E-08  0.10566000000E+00  0.10566000000E+00 0.  1.
     999900   -1    0    0    0    0 -0.00000000000E+00 -0.00000000000E+00 -0.74505805969E-08  0.93827000000E+00  0.93827000000E+00 0.  1.
     999902    2    1    2    0    0 -0.12874870672E-01 -0.19164468454E-01 -0.36703080068E-02  0.10205524401E+01  0.10202846528E+01 0.  0.
     999903    2    3    3    0    0 -0.22656772950E-01 -0.86635761566E-02  0.12718185708E+00  0.13076131660E+00  0.18300552943E-01 0.  0.
         14    1    1    2    0    0  0.12874870672E-01  0.19164468454E-01  0.36703080068E-02  0.23377559899E-01  0.00000000000E+00 0. -1.
     999901    1    3    3    0    0  0.97819022784E-02 -0.10500892298E-01 -0.13085216508E+00  0.88979112350E+00  0.88000000000E+00 0.  1.
        -11    1    4    4    0    0 -0.18269510388E-02 -0.53029621024E-02  0.61830001929E-01  0.62085984060E-01  0.51100000000E-03 0. -1.
         11    1    4    4    0    0 -0.20829821911E-01 -0.33606140542E-02  0.65351855146E-01  0.68675332542E-01  0.51100000000E-03 0.  1.
</event>
<event>
 8    1  0.1063984E+005  0.1043930E+01  0.7957747E-01            NaN
         13   -1    0    0    0    0  0.00000000000E+00  0.00000000000E+00  0.74505805969E-08  0.10566000000E+00  0.10566000000E+00 0. -1.
     999900   -1    0    0    0    0 -0.00000000000E+00 -0.00000000000E+00 -0.74505805969E-08  0.93827000000E+00  0.93827000000E+00 0. -1.
     999902    2    1    2    0    0 -0.17198540184E-01 -0.90393928835E-02  0.13282306228E-01  0.10203944935E+01  0.10201230329E+01 0.  0.
     999903    2    3    3    0    0 -0.15316594775E-01 -0.12017769663E+00 -0.47252751121E-01  0.13133895110E+00  0.18434227549E-01 0.  0.
         14    1    1    2    0    0  0.17198540184E-01  0.90393928835E-02 -0.13282306228E-01  0.23535506514E-01  0.00000000000E+00 0.  1.
     999901    1    3    3    0    0 -0.18819454089E-02  0.11113830374E+00  0.60535057348E-01  0.88905554239E+00  0.88000000000E+00 0. -1.
        -11    1    4    4    0    0 -0.88478346544E-02 -0.60893641290E-01 -0.33782320611E-01  0.70198476012E-01  0.51100000000E-03 0. -1.
         11    1    4    4    0    0 -0.64687601208E-02 -0.59284055338E-01 -0.13470430510E-01  0.61140475088E-01  0.51100000000E-03 0.  1.
</event>
<event>
 8    1  0.1063984E+005  0.1043930E+01  0.7957747E-01            NaN
         13   -1    0    0    0    0  0.00000000000E+00  0.00000000000E+00  0.74505805969E-08  0.10566000000E+00  0.10566000000E+00 0. -1.
     999900   -1    0    0    0    0 -0.00000000000E+00 -0.00000000000E+00 -0.74505805969E-08  0.93827000000E+00  0.93827000000E+00 0. -1.
     999902    2    1    2    0    0  0.14619208981E-02  0.25403512360E-01 -0.15023027122E-01  0.10143806007E+01  0.10139501152E+01 0.  0.
     999903    2    3    3    0    0  0.78746745933E-02 -0.89266684373E-01  0.79960129552E-01  0.12184926936E+00  0.20568682207E-01 0.  0.
         14    1    1    2    0    0 -0.14619208981E-02 -0.25403512360E-01  0.15023027122E-01  0.29549399264E-01  0.00000000000E+00 0.  1.
     999901    1    3    3    0    0 -0.64127536952E-02  0.11467019673E+00 -0.94983156674E-01  0.89253133137E+00  0.88000000000E+00 0. -1.
        -11    1    4    4    0    0  0.57963515730E-02 -0.74036487461E-01  0.75342756602E-01  0.10579126269E+00  0.51100000000E-03 0. -1.
         11    1    4    4    0    0  0.20783230203E-02 -0.15230196911E-01  0.46173729501E-02  0.16058006679E-01  0.51100000000E-03 0.  1.
</event>
<event>
 8    1  0.1063984E+005  0.1043930E+01  0.7957747E-01            NaN
         13   -1    0    0    0    0  0.00000000000E+00  0.00000000000E+00  0.74505805969E-08  0.10566000000E+00  0.10566000000E+00 0.  1.
     999900   -1    0    0    0    0 -0.00000000000E+00 -0.00000000000E+00 -0.74505805969E-08  0.93827000000E+00  0.93827000000E+00 0.  1.
     999902    2    1    2    0    0  0.18415975387E-01  0.68710838578E-02 -0.13845438495E-01  0.10198872025E+01  0.10196037710E+01 0.  0.
     999903    2    3    3    0    0 -0.90132502120E-02 -0.33493617183E-01  0.12180479413E+00  0.12815705439E+00  0.19615342074E-01 0.  0.
         14    1    1    2    0    0 -0.18415975387E-01 -0.68710838578E-02  0.13845438495E-01  0.24042797465E-01  0.00000000000E+00 0.  1.
     999901    1    3    3    0    0  0.27429225599E-01  0.40364701041E-01 -0.13565023262E+00  0.89173014815E+00  0.88000000000E+00 0.  1.
        -11    1    4    4    0    0  0.34596199173E-03 -0.26271401658E-01  0.64584278534E-01  0.69725866001E-01  0.51100000000E-03 0.  1.
         11    1    4    4    0    0 -0.93592122037E-02 -0.72222155252E-02  0.57220515595E-01  0.58431188385E-01  0.51100000000E-03 0. -1.
</event>
<event>
 8    1  0.1063984E+005  0.1043930E+01  0.7957747E-01            NaN
         13   -1    0    0    0    0  0.00000000000E+00  0.00000000000E+00  0.74505805969E-08  0.10566000000E+00  0.10566000000E+00 0.  1.
     999900   -1    0    0    0    0 -0.00000000000E+00 -0.00000000000E+00 -0.74505805969E-08  0.93827000000E+00  0.93827000000E+00 0.  1.
     999902    2    1    2    0    0  0.76529673312E-02 -0.22303901529E-02 -0.21782997228E-01  0.10207342780E+01  0.10204706879E+01 0.  0.
     999903    2    3    3    0    0  0.42884679646E-01 -0.99698913688E-01  0.68692630898E-01  0.13004509211E+00  0.20348938654E-01 0.  0.
         14    1    1    2    0    0 -0.76529673312E-02  0.22303901529E-02  0.21782997228E-01  0.23195721964E-01  0.00000000000E+00 0.  1.
     999901    1    3    3    0    0 -0.35231712315E-01  0.97468523535E-01 -0.90475628126E-01  0.89068918592E+00  0.88000000000E+00 0. -1.
        -11    1    4    4    0    0  0.11133824027E-01 -0.38705069098E-01  0.15697919943E-01  0.43228812416E-01  0.51100000000E-03 0.  1.
         11    1    4    4    0    0  0.31750855619E-01 -0.60993844590E-01  0.52994710955E-01  0.86816279698E-01  0.51100000000E-03 0. -1.
</event>
<event>
 8    1  0.1063984E+005  0.1043930E+01  0.7957747E-01            NaN
         13   -1    0    0    0    0  0.00000000000E+00  0.00000000000E+00  0.74505805969E-08  0.10566000000E+00  0.10566000000E+00 0.  1.
     999900   -1    0    0    0    0 -0.00000000000E+00 -0.00000000000E+00 -0.74505805969E-08  0.93827000000E+00  0.93827000000E+00 0. -1.
     999902    2    1    2    0    0 -0.11391846986E-01  0.19932355781E-01  0.21192430294E-03  0.10209709517E+01  0.10207127737E+01 0.  0.
     999903    2    3    3    0    0  0.55897011404E-01 -0.39361620919E-01 -0.10840160717E+00  0.12976925440E+00  0.20379839678E-01 0.  0.
         14    1    1    2    0    0  0.11391846986E-01 -0.19932355781E-01 -0.21192430294E-03  0.22959048252E-01  0.00000000000E+00 0.  1.
     999901    1    3    3    0    0 -0.67288858389E-01  0.59293976700E-01  0.10861353147E+00  0.89120169735E+00  0.88000000000E+00 0.  1.
        -11    1    4    4    0    0  0.15624026893E-01 -0.41212154123E-02 -0.14643399803E-01  0.21812494393E-01  0.51100000000E-03 0. -1.
         11    1    4    4    0    0  0.40272984510E-01 -0.35240405507E-01 -0.93758207367E-01  0.10795676001E+00  0.51100000000E-03 0.  1.
</event>
<event>
 8    1  0.1063984E+005  0.1043930E+01  0.7957747E-01            NaN
         13   -1    0    0    0    0  0.00000000000E+00  0.00000000000E+00  0.74505805969E-08  0.10566000000E+00  0.10566000000E+00 0.  1.
     999900   -1    0    0    0    0 -0.00000000000E+00 -0.00000000000E+00 -0.74505805969E-08  0.93827000000E+00  0.93827000000E+00 0.  1.
     999902    2    1    2    0    0 -0.16014597211E-01 -0.13390298660E-01  0.10841585342E-01  0.10204075130E+01  0.10201363562E+01 0.  0.
     999903    2    3    3    0    0  0.23529638882E-01 -0.59871275955E-01 -0.11113367209E+00  0.12990080820E+00  0.19629399130E-01 0.  0.
         14    1    1    2    0    0  0.16014597211E-01  0.13390298660E-01 -0.10841585342E-01  0.23522487002E-01  0.00000000000E+00 0. -1.
     999901    1    3    3    0    0 -0.39544236093E-01  0.46480977295E-01  0.12197525743E+00  0.89050670479E+00  0.88000000000E+00 0. -1.
        -11    1    4    4    0    0  0.12788980983E-03 -0.22851713507E-01 -0.46648746629E-01  0.51947895521E-01  0.51100000000E-03 0. -1.
         11    1    4    4    0    0  0.23401749072E-01 -0.37019562449E-01 -0.64484925458E-01  0.77952912683E-01  0.51100000000E-03 0.  1.
</event>
<event>
 8    1  0.1063984E+005  0.1043930E+01  0.7957747E-01            NaN
         13   -1    0    0    0    0  0.00000000000E+00  0.00000000000E+00  0.74505805969E-08  0.10566000000E+00  0.10566000000E+00 0.  1.
     999900   -1    0    0    0    0 -0.00000000000E+00 -0.00000000000E+00 -0.74505805969E-08  0.93827000000E+00  0.93827000000E+00 0.  1.
     999902    2    1    2    0    0 -0.29166021398E-02  0.14105281503E-01 -0.18448143325E-01  0.10205248825E+01  0.10202564561E+01 0.  0.
     999903    2    3    3    0    0  0.10645086395E+00 -0.71014444809E-01 -0.17494497915E-02  0.12952238146E+00  0.19953669289E-01 0.  0.
         14    1    1    2    0    0  0.29166021398E-02 -0.14105281503E-01  0.18448143325E-01  0.23405117528E-01  0.00000000000E+00 0.  1.
     999901    1    3    3    0    0 -0.10936746609E+00  0.85119726313E-01 -0.16698693534E-01  0.89100250101E+00  0.88000000000E+00 0.  1.
        -11    1    4    4    0    0  0.77052695556E-01 -0.57129816440E-01 -0.85486290658E-02  0.96303032137E-01  0.51100000000E-03 0.  1.
         11    1    4    4    0    0  0.29398168389E-01 -0.13884628370E-01  0.67991792743E-02  0.33219349322E-01  0.51100000000E-03 0. -1.
</event>
<event>
 8    1  0.1818513E+005  0.1043930E+01  0.7957747E-01            NaN
         13   -1    0    0    0    0  0.00000000000E+00  0.00000000000E+00  0.74505805969E-08  0.10566000000E+00  0.10566000000E+00 0. -1.
     999900   -1    0    0    0    0 -0.00000000000E+00 -0.00000000000E+00 -0.74505805969E-08  0.93827000000E+00  0.93827000000E+00 0.  1.
     999902    2    1    2    0    0  0.27405389296E-01 -0.16228164666E-02 -0.18123526795E-01  0.10110339346E+01  0.10104986224E+01 0.  0.
     999903    2    3    3    0    0  0.91293725060E-01 -0.62503822511E-01  0.51701648599E-01  0.12386778811E+00  0.20709814098E-01 0.  0.
         14    1    1    2    0    0 -0.27405389296E-01  0.16228164666E-02  0.18123526795E-01  0.32896065407E-01  0.00000000000E+00 0.  1.
     999901    1    3    3    0    0 -0.63888335764E-01  0.60881006045E-01 -0.69825175395E-01  0.88716614648E+00  0.88000000000E+00 0.  1.
        -11    1    4    4    0    0  0.29266730627E-01 -0.31963752523E-01  0.17649147888E-01  0.46797185162E-01  0.51100000000E-03 0. -1.
         11    1    4    4    0    0  0.62026994434E-01 -0.30540069988E-01  0.34052500712E-01  0.77070602950E-01  0.51100000000E-03 0.  1.
</event>
<event>
 8    1  0.1063984E+005  0.1043930E+01  0.7957747E-01            NaN
         13   -1    0    0    0    0  0.00000000000E+00  0.00000000000E+00  0.74505805969E-08  0.10566000000E+00  0.10566000000E+00 0.  1.
     999900   -1    0    0    0    0 -0.00000000000E+00 -0.00000000000E+00 -0.74505805969E-08  0.93827000000E+00  0.93827000000E+00 0. -1.
     999902    2    1    2    0    0 -0.50784903294E-02 -0.86131895439E-02  0.23098927339E-01  0.10187598085E+01  0.10184488248E+01 0.  0.
     999903    2    3    3    0    0 -0.11741770006E+00 -0.32624977937E-01  0.43696070748E-01  0.13105439204E+00  0.20361768092E-01 0.  0.
         14    1    1    2    0    0  0.50784903294E-02  0.86131895439E-02 -0.23098927339E-01  0.25170191544E-01  0.00000000000E+00 0. -1.
     999901    1    3    3    0    0  0.11233920973E+00  0.24011788393E-01 -0.20597143409E-01  0.88770541642E+00  0.88000000000E+00 0. -1.
        -11    1    4    4    0    0 -0.66607060268E-01 -0.93975305301E-02  0.18505495826E-01  0.69767675570E-01  0.51100000000E-03 0. -1.
         11    1    4    4    0    0 -0.50810639793E-01 -0.23227447407E-01  0.25190574922E-01  0.61286716466E-01  0.51100000000E-03 0.  1.
</event>
<event>
 8    1  0.1063984E+005  0.1043930E+01  0.7957747E-01            NaN
         13   -1    0    0    0    0  0.00000000000E+00  0.00000000000E+00  0.74505805969E-08  0.10566000000E+00  0.10566000000E+00 0. -1.
     999900   -1    0    0    0    0 -0.00000000000E+00 -0.00000000000E+00 -0.74505805969E-08  0.93827000000E+00  0.93827000000E+00 0. -1.
     999902    2    1    2    0    0  0.69225814729E-02 -0.17909616013E-01 -0.17228187690E-01  0.10181329666E+01  0.10178060969E+01 0.  0.
     999903    2    3    3    0    0 -0.11664146423E+00  0.10302418154E-01 -0.48853898918E-01  0.12849024178E+00  0.20289598205E-01 0.  0.
         14    1    1    2    0    0 -0.69225814729E-02  0.17909616013E-01  0.17228187690E-01  0.25797033377E-01  0.00000000000E+00 0.  1.
     999901    1    3    3    0    0  0.12356404570E+00 -0.28212034167E-01  0.31625711227E-01  0.88964272485E+00  0.88000000000E+00 0. -1.
        -11    1    4    4    0    0 -0.10449342920E+00  0.12114256625E-01 -0.37277027833E-01  0.11160407647E+00  0.51100000000E-03 0. -1.
         11    1    4    4    0    0 -0.12148035029E-01 -0.18118384709E-02 -0.11576871085E-01  0.16886165309E-01  0.51100000000E-03 0.  1.
</event>
<event>
 8    1  0.1063984E+005  0.1043930E+01  0.7957747E-01            NaN
         13   -1    0    0    0    0  0.00000000000E+00  0.00000000000E+00  0.74505805969E-08  0.10566000000E+00  0.10566000000E+00 0.  1.
     999900   -1    0    0    0    0 -0.00000000000E+00 -0.00000000000E+00 -0.74505805969E-08  0.93827000000E+00  0.93827000000E+00 0. -1.
     999902    2    1    2    0    0 -0.19366471837E-01  0.11723784864E-01  0.65301450570E-02  0.10203683753E+01  0.10200963049E+01 0.  0.
     999903    2    3    3    0    0 -0.22803616871E-01 -0.10480066534E+00 -0.69539646287E-01  0.12942708959E+00  0.20308242596E-01 0.  0.
         14    1    1    2    0    0  0.19366471837E-01 -0.11723784864E-01 -0.65301450570E-02  0.23561624677E-01  0.00000000000E+00 0.  1.
     999901    1    3    3    0    0  0.34371450340E-02  0.11652445020E+00  0.76069791344E-01  0.89094128573E+00  0.88000000000E+00 0.  1.
        -11    1    4    4    0    0 -0.51983792972E-02 -0.58518327830E-01 -0.29480999565E-01  0.65732855526E-01  0.51100000000E-03 0. -1.
         11    1    4    4    0    0 -0.17605237574E-01 -0.46282337509E-01 -0.40058646722E-01  0.63694234068E-01  0.51100000000E-03 0.  1.
</event>
<event>
 8    1  0.1063984E+005  0.1043930E+01  0.7957747E-01            NaN
         13   -1    0    0    0    0  0.00000000000E+00  0.00000000000E+00  0.74505805969E-08  0.10566000000E+00  0.10566000000E+00 0. -1.
     999900   -1    0    0    0    0 -0.00000000000E+00 -0.00000000000E+00 -0.74505805969E-08  0.93827000000E+00  0.93827000000E+00 0.  1.
     999902    2    1    2    0    0 -0.20204327721E-01  0.31768243329E-02  0.11971261479E-01  0.10202315154E+01  0.10199562377E+01 0.  0.
     999903    2    3    3    0    0 -0.11694607604E+00  0.38849332591E-01  0.47678919443E-01  0.13349224675E+00  0.19006452568E-01 0.  0.
         14    1    1    2    0    0  0.20204327721E-01 -0.31768243329E-02 -0.11971261479E-01  0.23698484612E-01  0.00000000000E+00 0. -1.
     999901    1    3    3    0    0  0.96741748316E-01 -0.35672508258E-01 -0.35707657965E-01  0.88673926864E+00  0.88000000000E+00 0. -1.
        -11    1    4    4    0    0 -0.71796054726E-01  0.19469786124E-01  0.19727087995E-01  0.76962102152E-01  0.51100000000E-03 0.  1.
         11    1    4    4    0    0 -0.45150021311E-01  0.19379546467E-01  0.27951831448E-01  0.56530144595E-01  0.51100000000E-03 0. -1.
</event>
<event>
 8    1  0.1063984E+005  0.1043930E+01  0.7957747E-01            NaN
         13   -1    0    0    0    0  0.00000000000E+00  0.00000000000E+00  0.74505805969E-08  0.10566000000E+00  0.10566000000E+00 0.  1.
     999900   -1    0    0    0    0 -0.00000000000E+00 -0.00000000000E+00 -0.74505805969E-08  0.93827000000E+00  0.93827000000E+00 0. -1.
     999902    2    1    2    0    0  0.20002315791E-01 -0.79634799992E-03  0.14340654295E-01  0.10193051919E+01  0.10190077002E+01 0.  0.
     999903    2    3    3    0    0  0.16629322286E-01  0.75196351102E-01  0.10439199935E+00  0.13144511728E+00  0.21192068061E-01 0.  0.
         14    1    1    2    0    0 -0.20002315791E-01  0.79634799992E-03 -0.14340654295E-01  0.24624808075E-01  0.00000000000E+00 0.  1.
     999901    1    3    3    0    0  0.33729935051E-02 -0.75992699102E-01 -0.90051345059E-01  0.88786007465E+00  0.88000000000E+00 0. -1.
        -11    1    4    4    0    0  0.97331533027E-02  0.18629931186E-01  0.16644357531E-01  0.26816121417E-01  0.51100000000E-03 0.  1.
         11    1    4    4    0    0  0.68961689834E-02  0.56566419916E-01  0.87747641823E-01  0.10462899586E+00  0.51100000000E-03 0. -1.
</event>
<event>
 8    1  0.1063984E+005  0.1043930E+01  0.7957747E-01            NaN
         13   -1    0    0    0    0  0.00000000000E+00  0.00000000000E+00  0.74505805969E-08  0.10566000000E+00  0.10566000000E+00 0.  1.
     999900   -1    0    0    0    0 -0.00000000000E+00 -0.00000000000E+00 -0.74505805969E-08  0.93827000000E+00  0.93827000000E+00 0. -1.
     999902    2    1    2    0    0  0.85980081254E-02 -0.16066726786E-01 -0.16048196020E-01  0.10196481127E+01  0.10193589475E+01 0.  0.
     999903    2    3    3    0    0  0.16772444178E-01 -0.12912282539E+00 -0.17001550581E-01  0.13237734701E+00  0.16753816208E-01 0.  0.
         14    1    1    2    0    0 -0.85980081254E-02  0.16066726786E-01  0.16048196020E-01  0.24281887259E-01  0.00000000000E+00 0. -1.
     999901    1    3    3    0    0 -0.81744360525E-02  0.11305609861E+00  0.95335456085E-03  0.88727076573E+00  0.88000000000E+00 0. -1.
        -11    1    4    4    0    0  0.86859712238E-02 -0.42735906978E-01  0.15906289585E-02  0.43641666590E-01  0.51100000000E-03 0.  1.
         11    1    4    4    0    0  0.80864729542E-02 -0.86386918417E-01 -0.18592179540E-01  0.88735680419E-01  0.51100000000E-03 0. -1.
</event>
<event>
 8    1  0.1063984E+005  0.1043930E+01  0.7957747E-01            NaN
         13   -1    0    0    0    0  0.00000000000E+00  0.00000000000E+00  0.74505805969E-08  0.10566000000E+00  0.10566000000E+00 0.  1.
     999900   -1    0    0    0    0 -0.00000000000E+00 -0.00000000000E+00 -0.74505805969E-08  0.93827000000E+00  0.93827000000E+00 0. -1.
     999902    2    1    2    0    0 -0.28227974550E-01  0.57930882406E-02  0.34037846123E-02  0.10149133812E+01  0.10144985003E+01 0.  0.
     999903    2    3    3    0    0 -0.93518556753E-01  0.22100159602E-01 -0.82264331048E-01  0.12819594775E+00  0.20800080381E-01 0.  0.
         14    1    1    2    0    0  0.28227974550E-01 -0.57930882406E-02 -0.34037846123E-02  0.29016618829E-01  0.00000000000E+00 0.  1.
     999901    1    3    3    0    0  0.65290582203E-01 -0.16307071361E-01  0.85668115660E-01  0.88671743343E+00  0.88000000000E+00 0.  1.
        -11    1    4    4    0    0 -0.40628869543E-01 -0.85467740730E-03 -0.35294008391E-01  0.53827164732E-01  0.51100000000E-03 0.  1.
         11    1    4    4    0    0 -0.52889687210E-01  0.22954837009E-01 -0.46970322657E-01  0.74368783013E-01  0.51100000000E-03 0. -1.
</event>
<event>
 8    1  0.1063984E+005  0.1043930E+01  0.7957747E-01            NaN
         13   -1    0    0    0    0  0.00000000000E+00  0.00000000000E+00  0.74505805969E-08  0.10566000000E+00  0.10566000000E+00 0.  1.
     999900   -1    0    0    0    0 -0.00000000000E+00 -0.00000000000E+00 -0.74505805969E-08  0.93827000000E+00  0.93827000000E+00 0.  1.
     999902    2    1    2    0    0  0.11541992630E-01  0.16920961631E-01 -0.10297607396E-01  0.10210045283E+01  0.10207471134E+01 0.  0.
     999903    2    3    3    0    0 -0.82282467100E-01 -0.96031485395E-01  0.11483508692E-01  0.12857206496E+00  0.20160712720E-01 0.  0.
         14    1    1    2    0    0 -0.11541992630E-01 -0.16920961631E-01  0.10297607396E-01  0.22925471739E-01  0.00000000000E+00 0. -1.
     999901    1    3    3    0    0  0.93824459730E-01  0.11295244703E+00 -0.21781116088E-01  0.89243246330E+00  0.88000000000E+00 0.  1.
        -11    1    4    4    0    0 -0.46848040003E-01 -0.40010284132E-01  0.87319646921E-02  0.62225959348E-01  0.51100000000E-03 0. -1.
         11    1    4    4    0    0 -0.35434427097E-01 -0.56021201263E-01  0.27515439998E-02  0.66346105613E-01  0.51100000000E-03 0.  1.
</event>
<event>
 8    1  0.1063984E+005  0.1043930E+01  0.7957747E-01            NaN
         13   -1    0    0    0    0  0.00000000000E+00  0.00000000000E+00  0.74505805969E-08  0.10566000000E+00  0.10566000000E+00 0.  1.
     999900   -1    0    0    0    0 -0.00000000000E+00 -0.00000000000E+00 -0.74505805969E-08  0.93827000000E+00  0.93827000000E+00 0.  1.
     999902    2    1    2    0    0 -0.16742412604E-01  0.73454312257E-02  0.13408500558E-01  0.10212572933E+01  0.10210055865E+01 0.  0.
     999903    2    3    3    0    0  0.10108879637E+00  0.67000781532E-01 -0.41715433072E-01  0.12969596473E+00  0.19308454943E-01 0.  0.
         14    1    1    2    0    0  0.16742412604E-01 -0.73454312257E-02 -0.13408500558E-01  0.22672706652E-01  0.00000000000E+00 0. -1.
     999901    1    3    3    0    0 -0.11783120898E+00 -0.59655350306E-01  0.55123933630E-01  0.89156132862E+00  0.88000000000E+00 0. -1.
        -11    1    4    4    0    0  0.54075530795E-02  0.99944179975E-02 -0.49744245314E-02  0.12415153718E-01  0.51100000000E-03 0. -1.
         11    1    4    4    0    0  0.95681243295E-01  0.57006363534E-01 -0.36741008541E-01  0.11728081101E+00  0.51100000000E-03 0.  1.
</event>
<event>
 8    1  0.1063984E+005  0.1043930E+01  0.7957747E-01            NaN
         13   -1    0    0    0    0  0.00000000000E+00  0.00000000000E+00  0.74505805969E-08  0.10566000000E+00  0.10566000000E+00 0.  1.
     999900   -1    0    0    0    0 -0.00000000000E+00 -0.00000000000E+00 -0.74505805969E-08  0.93827000000E+00  0.93827000000E+00 0.  1.
     999902    2    1    2    0    0 -0.22588468852E-01 -0.57540758939E-02 -0.58965717765E-02  0.10198859181E+01  0.10196024559E+01 0.  0.
     999903    2    3    3    0    0  0.11818667264E+00  0.33857841230E-01  0.25795399883E-01  0.12725434491E+00  0.20342631127E-01 0.  0.
         14    1    1    2    0    0  0.22588468852E-01  0.57540758939E-02  0.58965717765E-02  0.24044081875E-01  0.00000000000E+00 0.  1.
     999901    1    3    3    0    0 -0.14077514149E+00 -0.39611917124E-01 -0.31691971660E-01  0.89263157322E+00  0.88000000000E+00 0. -1.
        -11    1    4    4    0    0  0.74245767177E-01  0.31288593987E-01  0.15520919901E-01  0.82052240267E-01  0.51100000000E-03 0.  1.
         11    1    4    4    0    0  0.43940905459E-01  0.25692472430E-02  0.10274479982E-01  0.45202104639E-01  0.51100000000E-03 0. -1.
</event>
<event>
 8    1  0.1063984E+005  0.1043930E+01  0.7957747E-01            NaN
         13   -1    0    0    0    0  0.00000000000E+00  0.00000000000E+00  0.74505805969E-08  0.10566000000E+00  0.10566000000E+00 0. -1.
     999900   -1    0    0    0    0 -0.00000000000E+00 -0.00000000000E+00 -0.74505805969E-08  0.93827000000E+00  0.93827000000E+00 0.  1.
     999902    2    1    2    0    0 -0.65938564215E-02  0.19098537563E-01 -0.12265399945E-01  0.10202937330E+01  0.10200199158E+01 0.  0.
     999903    2    3    3    0    0 -0.10614636673E+00  0.73428001594E-01  0.20613306793E-01  0.13240668937E+00  0.21163657219E-01 0.  0.
         14    1    1    2    0    0  0.65938564215E-02 -0.19098537563E-01  0.12265399945E-01  0.23636266951E-01  0.00000000000E+00 0. -1.
     999901    1    3    3    0    0  0.99552510304E-01 -0.54329464032E-01 -0.32878706738E-01  0.88788704368E+00  0.88000000000E+00 0. -1.
        -11    1    4    4    0    0 -0.40633855585E-01  0.29327186981E-01  0.18448099699E-01  0.53402131226E-01  0.51100000000E-03 0. -1.
         11    1    4    4    0    0 -0.65512511141E-01  0.44100814613E-01  0.21652070945E-02  0.79004558149E-01  0.51100000000E-03 0.  1.
</event>
<event>
 8    1  0.1063984E+005  0.1043930E+01  0.7957747E-01            NaN
         13   -1    0    0    0    0  0.00000000000E+00  0.00000000000E+00  0.74505805969E-08  0.10566000000E+00  0.10566000000E+00 0.  1.
     999900   -1    0    0    0    0 -0.00000000000E+00 -0.00000000000E+00 -0.74505805969E-08  0.93827000000E+00  0.93827000000E+00 0. -1.
     999902    2    1    2    0    0  0.54589264637E-02 -0.99813655930E-02 -0.18189004303E-01  0.10224761562E+01  0.10222510565E+01 0.  0.
     999903    2    3    3    0    0  0.22710744505E-01  0.97080407859E-01 -0.86417517490E-01  0.13319837136E+00  0.18260210774E-01 0.  0.
         14    1    1    2    0    0 -0.54589264637E-02  0.99813655930E-02  0.18189004303E-01  0.21453843822E-01  0.00000000000E+00 0.  1.
     999901    1    3    3    0    0 -0.17251818042E-01 -0.10706177345E+00  0.68228513187E-01  0.88927778482E+00  0.88000000000E+00 0.  1.
        -11    1    4    4    0    0  0.19698152142E-01  0.75000256129E-01 -0.56764751791E-01  0.96101788662E-01  0.51100000000E-03 0. -1.
         11    1    4    4    0    0  0.30125923637E-02  0.22080151729E-01 -0.29652765699E-01  0.37096582696E-01  0.51100000000E-03 0.  1.
</event>
<event>
 8    1  0.1063984E+005  0.1043930E+01  0.7957747E-01            NaN
         13   -1    0    0    0    0  0.00000000000E+00  0.00000000000E+00  0.74505805969E-08  0.10566000000E+00  0.10566000000E+00 0. -1.
     999900   -1    0    0    0    0 -0.00000000000E+00 -0.00000000000E+00 -0.74505805969E-08  0.93827000000E+00  0.93827000000E+00 0.  1.
     999902    2    1    2    0    0 -0.52357850082E-03  0.16148910101E-01  0.12690267896E-01  0.10233848222E+01  0.10231785719E+01 0.  0.
     999903    2    3    3    0    0  0.12609641502E+00  0.40894616919E-01  0.74856185833E-02  0.13396250341E+00  0.17811295875E-01 0.  0.
         14    1    1    2    0    0  0.52357850082E-03 -0.16148910101E-01 -0.12690267896E-01  0.20545177808E-01  0.00000000000E+00 0.  1.
     999901    1    3    3    0    0 -0.12661999352E+00 -0.24745706818E-01  0.52046493126E-02  0.88942231878E+00  0.88000000000E+00 0.  1.
        -11    1    4    4    0    0  0.12138928570E+00  0.36162423085E-01  0.93692913668E-02  0.12700836299E+00  0.51100000000E-03 0. -1.
         11    1    4    4    0    0  0.47071293183E-02  0.47321938341E-02 -0.18836727835E-02  0.69541404255E-02  0.51100000000E-03 0.  1.
</event>
<event>
 8    1  0.1063984E+005  0.1043930E+01  0.7957747E-01            NaN
         13   -1    0    0    0    0  0.00000000000E+00  0.00000000000E+00  0.74505805969E-08  0.10566000000E+00  0.10566000000E+00 0. -1.
     999900   -1    0    0    0    0 -0.00000000000E+00 -0.00000000000E+00 -0.74505805969E-08  0.93827000000E+00  0.93827000000E+00 0. -1.
     999902    2    1    2    0    0 -0.98414282387E-02  0.20382311953E-01 -0.73579631630E-02  0.10201301687E+01  0.10198525036E+01 0.  0.
     999903    2    3    3    0    0 -0.55408781839E-02 -0.37489587586E-01  0.12160177988E+00  0.12883994274E+00  0.19405346336E-01 0.  0.
         14    1    1    2    0    0  0.98414282387E-02 -0.20382311953E-01  0.73579631630E-02  0.23799831349E-01  0.00000000000E+00 0. -1.
     999901    1    3    3    0    0 -0.43005500548E-02  0.57871899540E-01 -0.12895974304E+00  0.89129022592E+00  0.88000000000E+00 0. -1.
        -11    1    4    4    0    0  0.26907677315E-02 -0.29855240417E-01  0.10120011862E+00  0.10554762310E+00  0.51100000000E-03 0. -1.
         11    1    4    4    0    0 -0.82316459154E-02 -0.76343471697E-02  0.20401661256E-01  0.23292319639E-01  0.51100000000E-03 0.  1.
</event>
<event>
 8    1  0.1063984E+005  0.1043930E+01  0.7957747E-01            NaN
         13   -1    0    0    0    0  0.00000000000E+00  0.00000000000E+00  0.74505805969E-08  0.10566000000E+00  0.10566000000E+00 0.  1.
     999900   -1    0    0    0    0 -0.00000000000E+00 -0.00000000000E+00 -0.74505805969E-08  0.93827000000E+00  0.93827000000E+00 0. -1.
     999902    2    1    2    0    0  0.25130616701E-02  0.22962272045E-01  0.47910348027E-02  0.10203389968E+01  0.10200662395E+01 0.  0.
     999903    2    3    3    0    0  0.53136780574E-01  0.49093310292E-01 -0.10789274751E+00  0.13132649586E+00  0.19290748630E-01 0.  0.
         14    1    1    2    0    0 -0.25130616701E-02 -0.22962272045E-01 -0.47910348027E-02  0.23591003177E-01  0.00000000000E+00 0. -1.
     999901    1    3    3    0    0 -0.50623718904E-01 -0.26131038247E-01  0.11268378232E+00  0.88901250097E+00  0.88000000000E+00 0.  1.
        -11    1    4    4    0    0  0.49752151317E-01  0.38218830643E-01 -0.83907246600E-01  0.10476947423E+00  0.51100000000E-03 0. -1.
         11    1    4    4    0    0  0.33846292566E-02  0.10874479649E-01 -0.23985500915E-01  0.26557021632E-01  0.51100000000E-03 0.  1.
</event>
<event>
 8    1  0.1063984E+005  0.1043930E+01  0.7957747E-01            NaN
         13   -1    0    0    0    0  0.00000000000E+00  0.00000000000E+00  0.74505805969E-08  0.10566000000E+00  0.10566000000E+00 0.  1.
     999900   -1    0    0    0    0 -0.00000000000E+00 -0.00000000000E+00 -0.74505805969E-08  0.93827000000E+00  0.93827000000E+00 0. -1.
     999902    2    1    2    0    0  0.19308189328E-01 -0.12934403626E-01  0.25128530874E-03  0.10206884829E+01  0.10204238389E+01 0.  0.
     999903    2    3    3    0    0  0.12851451698E+00  0.66865949408E-03  0.34298663396E-01  0.13318057349E+00  0.66512153129E-02 0.  0.
         14    1    1    2    0    0 -0.19308189328E-01  0.12934403626E-01 -0.25128530874E-03  0.23241517088E-01  0.00000000000E+00 0. -1.
     999901    1    3    3    0    0 -0.10920632765E+00 -0.13603063120E-01 -0.34047378087E-01  0.88750790942E+00  0.88000000000E+00 0. -1.
        -11    1    4    4    0    0  0.62992255316E-01  0.26529305468E-02  0.19218084456E-01  0.65914020978E-01  0.51100000000E-03 0.  1.
         11    1    4    4    0    0  0.65522261664E-01 -0.19842710527E-02  0.15080578939E-01  0.67266552516E-01  0.51100000000E-03 0. -1.
</event>
<event>
 8    1  0.1063984E+005  0.1043930E+01  0.7957747E-01            NaN
         13   -1    0    0    0    0  0.00000000000E+00  0.00000000000E+00  0.74505805969E-08  0.10566000000E+00  0.10566000000E+00 0. -1.
     999900   -1    0    0    0    0 -0.00000000000E+00 -0.00000000000E+00 -0.74505805969E-08  0.93827000000E+00  0.93827000000E+00 0. -1.
     999902    2    1    2    0    0  0.14493824933E-01 -0.28949710612E-02 -0.18271638321E-01  0.10204288386E+01  0.10201581790E+01 0.  0.
     999903    2    3    3    0    0 -0.11654532582E-01 -0.50866959047E-01 -0.12052906256E+00  0.13282440588E+00  0.19793742053E-01 0.  0.
         14    1    1    2    0    0 -0.14493824933E-01  0.28949710612E-02  0.18271638321E-01  0.23501161366E-01  0.00000000000E+00 0. -1.
     999901    1    3    3    0    0  0.26148357515E-01  0.47971987986E-01  0.10225742424E+00  0.88760443275E+00  0.88000000000E+00 0.  1.
        -11    1    4    4    0    0  0.12706758345E-02 -0.34503791505E-01 -0.82831347477E-01  0.89740846281E-01  0.51100000000E-03 0. -1.
         11    1    4    4    0    0 -0.12925208416E-01 -0.16363167542E-01 -0.37697715079E-01  0.43083559600E-01  0.51100000000E-03 0.  1.
</event>
<event>
 8    1  0.1063984E+005  0.1043930E+01  0.7957747E-01            NaN
         13   -1    0    0    0    0  0.00000000000E+00  0.00000000000E+00  0.74505805969E-08  0.10566000000E+00  0.10566000000E+00 0. -1.
     999900   -1    0    0    0    0 -0.00000000000E+00 -0.00000000000E+00 -0.74505805969E-08  0.93827000000E+00  0.93827000000E+00 0. -1.
     999902    2    1    2    0    0 -0.11820920053E-01 -0.11778182263E-01 -0.14689875226E-01  0.10216982173E+01  0.10214563109E+01 0.  0.
     999903    2    3    3    0    0 -0.28164908944E-01 -0.12900620289E+00  0.47639644810E-02  0.13356084803E+00  0.19492108411E-01 0.  0.
         14    1    1    2    0    0  0.11820920053E-01  0.11778182263E-01  0.14689875226E-01  0.22231782711E-01  0.00000000000E+00 0. -1.
     999901    1    3    3    0    0  0.16343988891E-01  0.11722802062E+00 -0.19453839707E-01  0.88813736926E+00  0.88000000000E+00 0.  1.
        -11    1    4    4    0    0 -0.25909998686E-01 -0.93225052471E-01 -0.32731252955E-02  0.96815354724E-01  0.51100000000E-03 0. -1.
         11    1    4    4    0    0 -0.22549102574E-02 -0.35781150416E-01  0.80370897765E-02  0.36745493308E-01  0.51100000000E-03 0.  1.
</event>
<event>
 8    1  0.1063984E+005  0.1043930E+01  0.7957747E-01            NaN
         13   -1    0    0    0    0  0.00000000000E+00  0.00000000000E+00  0.74505805969E-08  0.10566000000E+00  0.10566000000E+00 0.  1.
     999900   -1    0    0    0    0 -0.00000000000E+00 -0.00000000000E+00 -0.74505805969E-08  0.93827000000E+00  0.93827000000E+00 0.  1.
     999902    2    1    2    0    0  0.23687985326E-01  0.15414767690E-01  0.37559332340E-02  0.10154196028E+01  0.10150192742E+01 0.  0.
     999903    2    3    3    0    0 -0.26170474725E-01 -0.52652027945E-01 -0.10775912974E+00  0.12437832210E+00  0.20020169127E-01 0.  0.
         14    1    1    2    0    0 -0.23687985326E-01 -0.15414767690E-01 -0.37559332340E-02  0.28510397159E-01  0.00000000000E+00 0.  1.
     999901    1    3    3    0    0  0.49858460051E-01  0.68066795635E-01  0.11151506298E+00  0.89104128074E+00  0.88000000000E+00 0. -1.
        -11    1    4    4    0    0 -0.47960005427E-02 -0.26257658769E-01 -0.34462331876E-01  0.43593344727E-01  0.51100000000E-03 0.  1.
         11    1    4    4    0    0 -0.21374474183E-01 -0.26394369177E-01 -0.73296797869E-01  0.80784977376E-01  0.51100000000E-03 0. -1.
</event>
<event>
 8    1  0.1063984E+005  0.1043930E+01  0.7957747E-01            NaN
         13   -1    0    0    0    0  0.00000000000E+00  0.00000000000E+00  0.74505805969E-08  0.10566000000E+00  0.10566000000E+00 0. -1.
     999900   -1    0    0    0    0 -0.00000000000E+00 -0.00000000000E+00 -0.74505805969E-08  0.93827000000E+00  0.93827000000E+00 0. -1.
     999902    2    1    2    0    0  0.15462124422E-01  0.14527742932E-01 -0.89588434022E-02  0.10208997268E+01  0.10206399261E+01 0.  0.
     999903    2    3    3    0    0  0.91068301639E-01 -0.79694319378E-01 -0.48040208536E-01  0.13178699825E+00  0.20379675326E-01 0.  0.
         14    1    1    2    0    0 -0.15462124422E-01 -0.14527742932E-01  0.89588434022E-02  0.23030273152E-01  0.00000000000E+00 0.  1.
     999901    1    3    3    0    0 -0.75606177218E-01  0.94222062310E-01  0.39081365134E-01  0.88911272860E+00  0.88000000000E+00 0.  1.
        -11    1    4    4    0    0  0.60434475655E-01 -0.41449947790E-01 -0.34163028141E-01  0.80856648659E-01  0.51100000000E-03 0. -1.
         11    1    4    4    0    0  0.30633825984E-01 -0.38244371587E-01 -0.13877180395E-01  0.50930349589E-01  0.51100000000E-03 0.  1.
</event>
<event>
 8    1  0.1063984E+005  0.1043930E+01  0.7957747E-01            NaN
         13   -1    0    0    0    0  0.00000000000E+00  0.00000000000E+00  0.74505805969E-08  0.10566000000E+00  0.10566000000E+00 0. -1.
     999900   -1    0    0    0    0 -0.00000000000E+00 -0.00000000000E+00 -0.74505805969E-08  0.93827000000E+00  0.93827000000E+00 0. -1.
     999902    2    1    2    0    0  0.16020119214E-01 -0.16631054214E-02  0.17709884782E-01  0.10199915339E+01  0.10197105860E+01 0.  0.
     999903    2    3    3    0    0  0.12060568704E+00 -0.46974373225E-01  0.22693981024E-01  0.13262684384E+00  0.17959383223E-01 0.  0.
         14    1    1    2    0    0 -0.16020119214E-01  0.16631054214E-02 -0.17709884782E-01  0.23938466080E-01  0.00000000000E+00 0.  1.
     999901    1    3    3    0    0 -0.10458556783E+00  0.45311267803E-01 -0.49840962423E-02  0.88736469008E+00  0.88000000000E+00 0. -1.
        -11    1    4    4    0    0  0.67367842353E-01 -0.20883946094E-01  0.47983209690E-02  0.70695476466E-01  0.51100000000E-03 0.  1.
         11    1    4    4    0    0  0.53237844687E-01 -0.26090427131E-01  0.17895660055E-01  0.61931367372E-01  0.51100000000E-03 0. -1.
</event>
<event>
 8    1  0.1063984E+005  0.1043930E+01  0.7957747E-01            NaN
         13   -1    0    0    0    0  0.00000000000E+00  0.00000000000E+00  0.74505805969E-08  0.10566000000E+00  0.10566000000E+00 0.  1.
     999900   -1    0    0    0    0 -0.00000000000E+00 -0.00000000000E+00 -0.74505805969E-08  0.93827000000E+00  0.93827000000E+00 0. -1.
     999902    2    1    2    0    0 -0.77940780751E-03 -0.15348009219E-01 -0.18509441055E-01  0.10198723968E+01  0.10195886119E+01 0.  0.
     999903    2    3    3    0    0  0.10921270538E+00 -0.60314737810E-01 -0.36892441662E-01  0.13169549643E+00  0.20429608764E-01 0.  0.
         14    1    1    2    0    0  0.77940780751E-03  0.15348009219E-01  0.18509441055E-01  0.24057603200E-01  0.00000000000E+00 0.  1.
     999901    1    3    3    0    0 -0.10999211319E+00  0.44966728591E-01  0.18383000607E-01  0.88817690037E+00  0.88000000000E+00 0. -1.
        -11    1    4    4    0    0  0.49798145150E-01 -0.26376634234E-01 -0.27236684968E-01  0.62591374989E-01  0.51100000000E-03 0.  1.
         11    1    4    4    0    0  0.59414560229E-01 -0.33938103576E-01 -0.96557566939E-02  0.69104121439E-01  0.51100000000E-03 0. -1.
</event>
<event>
 8    1  0.1063984E+005  0.1043930E+01  0.7957747E-01            NaN
         13   -1    0    0    0    0  0.00000000000E+00  0.00000000000E+00  0.74505805969E-08  0.10566000000E+00  0.10566000000E+00 0. -1.
     999900   -1    0    0    0    0 -0.00000000000E+00 -0.00000000000E+00 -0.74505805969E-08  0.93827000000E+00  0.93827000000E+00 0.  1.
     999902    2    1    2    0    0  0.60384069077E-02 -0.13971021946E-01  0.17901424201E-01  0.10204329193E+01  0.10201623547E+01 0.  0.
     999903    2    3    3    0    0 -0.72011149696E-02  0.11100095811E+00  0.64885121550E-01  0.13026397549E+00  0.19635568591E-01 0.  0.
         14    1    1    2    0    0 -0.60384069077E-02  0.13971021946E-01 -0.17901424201E-01  0.23497080683E-01  0.00000000000E+00 0.  1.
     999901    1    3    3    0    0  0.13239521877E-01 -0.12497198005E+00 -0.46983697349E-01  0.89016894383E+00  0.88000000000E+00 0.  1.
        -11    1    4    4    0    0  0.60753031374E-02  0.21806464812E-01  0.10537294985E-01  0.24974525469E-01  0.51100000000E-03 0. -1.
         11    1    4    4    0    0 -0.13276418107E-01  0.89194493297E-01  0.54347826565E-01  0.10528945002E+00  0.51100000000E-03 0.  1.
</event>
<event>
 8    1  0.1063984E+005  0.1043930E+01  0.7957747E-01            NaN
         13   -1    0    0    0    0  0.00000000000E+00  0.00000000000E+00  0.74505805969E-08  0.10566000000E+00  0.10566000000E+00 0. -1.
     999900   -1    0    0    0    0 -0.00000000000E+00 -0.00000000000E+00 -0.74505805969E-08  0.93827000000E+00  0.93827000000E+00 0.  1.
     999902    2    1    2    0    0  0.92712366333E-02 -0.14971332347E-01 -0.12387846419E-01  0.10223996642E+01  0.10221729394E+01 0.  0.
     999903    2    3    3    0    0  0.42771194040E-01  0.12168123021E+00 -0.12934296249E-01  0.13122265114E+00  0.20405669007E-01 0.  0.
         14    1    1    2    0    0 -0.92712366333E-02  0.14971332347E-01  0.12387846419E-01  0.21530335805E-01  0.00000000000E+00 0. -1.
     999901    1    3    3    0    0 -0.33499957407E-01 -0.13665256255E+00  0.54644983030E-03  0.89117701306E+00  0.88000000000E+00 0. -1.
        -11    1    4    4    0    0  0.11365327083E-01  0.59279376315E-01 -0.10862208771E-01  0.61330773812E-01  0.51100000000E-03 0.  1.
         11    1    4    4    0    0  0.31405866957E-01  0.62401853891E-01 -0.20720874780E-02  0.69891877324E-01  0.51100000000E-03 0. -1.
</event>
<event>
 8    1  0.1063984E+005  0.1043930E+01  0.7957747E-01            NaN
         13   -1    0    0    0    0  0.00000000000E+00  0.00000000000E+00  0.74505805969E-08  0.10566000000E+00  0.10566000000E+00 0. -1.
     999900   -1    0    0    0    0 -0.00000000000E+00 -0.00000000000E+00 -0.74505805969E-08  0.93827000000E+00  0.93827000000E+00 0.  1.
     999902    2    1    2    0    0  0.41691637634E-02  0.63223293212E-02 -0.22275393911E-01  0.10204024215E+01  0.10201311459E+01 0.  0.
     999903    2    3    3    0    0  0.75723046491E-01 -0.30569744904E-01 -0.10275011150E+00  0.13307093700E+00  0.21949938201E-01 0.  0.
         14    1    1    2    0    0 -0.41691637634E-02 -0.63223293212E-02  0.22275393911E-01  0.23527578465E-01  0.00000000000E+00 0. -1.
     999901    1    3    3    0    0 -0.71553882728E-01  0.36892074225E-01  0.80474717591E-01  0.88733148453E+00  0.88000000000E+00 0. -1.
        -11    1    4    4    0    0  0.25542992294E-01 -0.10831451933E-01 -0.19628930128E-01  0.33990010669E-01  0.51100000000E-03 0. -1.
         11    1    4    4    0    0  0.50180054198E-01 -0.19738292971E-01 -0.83121181374E-01  0.99080926332E-01  0.51100000000E-03 0.  1.
</event>
<event>
 8    1  0.1063984E+005  0.1043930E+01  0.7957747E-01            NaN
         13   -1    0    0    0    0  0.00000000000E+00  0.00000000000E+00  0.74505805969E-08  0.10566000000E+00  0.10566000000E+00 0. -1.
     999900   -1    0    0    0    0 -0.00000000000E+00 -0.00000000000E+00 -0.74505805969E-08  0.93827000000E+00  0.93827000000E+00 0. -1.
     999902    2    1    2    0    0 -0.21244550069E-01  0.14442103380E-03  0.10744075091E-01  0.10201227130E+01  0.10198448719E+01 0.  0.
     999903    2    3    3    0    0 -0.84393743009E-01  0.94285867988E-01 -0.30705384412E-01  0.13188373034E+00  0.20937261908E-01 0.  0.
         14    1    1    2    0    0  0.21244550069E-01 -0.14442103380E-03 -0.10744075091E-01  0.23807287007E-01  0.00000000000E+00 0.  1.
     999901    1    3    3    0    0  0.63149192939E-01 -0.94141446955E-01  0.41449459503E-01  0.88823898265E+00  0.88000000000E+00 0. -1.
        -11    1    4    4    0    0 -0.27186641496E-01  0.33339173447E-01 -0.20551624567E-01  0.47678552361E-01  0.51100000000E-03 0. -1.
         11    1    4    4    0    0 -0.57207101513E-01  0.60946694542E-01 -0.10153759845E-01  0.84205177983E-01  0.51100000000E-03 0.  1.
</event>
<event>
 8    1  0.1063984E+005  0.1043930E+01  0.7957747E-01            NaN
         13   -1    0    0    0    0  0.00000000000E+00  0.00000000000E+00  0.74505805969E-08  0.10566000000E+00  0.10566000000E+00 0.  1.
     999900   -1    0    0    0    0 -0.00000000000E+00 -0.00000000000E+00 -0.74505805969E-08  0.93827000000E+00  0.93827000000E+00 0.  1.
     999902    2    1    2    0    0 -0.68360545911E-02 -0.42537268197E-02  0.20313502894E-01  0.10220790450E+01  0.10218454433E+01 0.  0.
     999903    2    3    3    0    0  0.75570769975E-01  0.78838829731E-01  0.72881830255E-01  0.13277668544E+00  0.19783444274E-01 0.  0.
         14    1    1    2    0    0  0.68360545911E-02  0.42537268197E-02 -0.20313502894E-01  0.21850954992E-01  0.00000000000E+00 0. -1.
     999901    1    3    3    0    0 -0.82406824566E-01 -0.83092556551E-01 -0.52568327361E-01  0.88930235957E+00  0.88000000000E+00 0.  1.
        -11    1    4    4    0    0  0.38705887809E-01  0.52622594184E-01  0.48689477260E-01  0.81475207803E-01  0.51100000000E-03 0. -1.
         11    1    4    4    0    0  0.36864882166E-01  0.26216235547E-01  0.24192352995E-01  0.51301477638E-01  0.51100000000E-03 0.  1.
</event>
<event>
 8    1  0.1063984E+005  0.1043930E+01  0.7957747E-01            NaN
         13   -1    0    0    0    0  0.00000000000E+00  0.00000000000E+00  0.74505805969E-08  0.10566000000E+00  0.10566000000E+00 0.  1.
     999900   -1    0    0    0    0 -0.00000000000E+00 -0.00000000000E+00 -0.74505805969E-08  0.93827000000E+00  0.93827000000E+00 0.  1.
     999902    2    1    2    0    0 -0.28533787061E-02 -0.17880102844E-02 -0.24074529073E-01  0.10196211189E+01  0.10193313026E+01 0.  0.
     999903    2    3    3    0    0  0.10257103168E+00 -0.19234813995E-01  0.66904495606E-01  0.12850054332E+00  0.33843514786E-01 0.  0.
         14    1    1    2    0    0  0.28533787061E-02  0.17880102844E-02  0.24074529073E-01  0.24308881112E-01  0.00000000000E+00 0.  1.
     999901    1    3    3    0    0 -0.10542441038E+00  0.17446803711E-01 -0.90979024680E-01  0.89112057557E+00  0.88000000000E+00 0.  1.
        -11    1    4    4    0    0  0.33457723040E-01  0.91092836277E-02  0.16657800803E-01  0.38472610099E-01  0.51100000000E-03 0.  1.
         11    1    4    4    0    0  0.69113308637E-01 -0.28344097623E-01  0.50246694803E-01  0.90027933223E-01  0.51100000000E-03 0. -1.
</event>
<event>
 8    1  0.1232681E+005  0.1043930E+01  0.7957747E-01            NaN
         13   -1    0    0    0    0  0.00000000000E+00  0.00000000000E+00  0.74505805969E-08  0.10566000000E+00  0.10566000000E+00 0.  1.
     999900   -1    0    0    0    0 -0.00000000000E+00 -0.00000000000E+00 -0.74505805969E-08  0.93827000000E+00  0.93827000000E+00 0.  1.
     999902    2    1    2    0    0  0.12737625237E-01 -0.11926727754E-01  0.16215688510E-01  0.10201089487E+01  0.10198307824E+01 0.  0.
     999903    2    3    3    0    0  0.53331532862E-01  0.14636460302E-01 -0.11474486382E+00  0.12909596643E+00  0.20997771462E-01 0.  0.
         14    1    1    2    0    0 -0.12737625237E-01  0.11926727754E-01 -0.16215688510E-01  0.23821051308E-01  0.00000000000E+00 0. -1.
     999901    1    3    3    0    0 -0.40593907625E-01 -0.26563188056E-01  0.13096055233E+00  0.89101298226E+00  0.88000000000E+00 0. -1.
        -11    1    4    4    0    0  0.27119480467E-01 -0.31276918277E-02 -0.58212136079E-01  0.64297453953E-01  0.51100000000E-03 0. -1.
         11    1    4    4    0    0  0.26212052396E-01  0.17764152130E-01 -0.56532727744E-01  0.64798512474E-01  0.51100000000E-03 0.  1.
</event>
<event>
 8    1  0.1063984E+005  0.1043930E+01  0.7957747E-01            NaN
         13   -1    0    0    0    0  0.00000000000E+00  0.00000000000E+00  0.74505805969E-08  0.10566000000E+00  0.10566000000E+00 0.  1.
     999900   -1    0    0    0    0 -0.00000000000E+00 -0.00000000000E+00 -0.74505805969E-08  0.93827000000E+00  0.93827000000E+00 0.  1.
     999902    2    1    2    0    0 -0.32853457001E-02 -0.55473169376E-02 -0.22842016034E-01  0.10201955542E+01  0.10199194306E+01 0.  0.
     999903    2    3    3    0    0 -0.75057879368E-01 -0.53077997553E-01  0.88296303836E-01  0.12903777448E+00  0.20088576155E-01 0.  0.
         14    1    1    2    0    0  0.32853457001E-02  0.55473169376E-02  0.22842016034E-01  0.23734445814E-01  0.00000000000E+00 0.  1.
     999901    1    3    3    0    0  0.71772533668E-01  0.47530680615E-01 -0.11113831987E+00  0.89115777971E+00  0.88000000000E+00 0.  1.
        -11    1    4    4    0    0 -0.49324658237E-01 -0.23325906480E-01  0.47192080976E-01  0.72141343564E-01  0.51100000000E-03 0. -1.
         11    1    4    4    0    0 -0.25733221131E-01 -0.29752091073E-01  0.41104222860E-01  0.56896430916E-01  0.51100000000E-03 0.  1.
</event>
<event>
 8    1  0.1063984E+005  0.1043930E+01  0.7957747E-01            NaN
         13   -1    0    0    0    0  0.00000000000E+00  0.00000000000E+00  0.74505805969E-08  0.10566000000E+00  0.10566000000E+00 0.  1.
     999900   -1    0    0    0    0 -0.00000000000E+00 -0.00000000000E+00 -0.74505805969E-08  0.93827000000E+00  0.93827000000E+00 0. -1.
     999902    2    1    2    0    0  0.16153312984E-01 -0.10515569341E-01  0.13061389193E-01  0.10206468171E+01  0.10203812124E+01 0.  0.
     999903    2    3    3    0    0  0.97800145765E-01  0.61840889660E-01  0.61772189837E-01  0.13257339413E+00  0.19254538379E-01 0.  0.
         14    1    1    2    0    0 -0.16153312984E-01  0.10515569341E-01 -0.13061389193E-01  0.23283182913E-01  0.00000000000E+00 0. -1.
     999901    1    3    3    0    0 -0.81646832782E-01 -0.72356459001E-01 -0.48710800644E-01  0.88807342296E+00  0.88000000000E+00 0. -1.
        -11    1    4    4    0    0  0.80007087929E-01  0.58463416176E-01  0.50292135999E-01  0.11112454821E+00  0.51100000000E-03 0.  1.
         11    1    4    4    0    0  0.17793057836E-01  0.33774734841E-02  0.11480053838E-01  0.21448845923E-01  0.51100000000E-03 0. -1.
</event>
<event>
 8    1  0.1063984E+005  0.1043930E+01  0.7957747E-01            NaN
         13   -1    0    0    0    0  0.00000000000E+00  0.00000000000E+00  0.74505805969E-08  0.10566000000E+00  0.10566000000E+00 0. -1.
     999900   -1    0    0    0    0 -0.00000000000E+00 -0.00000000000E+00 -0.74505805969E-08  0.93827000000E+00  0.93827000000E+00 0. -1.
     999902    2    1    2    0    0  0.39769161228E-02  0.10322991529E-01  0.20812985956E-01  0.10203596712E+01  0.10200873973E+01 0.  0.
     999903    2    3    3    0    0 -0.25581423453E-02 -0.11534999324E+00  0.57939053924E-01  0.13063232474E+00  0.19892341879E-01 0.  0.
         14    1    1    2    0    0 -0.39769161228E-02 -0.10322991529E-01 -0.20812985956E-01  0.23570328813E-01  0.00000000000E+00 0.  1.
     999901    1    3    3    0    0  0.65350584681E-02  0.12567298477E+00 -0.37126067967E-01  0.88972734645E+00  0.88000000000E+00 0. -1.
        -11    1    4    4    0    0 -0.27962729801E-02 -0.36183158307E-01  0.84407096442E-02  0.37263209577E-01  0.51100000000E-03 0. -1.
         11    1    4    4    0    0  0.23813063478E-03 -0.79166834931E-01  0.49498344280E-01  0.93369115165E-01  0.51100000000E-03 0.  1.
</event>
<event>
 8    1  0.1063984E+005  0.1043930E+01  0.7957747E-01            NaN
         13   -1    0    0    0    0  0.00000000000E+00  0.00000000000E+00  0.74505805969E-08  0.10566000000E+00  0.10566000000E+00 0.  1.
     999900   -1    0    0    0    0 -0.00000000000E+00 -0.00000000000E+00 -0.74505805969E-08  0.93827000000E+00  0.93827000000E+00 0.  1.
     999902    2    1    2    0    0 -0.19183310842E-02  0.13438351417E-01 -0.16813947568E-01  0.10223203236E+01  0.10220919068E+01 0.  0.
     999903    2    3    3    0    0  0.11661944021E-01  0.11173308060E+00 -0.72023543593E-01  0.13502421901E+00  0.20588022010E-01 0.  0.
         14    1    1    2    0    0  0.19183310842E-02 -0.13438351417E-01  0.16813947568E-01  0.21609676438E-01  0.00000000000E+00 0.  1.
     999901    1    3    3    0    0 -0.13580275105E-01 -0.98294729179E-01  0.55209596025E-01  0.88729610455E+00  0.88000000000E+00 0. -1.
        -11    1    4    4    0    0  0.11652706143E-01  0.10171998881E+00 -0.57655609480E-01  0.11750392381E+00  0.51100000000E-03 0.  1.
         11    1    4    4    0    0  0.92378778779E-05  0.10013091783E-01 -0.14367934113E-01  0.17520295205E-01  0.51100000000E-03 0. -1.
</event>
<event>
 8    1  0.1063984E+005  0.1043930E+01  0.7957747E-01            NaN
         13   -1    0    0    0    0  0.00000000000E+00  0.00000000000E+00  0.74505805969E-08  0.10566000000E+00  0.10566000000E+00 0. -1.
     999900   -1    0    0    0    0 -0.00000000000E+00 -0.00000000000E+00 -0.74505805969E-08  0.93827000000E+00  0.93827000000E+00 0. -1.
     999902    2    1    2    0    0  0.38487732842E-02 -0.21334945931E-01  0.10475212617E-01  0.10198525613E+01  0.10195683027E+01 0.  0.
     999903    2    3    3    0    0  0.87979935581E-01  0.87367147239E-01 -0.26789571387E-01  0.12840269641E+00  0.19901854927E-01 0.  0.
         14    1    1    2    0    0 -0.38487732842E-02  0.21334945931E-01 -0.10475212617E-01  0.24077438673E-01  0.00000000000E+00 0. -1.
     999901    1    3    3    0    0 -0.84131162297E-01 -0.10870209317E+00  0.37264784004E-01  0.89144986491E+00  0.88000000000E+00 0. -1.
        -11    1    4    4    0    0  0.16493605553E-01  0.20838746084E-01  0.18183239161E-02  0.26643193978E-01  0.51100000000E-03 0. -1.
         11    1    4    4    0    0  0.71486330028E-01  0.66528401155E-01 -0.28607895304E-01  0.10175950243E+00  0.51100000000E-03 0.  1.
</event>
<event>
 8    1  0.1063984E+005  0.1043930E+01  0.7957747E-01            NaN
         13   -1    0    0    0    0  0.00000000000E+00  0.00000000000E+00  0.74505805969E-08  0.10566000000E+00  0.10566000000E+00 0.  1.
     999900   -1    0    0    0    0 -0.00000000000E+00 -0.00000000000E+00 -0.74505805969E-08  0.93827000000E+00  0.93827000000E+00 0.  1.
     999902    2    1    2    0    0  0.11101584760E-01 -0.10756466557E-01  0.18019048867E-01  0.10201890464E+01  0.10199127695E+01 0.  0.
     999903    2    3    3    0    0 -0.10542370228E+00 -0.31934623142E-01 -0.63035518162E-01  0.12856328426E+00  0.20519852617E-01 0.  0.
         14    1    1    2    0    0 -0.11101584760E-01  0.10756466557E-01 -0.18019048867E-01  0.23740953626E-01  0.00000000000E+00 0. -1.
     999901    1    3    3    0    0  0.11652528704E+00  0.21178156585E-01  0.81054567029E-01  0.89162576212E+00  0.88000000000E+00 0. -1.
        -11    1    4    4    0    0 -0.69238718203E-01 -0.26641006158E-01 -0.32827245871E-01  0.81127261140E-01  0.51100000000E-03 0.  1.
         11    1    4    4    0    0 -0.36184984076E-01 -0.52936169836E-02 -0.30208272291E-01  0.47436023117E-01  0.51100000000E-03 0. -1.
</event>
<event>
 8    1  0.1063984E+005  0.1043930E+01  0.7957747E-01            NaN
         13   -1    0    0    0    0  0.00000000000E+00  0.00000000000E+00  0.74505805969E-08  0.10566000000E+00  0.10566000000E+00 0. -1.
     999900   -1    0    0    0    0 -0.00000000000E+00 -0.00000000000E+00 -0.74505805969E-08  0.93827000000E+00  0.93827000000E+00 0.  1.
     999902    2    1    2    0    0 -0.16761570595E-01  0.79298560299E-02 -0.11789080481E-01  0.10219569419E+01  0.10217206936E+01 0.  0.
     999903    2    3    3    0    0 -0.11114070893E+00  0.61354287918E-01  0.37142740748E-01  0.13395023310E+00  0.21129977065E-01 0.  0.
         14    1    1    2    0    0  0.16761570595E-01 -0.79298560299E-02  0.11789080481E-01  0.21973058141E-01  0.00000000000E+00 0. -1.
     999901    1    3    3    0    0  0.94379138331E-01 -0.53424431888E-01 -0.48931821229E-01  0.88800670876E+00  0.88000000000E+00 0. -1.
        -11    1    4    4    0    0 -0.88006868782E-01  0.45671554090E-01  0.37464752835E-01  0.10599513494E+00  0.51100000000E-03 0. -1.
         11    1    4    4    0    0 -0.23133840143E-01  0.15682733828E-01 -0.32201208703E-03  0.27955098155E-01  0.51100000000E-03 0.  1.
</event>
<event>
 8    1  0.1063984E+005  0.1043930E+01  0.7957747E-01            NaN
         13   -1    0    0    0    0  0.00000000000E+00  0.00000000000E+00  0.74505805969E-08  0.10566000000E+00  0.10566000000E+00 0.  1.
     999900   -1    0    0    0    0 -0.00000000000E+00 -0.00000000000E+00 -0.74505805969E-08  0.93827000000E+00  0.93827000000E+00 0. -1.
     999902    2    1    2    0    0  0.17599958310E-01 -0.29206203576E-02 -0.16515876384E-01  0.10196182183E+01  0.10193283320E+01 0.  0.
     999903    2    3    3    0    0 -0.44914553531E-01  0.10389063704E+00 -0.60079444784E-01  0.12989101665E+00  0.21249822065E-01 0.  0.
         14    1    1    2    0    0 -0.17599958310E-01  0.29206203576E-02  0.16515876384E-01  0.24311781681E-01  0.00000000000E+00 0.  1.
     999901    1    3    3    0    0  0.62514511841E-01 -0.10681125740E+00  0.43563568401E-01  0.88972720167E+00  0.88000000000E+00 0. -1.
        -11    1    4    4    0    0 -0.64722274684E-02  0.37646625120E-01 -0.15173571753E-01  0.41105431662E-01  0.51100000000E-03 0. -1.
         11    1    4    4    0    0 -0.38442326063E-01  0.66244011918E-01 -0.44905873031E-01  0.88785584989E-01  0.51100000000E-03 0.  1.
</event>
<event>
 8    1  0.1063984E+005  0.1043930E+01  0.7957747E-01            NaN
         13   -1    0    0    0    0  0.00000000000E+00  0.00000000000E+00  0.74505805969E-08  0.10566000000E+00  0.10566000000E+00 0. -1.
     999900   -1    0    0    0    0 -0.00000000000E+00 -0.00000000000E+00 -0.74505805969E-08  0.93827000000E+00  0.93827000000E+00 0. -1.
     999902    2    1    2    0    0  0.33613358524E-02  0.22785127016E-01 -0.46047249302E-02  0.10204424696E+01  0.10201721275E+01 0.  0.
     999903    2    3    3    0    0  0.22882521378E-01 -0.23579384507E-02  0.12653852174E+00  0.13015498707E+00  0.19978826757E-01 0.  0.
         14    1    1    2    0    0 -0.33613358524E-02 -0.22785127016E-01  0.46047249302E-02  0.23487530384E-01  0.00000000000E+00 0. -1.
     999901    1    3    3    0    0 -0.19521185525E-01  0.25143065467E-01 -0.13114324667E+00  0.89028748254E+00  0.88000000000E+00 0. -1.
        -11    1    4    4    0    0  0.17006519099E-01 -0.55195581703E-02  0.11779008448E+00  0.11914047313E+00  0.51100000000E-03 0. -1.
         11    1    4    4    0    0  0.58760022789E-02  0.31616197196E-02  0.87484372547E-02  0.11014513944E-01  0.51100000000E-03 0.  1.
</event>
<event>
 8    1  0.1063984E+005  0.1043930E+01  0.7957747E-01            NaN
         13   -1    0    0    0    0  0.00000000000E+00  0.00000000000E+00  0.74505805969E-08  0.10566000000E+00  0.10566000000E+00 0.  1.
     999900   -1    0    0    0    0 -0.00000000000E+00 -0.00000000000E+00 -0.74505805969E-08  0.93827000000E+00  0.93827000000E+00 0.  1.
     999902    2    1    2    0    0  0.12888472708E-01 -0.47280223567E-02  0.28689193548E-01  0.10121253345E+01  0.10116255018E+01 0.  0.
     999903    2    3    3    0    0 -0.88495326033E-01  0.76055791752E-01 -0.25010978090E-01  0.12100895165E+00  0.20042733475E-01 0.  0.
         14    1    1    2    0    0 -0.12888472708E-01  0.47280223567E-02 -0.28689193548E-01  0.31804665547E-01  0.00000000000E+00 0. -1.
     999901    1    3    3    0    0  0.10138379874E+00 -0.80783814109E-01  0.53700171638E-01  0.89111638280E+00  0.88000000000E+00 0.  1.
        -11    1    4    4    0    0 -0.39306245444E-01  0.46963052748E-01 -0.13260215198E-01  0.62662617902E-01  0.51100000000E-03 0.  1.
         11    1    4    4    0    0 -0.49189080589E-01  0.29092739004E-01 -0.11750762893E-01  0.58346333746E-01  0.51100000000E-03 0. -1.
</event>
<event>
 8    1  0.1063984E+005  0.1043930E+01  0.7957747E-01            NaN
         13   -1    0    0    0    0  0.00000000000E+00  0.00000000000E+00  0.74505805969E-08  0.10566000000E+00  0.10566000000E+00 0. -1.
     999900   -1    0    0    0    0 -0.00000000000E+00 -0.00000000000E+00 -0.74505805969E-08  0.93827000000E+00  0.93827000000E+00 0. -1.
     999902    2    1    2    0    0 -0.12424976573E-01  0.30925458568E-02  0.19050434864E-01  0.10209765046E+01  0.10207184528E+01 0.  0.
     999903    2    3    3    0    0 -0.81973231553E-01 -0.68478348383E-01  0.77257935968E-01  0.13342511687E+00  0.20605296722E-01 0.  0.
         14    1    1    2    0    0  0.12424976573E-01 -0.30925458568E-02 -0.19050434864E-01  0.22953495403E-01  0.00000000000E+00 0.  1.
     999901    1    3    3    0    0  0.69548254981E-01  0.71570894240E-01 -0.58207501103E-01  0.88755138773E+00  0.88000000000E+00 0. -1.
        -11    1    4    4    0    0 -0.38067640762E-01 -0.21351712110E-01  0.38828046946E-01  0.58420195428E-01  0.51100000000E-03 0. -1.
         11    1    4    4    0    0 -0.43905590791E-01 -0.47126636273E-01  0.38429889022E-01  0.75004921441E-01  0.51100000000E-03 0.  1.
</event>
<event>
 8    1  0.1063984E+005  0.1043930E+01  0.7957747E-01            NaN
         13   -1    0    0    0    0  0.00000000000E+00  0.00000000000E+00  0.74505805969E-08  0.10566000000E+00  0.10566000000E+00 0.  1.
     999900   -1    0    0    0    0 -0.00000000000E+00 -0.00000000000E+00 -0.74505805969E-08  0.93827000000E+00  0.93827000000E+00 0.  1.
     999902    2    1    2    0    0 -0.76736899800E-02  0.48114708637E-02  0.21967018053E-01  0.10201689888E+01  0.10198922395E+01 0.  0.
     999903    2    3    3    0    0  0.90256570077E-01  0.47843532024E-01  0.80829786639E-01  0.13173952081E+00  0.19662017588E-01 0.  0.
         14    1    1    2    0    0  0.76736899800E-02 -0.48114708637E-02 -0.21967018053E-01  0.23761011172E-01  0.00000000000E+00 0. -1.
     999901    1    3    3    0    0 -0.97930260057E-01 -0.43032061161E-01 -0.58862768586E-01  0.88842946802E+00  0.88000000000E+00 0. -1.
        -11    1    4    4    0    0  0.55620782826E-01  0.39133739021E-01  0.57677563298E-01  0.89174455092E-01  0.51100000000E-03 0. -1.
         11    1    4    4    0    0  0.34635787252E-01  0.87097930033E-02  0.23152223341E-01  0.42565065715E-01  0.51100000000E-03 0.  1.
</event>
<event>
 8    1  0.1063984E+005  0.1043930E+01  0.7957747E-01            NaN
         13   -1    0    0    0    0  0.00000000000E+00  0.00000000000E+00  0.74505805969E-08  0.10566000000E+00  0.10566000000E+00 0. -1.
     999900   -1    0    0    0    0 -0.00000000000E+00 -0.00000000000E+00 -0.74505805969E-08  0.93827000000E+00  0.93827000000E+00 0. -1.
     999902    2    1    2    0    0  0.22714304770E-01 -0.43723030402E-02 -0.97654984409E-02  0.10188218014E+01  0.10185123669E+01 0.  0.
     999903    2    3    3    0    0  0.70547842799E-01  0.10533776402E+00  0.10012621158E-01  0.13050005782E+00  0.29274047475E-01 0.  0.
         14    1    1    2    0    0 -0.22714304770E-01  0.43723030402E-02  0.97654984409E-02  0.25108198559E-01  0.00000000000E+00 0. -1.
     999901    1    3    3    0    0 -0.47833538028E-01 -0.10971006706E+00 -0.19778119598E-01  0.88832174362E+00  0.88000000000E+00 0. -1.
        -11    1    4    4    0    0  0.42107643389E-01  0.80947830661E-01 -0.16380330601E-02  0.91260885344E-01  0.51100000000E-03 0.  1.
         11    1    4    4    0    0  0.28440199410E-01  0.24389933363E-01  0.11650654218E-01  0.39239172476E-01  0.51100000000E-03 0. -1.
</event>
<event>
 8    1  0.1063984E+005  0.1043930E+01  0.7957747E-01            NaN
         13   -1    0    0    0    0  0.00000000000E+00  0.00000000000E+00  0.74505805969E-08  0.10566000000E+00  0.10566000000E+00 0.  1.
     999900   -1    0    0    0    0 -0.00000000000E+00 -0.00000000000E+00 -0.74505805969E-08  0.93827000000E+00  0.93827000000E+00 0.  1.
     999902    2    1    2    0    0 -0.77698443652E-02 -0.84359656720E-02  0.20660352013E-01  0.10202998044E+01  0.10200261294E+01 0.  0.
     999903    2    3    3    0    0 -0.11448842125E+00  0.28203130372E-02  0.63701914177E-01  0.13273677311E+00  0.21108394061E-01 0.  0.
         14    1    1    2    0    0  0.77698443652E-02  0.84359656720E-02 -0.20660352013E-01  0.23630195589E-01  0.00000000000E+00 0. -1.
     999901    1    3    3    0    0  0.10671857688E+00 -0.11256278709E-01 -0.43041562163E-01  0.88756303130E+00  0.88000000000E+00 0.  1.
        -11    1    4    4    0    0 -0.22727035395E-01  0.16257868217E-02  0.22887203867E-01  0.32299327276E-01  0.51100000000E-03 0.  1.
         11    1    4    4    0    0 -0.91761385853E-01  0.11945262154E-02  0.40814710309E-01  0.10043744583E+00  0.51100000000E-03 0. -1.
</event>
<event>
 8    1  0.1063984E+005  0.1043930E+01  0.7957747E-01            NaN
         13   -1    0    0    0    0  0.00000000000E+00  0.00000000000E+00  0.74505805969E-08  0.10566000000E+00  0.10566000000E+00 0.  1.
     999900   -1    0    0    0    0 -0.00000000000E+00 -0.00000000000E+00 -0.74505805969E-08  0.93827000000E+00  0.93827000000E+00 0. -1.
     999902    2    1    2    0    0 -0.10053590347E-01  0.12799293037E-01 -0.17122832211E-01  0.10203061145E+01  0.10200325874E+01 0.  0.
     999903    2    3    3    0    0  0.98172007953E-01 -0.80599740610E-01 -0.32837542186E-02  0.12866286767E+00  0.20230895774E-01 0.  0.
         14    1    1    2    0    0  0.10053590347E-01 -0.12799293037E-01  0.17122832211E-01  0.23623885456E-01  0.00000000000E+00 0. -1.
     999901    1    3    3    0    0 -0.10822559830E+00  0.93399033647E-01 -0.13839077993E-01  0.89164324687E+00  0.88000000000E+00 0. -1.
        -11    1    4    4    0    0  0.79768301061E-01 -0.72737470383E-01 -0.74655855549E-02  0.10821144829E+00  0.51100000000E-03 0. -1.
         11    1    4    4    0    0  0.18403706892E-01 -0.78622702266E-02  0.41818313364E-02  0.20451419383E-01  0.51100000000E-03 0.  1.
</event>
<event>
 8    1  0.1246417E+005  0.1043930E+01  0.7957747E-01            NaN
         13   -1    0    0    0    0  0.00000000000E+00  0.00000000000E+00  0.74505805969E-08  0.10566000000E+00  0.10566000000E+00 0. -1.
     999900   -1    0    0    0    0 -0.00000000000E+00 -0.00000000000E+00 -0.74505805969E-08  0.93827000000E+00  0.93827000000E+00 0. -1.
     999902    2    1    2    0    0 -0.30671626872E-01 -0.18684561230E-01 -0.10005517001E-01  0.10066476732E+01  0.10059570398E+01 0.  0.
     999903    2    3    3    0    0 -0.37851772054E-01 -0.70271108565E-01  0.86860040311E-01  0.11980176629E+00  0.20904814227E-01 0.  0.
         14    1    1    2    0    0  0.30671626872E-01  0.18684561230E-01  0.10005517001E-01  0.37282326828E-01  0.00000000000E+00 0. -1.
     999901    1    3    3    0    0  0.71801451827E-02  0.51586547336E-01 -0.96865557311E-01  0.88684590688E+00  0.88000000000E+00 0. -1.
        -11    1    4    4    0    0 -0.31175563416E-01 -0.36880019135E-01  0.47242565504E-01  0.67558661045E-01  0.51100000000E-03 0. -1.
         11    1    4    4    0    0 -0.66762086381E-02 -0.33391089430E-01  0.39617474807E-01  0.52243105250E-01  0.51100000000E-03 0.  1.
</event>
<event>
 8    1  0.1063984E+005  0.1043930E+01  0.7957747E-01            NaN
         13   -1    0    0    0    0  0.00000000000E+00  0.00000000000E+00  0.74505805969E-08  0.10566000000E+00  0.10566000000E+00 0.  1.
     999900   -1    0    0    0    0 -0.00000000000E+00 -0.00000000000E+00 -0.74505805969E-08  0.93827000000E+00  0.93827000000E+00 0.  1.
     999902    2    1    2    0    0 -0.25544263383E-02  0.15163107545E-01 -0.16443878384E-01  0.10214167581E+01  0.10211686186E+01 0.  0.
     999903    2    3    3    0    0 -0.38613360737E-01  0.79332608794E-01  0.95206673080E-01  0.13131349596E+00  0.19856212539E-01 0.  0.
         14    1    1    2    0    0  0.25544263383E-02 -0.15163107545E-01  0.16443878384E-01  0.22513241896E-01  0.00000000000E+00 0.  1.
     999901    1    3    3    0    0  0.36058934398E-01 -0.64169501248E-01 -0.11165055146E+00  0.89010326215E+00  0.88000000000E+00 0.  1.
        -11    1    4    4    0    0 -0.43968147541E-02  0.28492472032E-01  0.35725465750E-01  0.45909944092E-01  0.51100000000E-03 0. -1.
         11    1    4    4    0    0 -0.34216545983E-01  0.50840136762E-01  0.59481207331E-01  0.85403551867E-01  0.51100000000E-03 0.  1.
</event>
<event>
 8    1  0.1063984E+005  0.1043930E+01  0.7957747E-01            NaN
         13   -1    0    0    0    0  0.00000000000E+00  0.00000000000E+00  0.74505805969E-08  0.10566000000E+00  0.10566000000E+00 0. -1.
     999900   -1    0    0    0    0 -0.00000000000E+00 -0.00000000000E+00 -0.74505805969E-08  0.93827000000E+00  0.93827000000E+00 0.  1.
     999902    2    1    2    0    0  0.19278453580E-01  0.68831211676E-02  0.10840606448E-01  0.10207663458E+01  0.10205034923E+01 0.  0.
     999903    2    3    3    0    0 -0.93115550168E-01  0.65480408364E-01 -0.57201921860E-01  0.12908487808E+00  0.20800392372E-01 0.  0.
         14    1    1    2    0    0 -0.19278453580E-01 -0.68831211676E-02 -0.10840606448E-01  0.23163654237E-01  0.00000000000E+00 0.  1.
     999901    1    3    3    0    0  0.11239400375E+00 -0.58597287196E-01  0.68042528308E-01  0.89168146768E+00  0.88000000000E+00 0.  1.
        -11    1    4    4    0    0 -0.42107969862E-01  0.41735225254E-01 -0.32779752311E-01  0.67747202418E-01  0.51100000000E-03 0.  1.
         11    1    4    4    0    0 -0.51007580306E-01  0.23745183110E-01 -0.24422169549E-01  0.61337675665E-01  0.51100000000E-03 0. -1.
</event>
<event>
 8    1  0.1063984E+005  0.1043930E+01  0.7957747E-01            NaN
         13   -1    0    0    0    0  0.00000000000E+00  0.00000000000E+00  0.74505805969E-08  0.10566000000E+00  0.10566000000E+00 0. -1.
     999900   -1    0    0    0    0 -0.00000000000E+00 -0.00000000000E+00 -0.74505805969E-08  0.93827000000E+00  0.93827000000E+00 0.  1.
     999902    2    1    2    0    0 -0.19978817952E-01 -0.12513988469E-01  0.12119530514E-01  0.10174227162E+01  0.10170773556E+01 0.  0.
     999903    2    3    3    0    0 -0.31371912533E-01 -0.47785539695E-01  0.11575141283E+00  0.13056677979E+00  0.19535601145E-01 0.  0.
         14    1    1    2    0    0  0.19978817952E-01  0.12513988469E-01 -0.12119530514E-01  0.26507283792E-01  0.00000000000E+00 0.  1.
     999901    1    3    3    0    0  0.11393094581E-01  0.35271551226E-01 -0.10363188232E+00  0.88685593642E+00  0.88000000000E+00 0.  1.
        -11    1    4    4    0    0 -0.17167139633E-01 -0.33795307066E-01  0.56418796353E-01  0.67971870401E-01  0.51100000000E-03 0. -1.
         11    1    4    4    0    0 -0.14204772900E-01 -0.13990232629E-01  0.59332616478E-01  0.62594909387E-01  0.51100000000E-03 0.  1.
</event>
<event>
 8    1  0.1063984E+005  0.1043930E+01  0.7957747E-01            NaN
         13   -1    0    0    0    0  0.00000000000E+00  0.00000000000E+00  0.74505805969E-08  0.10566000000E+00  0.10566000000E+00 0. -1.
     999900   -1    0    0    0    0 -0.00000000000E+00 -0.00000000000E+00 -0.74505805969E-08  0.93827000000E+00  0.93827000000E+00 0. -1.
     999902    2    1    2    0    0 -0.10145995449E-01 -0.20552732506E-01 -0.24339383692E-02  0.10208804861E+01  0.10206202461E+01 0.  0.
     999903    2    3    3    0    0 -0.56102088803E-01  0.11421449712E+00 -0.14097568368E-01  0.12935919693E+00  0.18511204056E-01 0.  0.
         14    1    1    2    0    0  0.10145995449E-01  0.20552732506E-01  0.24339383692E-02  0.23049513945E-01  0.00000000000E+00 0. -1.
     999901    1    3    3    0    0  0.45956093353E-01 -0.13476722963E+00  0.11663629999E-01  0.89152128912E+00  0.88000000000E+00 0.  1.
        -11    1    4    4    0    0 -0.15351577698E-01  0.51935450400E-01 -0.56430598104E-02  0.54452430534E-01  0.51100000000E-03 0.  1.
         11    1    4    4    0    0 -0.40750511105E-01  0.62279046723E-01 -0.84545085576E-02  0.74906766396E-01  0.51100000000E-03 0. -1.
</event>
<event>
 8    1  0.1063984E+005  0.1043930E+01  0.7957747E-01            NaN
         13   -1    0    0    0    0  0.00000000000E+00  0.00000000000E+00  0.74505805969E-08  0.10566000000E+00  0.10566000000E+00 0. -1.
     999900   -1    0    0    0    0 -0.00000000000E+00 -0.00000000000E+00 -0.74505805969E-08  0.93827000000E+00  0.93827000000E+00 0.  1.
     999902    2    1    2    0    0  0.36215890713E-02 -0.12042532227E-01  0.20103332621E-01  0.10202175039E+01  0.10199418968E+01 0.  0.
     999903    2    3    3    0    0 -0.39902151616E-01 -0.20910307829E-01  0.12302457521E+00  0.13310661136E+00  0.23513851337E-01 0.  0.
         14    1    1    2    0    0 -0.36215890713E-02  0.12042532227E-01 -0.20103332621E-01  0.23712496121E-01  0.00000000000E+00 0.  1.
     999901    1    3    3    0    0  0.43523740688E-01  0.88677756018E-02 -0.10292124259E+00  0.88711089252E+00  0.88000000000E+00 0.  1.
        -11    1    4    4    0    0 -0.37984113408E-01 -0.12015018805E-01  0.11155707298E+00  0.11845841127E+00  0.51100000000E-03 0. -1.
         11    1    4    4    0    0 -0.19180382081E-02 -0.88952890242E-02  0.11467502232E-01  0.14648200089E-01  0.51100000000E-03 0.  1.
</event>
<event>
 8    1  0.1063984E+005  0.1043930E+01  0.7957747E-01            NaN
         13   -1    0    0    0    0  0.00000000000E+00  0.00000000000E+00  0.74505805969E-08  0.10566000000E+00  0.10566000000E+00 0. -1.
     999900   -1    0    0    0    0 -0.00000000000E+00 -0.00000000000E+00 -0.74505805969E-08  0.93827000000E+00  0.93827000000E+00 0. -1.
     999902    2    1    2    0    0  0.15687872201E-01  0.12632356598E-01  0.14146350293E-01  0.10193168939E+01  0.10190196883E+01 0.  0.
     999903    2    3    3    0    0 -0.26011555528E-01  0.51377208240E-01 -0.11300240680E+00  0.12835852657E+00  0.19752186049E-01 0.  0.
         14    1    1    2    0    0 -0.15687872201E-01 -0.12632356598E-01 -0.14146350293E-01  0.24613106143E-01  0.00000000000E+00 0.  1.
     999901    1    3    3    0    0  0.41699427728E-01 -0.38744851642E-01  0.12714875709E+00  0.89095836728E+00  0.88000000000E+00 0.  1.
        -11    1    4    4    0    0 -0.19755559255E-01  0.19270806519E-01 -0.60478959919E-01  0.66480161095E-01  0.51100000000E-03 0. -1.
         11    1    4    4    0    0 -0.62559962726E-02  0.32106401722E-01 -0.52523446882E-01  0.61878365478E-01  0.51100000000E-03 0.  1.
</event>
<event>
 8    1  0.1063984E+005  0.1043930E+01  0.7957747E-01            NaN
         13   -1    0    0    0    0  0.00000000000E+00  0.00000000000E+00  0.74505805969E-08  0.10566000000E+00  0.10566000000E+00 0.  1.
     999900   -1    0    0    0    0 -0.00000000000E+00 -0.00000000000E+00 -0.74505805969E-08  0.93827000000E+00  0.93827000000E+00 0.  1.
     999902    2    1    2    0    0  0.23395509227E-02  0.24830715442E-01 -0.44915956203E-03  0.10189852676E+01  0.10186798987E+01 0.  0.
     999903    2    3    3    0    0  0.11692926711E+00 -0.33454813896E-01 -0.37628791598E-01  0.12886711199E+00  0.19978201060E-01 0.  0.
         14    1    1    2    0    0 -0.23395509227E-02 -0.24830715442E-01  0.44915956203E-03  0.24944732353E-01  0.00000000000E+00 0. -1.
     999901    1    3    3    0    0 -0.11458971618E+00  0.58285529337E-01  0.37179632036E-01  0.89011815565E+00  0.88000000000E+00 0. -1.
        -11    1    4    4    0    0  0.69373585991E-01 -0.22167953930E-01 -0.12463237626E-01  0.73889823574E-01  0.51100000000E-03 0. -1.
         11    1    4    4    0    0  0.47555681116E-01 -0.11286859966E-01 -0.25165553972E-01  0.54977288420E-01  0.51100000000E-03 0.  1.
</event>
<event>
 8    1  0.1063984E+005  0.1043930E+01  0.7957747E-01            NaN
         13   -1    0    0    0    0  0.00000000000E+00  0.00000000000E+00  0.74505805969E-08  0.10566000000E+00  0.10566000000E+00 0. -1.
     999900   -1    0    0    0    0 -0.00000000000E+00 -0.00000000000E+00 -0.74505805969E-08  0.93827000000E+00  0.93827000000E+00 0. -1.
     999902    2    1    2    0    0  0.11456425711E-01 -0.16894354822E-01  0.96593809844E-02  0.10213474280E+01  0.10210977408E+01 0.  0.
     999903    2    3    3    0    0 -0.13425954625E-01 -0.10997667978E-01 -0.12726798388E+00  0.13039119623E+00  0.22439237424E-01 0.  0.
         14    1    1    2    0    0 -0.11456425711E-01  0.16894354822E-01 -0.96593809844E-02  0.22582571951E-01  0.00000000000E+00 0.  1.
     999901    1    3    3    0    0  0.24882380337E-01 -0.58966868436E-02  0.13692736486E+00  0.89095623182E+00  0.88000000000E+00 0.  1.
        -11    1    4    4    0    0 -0.47915364531E-02 -0.29415894828E-02 -0.10524800424E+00  0.10539931351E+00  0.51100000000E-03 0.  1.
         11    1    4    4    0    0 -0.86344181722E-02 -0.80560784956E-02 -0.22019979633E-01  0.24991882721E-01  0.51100000000E-03 0. -1.
</event>
<event>
 8    1  0.1063984E+005  0.1043930E+01  0.7957747E-01            NaN
         13   -1    0    0    0    0  0.00000000000E+00  0.00000000000E+00  0.74505805969E-08  0.10566000000E+00  0.10566000000E+00 0. -1.
     999900   -1    0    0    0    0 -0.00000000000E+00 -0.00000000000E+00 -0.74505805969E-08  0.93827000000E+00  0.93827000000E+00 0.  1.
     999902    2    1    2    0    0 -0.18520802291E-01 -0.13865459195E-01 -0.42015859850E-02  0.10204156554E+01  0.10201446885E+01 0.  0.
     999903    2    3    3    0    0  0.68035893490E-01 -0.49356050758E-04  0.10750975317E+00  0.12903337515E+00  0.21503014565E-01 0.  0.
         14    1    1    2    0    0  0.18520802291E-01  0.13865459195E-01  0.42015859850E-02  0.23514344579E-01  0.00000000000E+00 0. -1.
     999901    1    3    3    0    0 -0.86556695782E-01 -0.13816103144E-01 -0.11171133916E+00  0.89138228027E+00  0.88000000000E+00 0.  1.
        -11    1    4    4    0    0  0.59249762129E-01 -0.52795567624E-02  0.80093029321E-01  0.99767542311E-01  0.51100000000E-03 0.  1.
         11    1    4    4    0    0  0.87861313609E-02  0.52302007117E-02  0.27416723852E-01  0.29265832835E-01  0.51100000000E-03 0. -1.
</event>
<event>
 7    1  0.1063984E+005  0.1043930E+01  0.7957747E-01            NaN
         13   -1    0    0    0    0  0.00000000000E+00  0.00000000000E+00  0.74505805969E-08  0.10566000000E+00  0.10566000000E+00 0. -1.
     999900   -1    0    0    0    0 -0.00000000000E+00 -0.00000000000E+00 -0.74505805969E-08  0.93827000000E+00  0.93827000000E+00 0. -1.
     999903    2    1    2    0    0 -0.50574218390E-02  0.26293378012E-01 -0.40399040011E-01  0.52496363361E-01  0.20170931792E-01 0.  0.
         14    1    1    2    0    0 -0.71744707648E-01 -0.28595045844E-01  0.74661627389E-01  0.10742131226E+00  0.00000000000E+00 0. -1.
     999901    1    1    2    0    0  0.76802129487E-01  0.23016678319E-02 -0.34262587378E-01  0.88401232438E+00  0.88000000000E+00 0.  1.
        -11    1    3    3    0    0  0.41283559811E-02  0.63910600433E-02 -0.13952272204E-02  0.77522094644E-02  0.51100000000E-03 0. -1.
         11    1    3    3    0    0 -0.91857778201E-02  0.19902317969E-01 -0.39003812791E-01  0.44744153896E-01  0.51100000000E-03 0.  1.
</event>
<event>
 8    1  0.1063984E+005  0.1043930E+01  0.7957747E-01            NaN
         13   -1    0    0    0    0  0.00000000000E+00  0.00000000000E+00  0.74505805969E-08  0.10566000000E+00  0.10566000000E+00 0.  1.
     999900   -1    0    0    0    0 -0.00000000000E+00 -0.00000000000E+00 -0.74505805969E-08  0.93827000000E+00  0.93827000000E+00 0. -1.
     999902    2    1    2    0    0  0.11251824625E-01 -0.11207630718E-01  0.17683557264E-01  0.10201618966E+01  0.10198849800E+01 0.  0.
     999903    2    3    3    0    0  0.80311054463E-01  0.32212050013E-01  0.98811994251E-01  0.13267315343E+00  0.18731625586E-01 0.  0.
         14    1    1    2    0    0 -0.11251824625E-01  0.11207630718E-01 -0.17683557264E-01  0.23768103441E-01  0.00000000000E+00 0. -1.
     999901    1    3    3    0    0 -0.69059229838E-01 -0.43419680730E-01 -0.81128436987E-01  0.88748874313E+00  0.88000000000E+00 0. -1.
        -11    1    4    4    0    0  0.47622800077E-01  0.16299069618E-01  0.43767298349E-01  0.66704034986E-01  0.51100000000E-03 0.  1.
         11    1    4    4    0    0  0.32688254386E-01  0.15912980394E-01  0.55044695901E-01  0.65969118439E-01  0.51100000000E-03 0. -1.
</event>
<event>
 8    1  0.1063984E+005  0.1043930E+01  0.7957747E-01            NaN
         13   -1    0    0    0    0  0.00000000000E+00  0.00000000000E+00  0.74505805969E-08  0.10566000000E+00  0.10566000000E+00 0. -1.
     999900   -1    0    0    0    0 -0.00000000000E+00 -0.00000000000E+00 -0.74505805969E-08  0.93827000000E+00  0.93827000000E+00 0. -1.
     999902    2    1    2    0    0  0.70370477610E-02 -0.21954821325E-01  0.17413148527E-02  0.10208093080E+01  0.10205474398E+01 0.  0.
     999903    2    3    3    0    0  0.92072304830E-01  0.86961603377E-01  0.20158598747E-01  0.12983625631E+00  0.20284342985E-01 0.  0.
         14    1    1    2    0    0 -0.70370477610E-02  0.21954821325E-01 -0.17413148527E-02  0.23120691988E-01  0.00000000000E+00 0.  1.
     999901    1    3    3    0    0 -0.85035257069E-01 -0.10891642470E+00 -0.18417283894E-01  0.89097305170E+00  0.88000000000E+00 0. -1.
        -11    1    4    4    0    0  0.36848857514E-01  0.31611859959E-01 -0.19165530783E-02  0.48590969190E-01  0.51100000000E-03 0. -1.
         11    1    4    4    0    0  0.55223447315E-01  0.55349743418E-01  0.22075151825E-01  0.81245287118E-01  0.51100000000E-03 0.  1.
</event>
<event>
 8    1  0.1063984E+005  0.1043930E+01  0.7957747E-01            NaN
         13   -1    0    0    0    0  0.00000000000E+00  0.00000000000E+00  0.74505805969E-08  0.10566000000E+00  0.10566000000E+00 0.  1.
     999900   -1    0    0    0    0 -0.00000000000E+00 -0.00000000000E+00 -0.74505805969E-08  0.93827000000E+00  0.93827000000E+00 0.  1.
     999902    2    1    2    0    0  0.14679709865E-01  0.33634270525E-02 -0.19009200527E-01  0.10196780675E+01  0.10193896238E+01 0.  0.
     999903    2    3    3    0    0 -0.69930297126E-01 -0.39691421196E-01  0.96476752048E-01  0.12706976684E+00  0.19321143502E-01 0.  0.
         14    1    1    2    0    0 -0.14679709865E-01 -0.33634270525E-02  0.19009200527E-01  0.24251932458E-01  0.00000000000E+00 0.  1.
     999901    1    3    3    0    0  0.84610006992E-01  0.43054848249E-01 -0.11548595257E+00  0.89260830070E+00  0.88000000000E+00 0.  1.
        -11    1    4    4    0    0 -0.61114483000E-01 -0.27309349044E-01  0.72511485733E-01  0.98686155370E-01  0.51100000000E-03 0. -1.
         11    1    4    4    0    0 -0.88158141261E-02 -0.12382072153E-01  0.23965266315E-01  0.28383611469E-01  0.51100000000E-03 0.  1.
</event>
<event>
 8    1  0.1063984E+005  0.1043930E+01  0.7957747E-01            NaN
         13   -1    0    0    0    0  0.00000000000E+00  0.00000000000E+00  0.74505805969E-08  0.10566000000E+00  0.10566000000E+00 0.  1.
     999900   -1    0    0    0    0 -0.00000000000E+00 -0.00000000000E+00 -0.74505805969E-08  0.93827000000E+00  0.93827000000E+00 0.  1.
     999902    2    1    2    0    0 -0.13423185252E-01  0.89684461885E-02  0.20268461460E-01  0.10180181213E+01  0.10176882970E+01 0.  0.
     999903    2    3    3    0    0 -0.11520069242E+00 -0.53960606714E-01  0.17034603810E-01  0.12991385684E+00  0.20111833866E-01 0.  0.
         14    1    1    2    0    0  0.13423185252E-01 -0.89684461885E-02 -0.20268461460E-01  0.25911878730E-01  0.00000000000E+00 0. -1.
     999901    1    3    3    0    0  0.10177750717E+00  0.62929052902E-01  0.32338576498E-02  0.88810426443E+00  0.88000000000E+00 0.  1.
        -11    1    4    4    0    0 -0.34446434134E-01 -0.12034513470E-01 -0.34223783653E-02  0.36651877628E-01  0.51100000000E-03 0. -1.
         11    1    4    4    0    0 -0.80754258285E-01 -0.41926093243E-01  0.20456982175E-01  0.93261979212E-01  0.51100000000E-03 0.  1.
</event>
<event>
 8    1  0.1063984E+005  0.1043930E+01  0.7957747E-01            NaN
         13   -1    0    0    0    0  0.00000000000E+00  0.00000000000E+00  0.74505805969E-08  0.10566000000E+00  0.10566000000E+00 0. -1.
     999900   -1    0    0    0    0 -0.00000000000E+00 -0.00000000000E+00 -0.74505805969E-08  0.93827000000E+00  0.93827000000E+00 0. -1.
     999902    2    1    2    0    0  0.41125549915E-03 -0.23032225096E-01  0.67372264729E-02  0.10199291095E+01  0.10196466769E+01 0.  0.
     999903    2    3    3    0    0  0.61012868222E-01  0.60464004994E-01  0.95251076641E-01  0.12949164535E+00  0.17800354639E-01 0.  0.
         14    1    1    2    0    0 -0.41125549915E-03  0.23032225096E-01 -0.67372264729E-02  0.24000890494E-01  0.00000000000E+00 0. -1.
     999901    1    3    3    0    0 -0.60601612722E-01 -0.83496230089E-01 -0.88513850168E-01  0.89043746416E+00  0.88000000000E+00 0. -1.
        -11    1    4    4    0    0  0.44938899023E-01  0.36079569693E-01  0.71557374391E-01  0.91880133573E-01  0.51100000000E-03 0. -1.
         11    1    4    4    0    0  0.16073969199E-01  0.24384435301E-01  0.23693702250E-01  0.37611511776E-01  0.51100000000E-03 0.  1.
</event>
<event>
 8    1  0.1063984E+005  0.1043930E+01  0.7957747E-01            NaN
         13   -1    0    0    0    0  0.00000000000E+00  0.00000000000E+00  0.74505805969E-08  0.10566000000E+00  0.10566000000E+00 0.  1.
     999900   -1    0    0    0    0 -0.00000000000E+00 -0.00000000000E+00 -0.74505805969E-08  0.93827000000E+00  0.93827000000E+00 0.  1.
     999902    2    1    2    0    0  0.19527187685E-01 -0.14209705419E-01  0.76112499010E-02  0.10186089038E+01  0.10182941329E+01 0.  0.
     999903    2    3    3    0    0 -0.10301144672E+00 -0.28467210852E-01  0.66960404452E-01  0.12802408723E+00  0.22016605068E-01 0.  0.
         14    1    1    2    0    0 -0.19527187685E-01  0.14209705419E-01 -0.76112499010E-02  0.25321096186E-01  0.00000000000E+00 0.  1.
     999901    1    3    3    0    0  0.12253863440E+00  0.14257505433E-01 -0.59349154551E-01  0.89058481658E+00  0.88000000000E+00 0.  1.
        -11    1    4    4    0    0 -0.23191601818E-01 -0.12797661079E-01  0.25293604412E-01  0.36628650932E-01  0.51100000000E-03 0.  1.
         11    1    4    4    0    0 -0.79819844899E-01 -0.15669549773E-01  0.41666800040E-01  0.91395436300E-01  0.51100000000E-03 0. -1.
</event>
<event>
 8    1  0.1063984E+005  0.1043930E+01  0.7957747E-01            NaN
         13   -1    0    0    0    0  0.00000000000E+00  0.00000000000E+00  0.74505805969E-08  0.10566000000E+00  0.10566000000E+00 0.  1.
     999900   -1    0    0    0    0 -0.00000000000E+00 -0.00000000000E+00 -0.74505805969E-08  0.93827000000E+00  0.93827000000E+00 0. -1.
     999902    2    1    2    0    0  0.13716828267E-01 -0.18181144235E-01  0.51174488097E-02  0.10205870425E+01  0.10203200565E+01 0.  0.
     999903    2    3    3    0    0  0.84618076226E-01 -0.49477189655E-01 -0.87071509990E-01  0.13238366850E+00  0.18324211149E-01 0.  0.
         14    1    1    2    0    0 -0.13716828267E-01  0.18181144235E-01 -0.51174488097E-02  0.23342957519E-01  0.00000000000E+00 0. -1.
     999901    1    3    3    0    0 -0.70901247959E-01  0.31296045419E-01  0.92188958800E-01  0.88820337398E+00  0.88000000000E+00 0.  1.
        -11    1    4    4    0    0  0.68399986120E-02 -0.10804807577E-01 -0.12731949752E-01  0.18052509888E-01  0.51100000000E-03 0. -1.
         11    1    4    4    0    0  0.77778077614E-01 -0.38672382078E-01 -0.74339560238E-01  0.11433115861E+00  0.51100000000E-03 0.  1.
</event>
<event>
 8    1  0.1063984E+005  0.1043930E+01  0.7957747E-01            NaN
         13   -1    0    0    0    0  0.00000000000E+00  0.00000000000E+00  0.74505805969E-08  0.10566000000E+00  0.10566000000E+00 0.  1.
     999900   -1    0    0    0    0 -0.00000000000E+00 -0.00000000000E+00 -0.74505805969E-08  0.93827000000E+00  0.93827000000E+00 0.  1.
     999902    2    1    2    0    0 -0.29472781800E-02  0.74284333296E-02 -0.22726543321E-01  0.10198392582E+01  0.10195546816E+01 0.  0.
     999903    2    3    3    0    0  0.88340306928E-01 -0.72984337869E-01  0.53997907779E-01  0.12816315198E+00  0.19475525099E-01 0.  0.
         14    1    1    2    0    0  0.29472781800E-02 -0.74284333296E-02  0.22726543321E-01  0.24090741826E-01  0.00000000000E+00 0.  1.
     999901    1    3    3    0    0 -0.91287585108E-01  0.80412771198E-01 -0.76724451100E-01  0.89167610620E+00  0.88000000000E+00 0.  1.
        -11    1    4    4    0    0  0.45589478841E-01 -0.29918986515E-01  0.17139228461E-01  0.57162580491E-01  0.51100000000E-03 0. -1.
         11    1    4    4    0    0  0.42750828086E-01 -0.43065351353E-01  0.36858679318E-01  0.71000571486E-01  0.51100000000E-03 0.  1.
</event>
<event>
 8    1  0.1063984E+005  0.1043930E+01  0.7957747E-01            NaN
         13   -1    0    0    0    0  0.00000000000E+00  0.00000000000E+00  0.74505805969E-08  0.10566000000E+00  0.10566000000E+00 0.  1.
     999900   -1    0    0    0    0 -0.00000000000E+00 -0.00000000000E+00 -0.74505805969E-08  0.93827000000E+00  0.93827000000E+00 0.  1.
     999902    2    1    2    0    0 -0.13564054397E-01 -0.91583878857E-02  0.13899048577E-01  0.10224580837E+01  0.10222326006E+01 0.  0.
     999903    2    3    3    0    0  0.76438374466E-01  0.78433364080E-01 -0.66909605038E-01  0.12987599179E+00  0.19906288072E-01 0.  0.
         14    1    1    2    0    0  0.13564054397E-01  0.91583878857E-02 -0.13899048577E-01  0.21471916349E-01  0.00000000000E+00 0. -1.
     999901    1    3    3    0    0 -0.90002428863E-01 -0.87591751966E-01  0.80808653615E-01  0.89258209186E+00  0.88000000000E+00 0. -1.
        -11    1    4    4    0    0  0.52086958888E-01  0.48305474686E-01 -0.53302931227E-01  0.88814040384E-01  0.51100000000E-03 0.  1.
         11    1    4    4    0    0  0.24351415577E-01  0.30127889395E-01 -0.13606673811E-01  0.41061951405E-01  0.51100000000E-03 0. -1.
</event>
<event>
 8    1  0.1063984E+005  0.1043930E+01  0.7957747E-01            NaN
         13   -1    0    0    0    0  0.00000000000E+00  0.00000000000E+00  0.74505805969E-08  0.10566000000E+00  0.10566000000E+00 0.  1.
     999900   -1    0    0    0    0 -0.00000000000E+00 -0.00000000000E+00 -0.74505805969E-08  0.93827000000E+00  0.93827000000E+00 0.  1.
     999902    2    1    2    0    0  0.15836792304E-01  0.11921083402E-01 -0.13305864149E-01  0.10200561180E+01  0.10197767019E+01 0.  0.
     999903    2    3    3    0    0  0.45111193421E-01 -0.74195608983E-02 -0.12280926695E+00  0.13257538792E+00  0.20100939668E-01 0.  0.
         14    1    1    2    0    0 -0.15836792304E-01 -0.11921083402E-01  0.13305864149E-01  0.23873881978E-01  0.00000000000E+00 0. -1.
     999901    1    3    3    0    0 -0.29274401117E-01  0.19340644300E-01  0.10950340281E+00  0.88748073011E+00  0.88000000000E+00 0. -1.
        -11    1    4    4    0    0  0.11655891991E-01  0.55741712900E-02 -0.21420706809E-01  0.25020771468E-01  0.51100000000E-03 0. -1.
         11    1    4    4    0    0  0.33455301430E-01 -0.12993732188E-01 -0.10138856015E+00  0.10755461645E+00  0.51100000000E-03 0.  1.
</event>
<event>
 8    1  0.1063984E+005  0.1043930E+01  0.7957747E-01            NaN
         13   -1    0    0    0    0  0.00000000000E+00  0.00000000000E+00  0.74505805969E-08  0.10566000000E+00  0.10566000000E+00 0. -1.
     999900   -1    0    0    0    0 -0.00000000000E+00 -0.00000000000E+00 -0.74505805969E-08  0.93827000000E+00  0.93827000000E+00 0. -1.
     999902    2    1    2    0    0 -0.18749200334E-01  0.27941181572E-02  0.13427816596E-01  0.10206997209E+01  0.10204353357E+01 0.  0.
     999903    2    3    3    0    0 -0.17549130646E-01  0.85067797823E-01  0.98307674437E-01  0.13279488994E+00  0.20629632308E-01 0.  0.
         14    1    1    2    0    0  0.18749200334E-01 -0.27941181572E-02 -0.13427816596E-01  0.23230279120E-01  0.00000000000E+00 0.  1.
     999901    1    3    3    0    0 -0.12000696881E-02 -0.82273679666E-01 -0.84879857841E-01  0.88790483094E+00  0.88000000000E+00 0. -1.
        -11    1    4    4    0    0 -0.12764060491E-01  0.19121941642E-01  0.21996752487E-01  0.31822761246E-01  0.51100000000E-03 0.  1.
         11    1    4    4    0    0 -0.47850701547E-02  0.65945856181E-01  0.76310921950E-01  0.10097212870E+00  0.51100000000E-03 0. -1.
</event>
<event>
 8    1  0.1063984E+005  0.1043930E+01  0.7957747E-01            NaN
         13   -1    0    0    0    0  0.00000000000E+00  0.00000000000E+00  0.74505805969E-08  0.10566000000E+00  0.10566000000E+00 0.  1.
     999900   -1    0    0    0    0 -0.00000000000E+00 -0.00000000000E+00 -0.74505805969E-08  0.93827000000E+00  0.93827000000E+00 0. -1.
     999902    2    1    2    0    0 -0.31782159914E-02  0.11223245671E-01  0.18192966132E-01  0.10223187456E+01  0.10220902951E+01 0.  0.
     999903    2    3    3    0    0  0.81138573614E-01  0.98641124007E-01  0.34580795533E-01  0.13382577015E+00  0.19999146558E-01 0.  0.
         14    1    1    2    0    0  0.31782159914E-02 -0.11223245671E-01 -0.18192966132E-01  0.21611254405E-01  0.00000000000E+00 0. -1.
     999901    1    3    3    0    0 -0.84316789606E-01 -0.87417878336E-01 -0.16387829401E-01  0.88849297544E+00  0.88000000000E+00 0. -1.
        -11    1    4    4    0    0  0.44369896333E-01  0.38335458168E-01  0.14905691978E-01  0.60504014973E-01  0.51100000000E-03 0.  1.
         11    1    4    4    0    0  0.36768677281E-01  0.60305665839E-01  0.19675103555E-01  0.73321755176E-01  0.51100000000E-03 0. -1.
</event>
<event>
 8    1  0.1063984E+005  0.1043930E+01  0.7957747E-01            NaN
         13   -1    0    0    0    0  0.00000000000E+00  0.00000000000E+00  0.74505805969E-08  0.10566000000E+00  0.10566000000E+00 0. -1.
     999900   -1    0    0    0    0 -0.00000000000E+00 -0.00000000000E+00 -0.74505805969E-08  0.93827000000E+00  0.93827000000E+00 0. -1.
     999902    2    1    2    0    0 -0.11301365950E-01  0.88788757101E-02 -0.19143371995E-01  0.10199920803E+01  0.10197111454E+01 0.  0.
     999903    2    3    3    0    0 -0.68459083667E-01  0.44669855860E-01  0.98560126430E-01  0.12959772249E+00  0.19985719737E-01 0.  0.
         14    1    1    2    0    0  0.11301365950E-01 -0.88788757101E-02  0.19143371995E-01  0.23937919658E-01  0.00000000000E+00 0. -1.
     999901    1    3    3    0    0  0.57157717717E-01 -0.35790980150E-01 -0.11770349843E+00  0.89039435785E+00  0.88000000000E+00 0. -1.
        -11    1    4    4    0    0 -0.35706596648E-02  0.98745528078E-02  0.12913150221E-01  0.16651335478E-01  0.51100000000E-03 0.  1.
         11    1    4    4    0    0 -0.64888424002E-01  0.34795303052E-01  0.85646976209E-01  0.11294638701E+00  0.51100000000E-03 0. -1.
</event>
<event>
 8    1  0.1063984E+005  0.1043930E+01  0.7957747E-01            NaN
         13   -1    0    0    0    0  0.00000000000E+00  0.00000000000E+00  0.74505805969E-08  0.10566000000E+00  0.10566000000E+00 0. -1.
     999900   -1    0    0    0    0 -0.00000000000E+00 -0.00000000000E+00 -0.74505805969E-08  0.93827000000E+00  0.93827000000E+00 0. -1.
     999902    2    1    2    0    0  0.12284827269E-01 -0.21644828164E-02  0.21750347010E-01  0.10188565168E+01  0.10185479479E+01 0.  0.
     999903    2    3    3    0    0  0.68141100671E-01  0.99168892396E-01 -0.41481085634E-01  0.12903260705E+00  0.21238041278E-01 0.  0.
         14    1    1    2    0    0 -0.12284827269E-01  0.21644828164E-02 -0.21750347010E-01  0.25073483243E-01  0.00000000000E+00 0. -1.
     999901    1    3    3    0    0 -0.55856273402E-01 -0.10133337521E+00  0.63231432644E-01  0.88982390971E+00  0.88000000000E+00 0.  1.
        -11    1    4    4    0    0  0.20567502620E-01  0.48472962059E-01 -0.18103204139E-01  0.55683366780E-01  0.51100000000E-03 0. -1.
         11    1    4    4    0    0  0.47573598051E-01  0.50695930337E-01 -0.23377881495E-01  0.73349240271E-01  0.51100000000E-03 0.  1.
</event>
<event>
 8    1  0.1063984E+005  0.1043930E+01  0.7957747E-01            NaN
         13   -1    0    0    0    0  0.00000000000E+00  0.00000000000E+00  0.74505805969E-08  0.10566000000E+00  0.10566000000E+00 0.  1.
     999900   -1    0    0    0    0 -0.00000000000E+00 -0.00000000000E+00 -0.74505805969E-08  0.93827000000E+00  0.93827000000E+00 0.  1.
     999902    2    1    2    0    0 -0.13455281257E-01 -0.18182659915E-01  0.47783429561E-03  0.10213051897E+01  0.10210545571E+01 0.  0.
     999903    2    3    3    0    0  0.58455994280E-01 -0.27247104149E-01 -0.11191235587E+00  0.13120129097E+00  0.23019457050E-01 0.  0.
         14    1    1    2    0    0  0.13455281257E-01  0.18182659915E-01 -0.47783429561E-03  0.22624810295E-01  0.00000000000E+00 0. -1.
     999901    1    3    3    0    0 -0.71911275536E-01  0.90644442338E-02  0.11239019017E+00  0.89010389874E+00  0.88000000000E+00 0. -1.
        -11    1    4    4    0    0  0.16372510676E-01 -0.16047436740E-01 -0.54594283949E-01  0.59214662818E-01  0.51100000000E-03 0.  1.
         11    1    4    4    0    0  0.42083483604E-01 -0.11199667408E-01 -0.57318071925E-01  0.71986628151E-01  0.51100000000E-03 0. -1.
</event>
<event>
 8    1  0.1063984E+005  0.1043930E+01  0.7957747E-01            NaN
         13   -1    0    0    0    0  0.00000000000E+00  0.00000000000E+00  0.74505805969E-08  0.10566000000E+00  0.10566000000E+00 0.  1.
     999900   -1    0    0    0    0 -0.00000000000E+00 -0.00000000000E+00 -0.74505805969E-08  0.93827000000E+00  0.93827000000E+00 0. -1.
     999902    2    1    2    0    0 -0.22636451591E-01 -0.53512608642E-02 -0.49659496139E-02  0.10201454338E+01  0.10198681290E+01 0.  0.
     999903    2    3    3    0    0 -0.73642826368E-01 -0.10906042332E+00  0.39536592911E-02  0.13254372129E+00  0.15322037114E-01 0.  0.
         14    1    1    2    0    0  0.22636451591E-01  0.53512608642E-02  0.49659496139E-02  0.23784566194E-01  0.00000000000E+00 0.  1.
     999901    1    3    3    0    0  0.51006374777E-01  0.10370916245E+00 -0.89196089051E-02  0.88760171252E+00  0.88000000000E+00 0.  1.
        -11    1    4    4    0    0 -0.58909685310E-01 -0.75573537236E-01  0.48400267047E-02  0.95944762927E-01  0.51100000000E-03 0. -1.
         11    1    4    4    0    0 -0.14733141058E-01 -0.33486886081E-01 -0.88636741363E-03  0.36598958360E-01  0.51100000000E-03 0.  1.
</event>
<event>
 8    1  0.1063984E+005  0.1043930E+01  0.7957747E-01            NaN
         13   -1    0    0    0    0  0.00000000000E+00  0.00000000000E+00  0.74505805969E-08  0.10566000000E+00  0.10566000000E+00 0. -1.
     999900   -1    0    0    0    0 -0.00000000000E+00 -0.00000000000E+00 -0.74505805969E-08  0.93827000000E+00  0.93827000000E+00 0. -1.
     999902    2    1    2    0    0 -0.20571955904E-01  0.12771298485E-01  0.33954627888E-02  0.10194792208E+01  0.10191859698E+01 0.  0.
     999903    2    3    3    0    0 -0.39415959877E-01  0.85281485866E-01 -0.89593463574E-01  0.13141404068E+00  0.20398814878E-01 0.  0.
         14    1    1    2    0    0  0.20571955904E-01 -0.12771298485E-01 -0.33954627888E-02  0.24450779175E-01  0.00000000000E+00 0.  1.
     999901    1    3    3    0    0  0.18844003973E-01 -0.72510187381E-01  0.92988926362E-01  0.88806518014E+00  0.88000000000E+00 0.  1.
        -11    1    4    4    0    0 -0.32824431921E-01  0.75368558468E-01 -0.67732630336E-01  0.10651682153E+00  0.51100000000E-03 0. -1.
         11    1    4    4    0    0 -0.65915279558E-02  0.99129273974E-02 -0.21860833238E-01  0.24897219146E-01  0.51100000000E-03 0.  1.
</event>
<event>
 8    1  0.1063984E+005  0.1043930E+01  0.7957747E-01            NaN
         13   -1    0    0    0    0  0.00000000000E+00  0.00000000000E+00  0.74505805969E-08  0.10566000000E+00  0.10566000000E+00 0.  1.
     999900   -1    0    0    0    0 -0.00000000000E+00 -0.00000000000E+00 -0.74505805969E-08  0.93827000000E+00  0.93827000000E+00 0.  1.
     999902    2    1    2    0    0  0.18813873257E-01  0.27088305402E-02  0.14708645015E-01  0.10198957780E+01  0.10196125510E+01 0.  0.
     999903    2    3    3    0    0 -0.39141481577E-01  0.11856655371E+00  0.31961570320E-01  0.13024444257E+00  0.18761385978E-01 0.  0.
         14    1    1    2    0    0 -0.18813873257E-01 -0.27088305402E-02 -0.14708645015E-01  0.24034222018E-01  0.00000000000E+00 0. -1.
     999901    1    3    3    0    0  0.57955354835E-01 -0.11585772317E+00 -0.17252925305E-01  0.88965133541E+00  0.88000000000E+00 0. -1.
        -11    1    4    4    0    0 -0.23544386860E-01  0.53965890835E-01  0.22872436909E-01  0.63166961438E-01  0.51100000000E-03 0. -1.
         11    1    4    4    0    0 -0.15597094718E-01  0.64600662875E-01  0.90891334111E-02  0.67077481130E-01  0.51100000000E-03 0.  1.
</event>
<event>
 8    1  0.1063984E+005  0.1043930E+01  0.7957747E-01            NaN
         13   -1    0    0    0    0  0.00000000000E+00  0.00000000000E+00  0.74505805969E-08  0.10566000000E+00  0.10566000000E+00 0.  1.
     999900   -1    0    0    0    0 -0.00000000000E+00 -0.00000000000E+00 -0.74505805969E-08  0.93827000000E+00  0.93827000000E+00 0.  1.
     999902    2    1    2    0    0  0.15909765049E-01  0.23641441003E-02 -0.17450820808E-01  0.10201973021E+01  0.10199212197E+01 0.  0.
     999903    2    3    3    0    0 -0.71379531525E-02 -0.24829251703E-01  0.12380998593E+00  0.12821899880E+00  0.21065538780E-01 0.  0.
         14    1    1    2    0    0 -0.15909765049E-01 -0.23641441003E-02  0.17450820808E-01  0.23732697868E-01  0.00000000000E+00 0.  1.
     999901    1    3    3    0    0  0.23047718201E-01  0.27193395804E-01 -0.14126080673E+00  0.89197830333E+00  0.88000000000E+00 0.  1.
        -11    1    4    4    0    0  0.73635162285E-02 -0.62077906513E-02  0.40133298923E-01  0.41275911128E-01  0.51100000000E-03 0.  1.
         11    1    4    4    0    0 -0.14501469381E-01 -0.18621461052E-01  0.83676687002E-01  0.86943087675E-01  0.51100000000E-03 0. -1.
</event>
<event>
 8    1  0.1063984E+005  0.1043930E+01  0.7957747E-01            NaN
         13   -1    0    0    0    0  0.00000000000E+00  0.00000000000E+00  0.74505805969E-08  0.10566000000E+00  0.10566000000E+00 0.  1.
     999900   -1    0    0    0    0 -0.00000000000E+00 -0.00000000000E+00 -0.74505805969E-08  0.93827000000E+00  0.93827000000E+00 0. -1.
     999902    2    1    2    0    0  0.17084985001E-02  0.12879940693E-01  0.18540242372E-01  0.10212903793E+01  0.10210394147E+01 0.  0.
     999903    2    3    3    0    0 -0.93020859087E-01 -0.60179247988E-01 -0.63845977811E-01  0.12938299310E+00  0.19728859746E-01 0.  0.
         14    1    1    2    0    0 -0.17084985001E-02 -0.12879940693E-01 -0.18540242372E-01  0.22639620725E-01  0.00000000000E+00 0. -1.
     999901    1    3    3    0    0  0.94729357587E-01  0.73059188681E-01  0.82386220182E-01  0.89190738618E+00  0.88000000000E+00 0. -1.
        -11    1    4    4    0    0 -0.52176029634E-01 -0.22091987625E-01 -0.33386355774E-01  0.65767042342E-01  0.51100000000E-03 0.  1.
         11    1    4    4    0    0 -0.40844829453E-01 -0.38087260363E-01 -0.30459622037E-01  0.63615950756E-01  0.51100000000E-03 0. -1.
</event>
<event>
 8    1  0.1063984E+005  0.1043930E+01  0.7957747E-01            NaN
         13   -1    0    0    0    0  0.00000000000E+00  0.00000000000E+00  0.74505805969E-08  0.10566000000E+00  0.10566000000E+00 0. -1.
     999900   -1    0    0    0    0 -0.00000000000E+00 -0.00000000000E+00 -0.74505805969E-08  0.93827000000E+00  0.93827000000E+00 0.  1.
     999902    2    1    2    0    0  0.99459517410E-02 -0.14802044358E-01 -0.15584764454E-01  0.10202465172E+01  0.10199715920E+01 0.  0.
     999903    2    3    3    0    0 -0.38939770234E-01  0.12097168663E+00 -0.49791985043E-02  0.12842994535E+00  0.17860676702E-01 0.  0.
         14    1    1    2    0    0 -0.99459517410E-02  0.14802044358E-01  0.15584764454E-01  0.23683482774E-01  0.00000000000E+00 0. -1.
     999901    1    3    3    0    0  0.48885721975E-01 -0.13577373099E+00 -0.10605565950E-01  0.89181657187E+00  0.88000000000E+00 0. -1.
        -11    1    4    4    0    0 -0.28404044940E-01  0.71316898162E-01  0.40358388376E-02  0.76872874595E-01  0.51100000000E-03 0.  1.
         11    1    4    4    0    0 -0.10535725294E-01  0.49654788473E-01 -0.90150373419E-02  0.51557070757E-01  0.51100000000E-03 0. -1.
</event>
<event>
 8    1  0.1063984E+005  0.1043930E+01  0.7957747E-01            NaN
         13   -1    0    0    0    0  0.00000000000E+00  0.00000000000E+00  0.74505805969E-08  0.10566000000E+00  0.10566000000E+00 0.  1.
     999900   -1    0    0    0    0 -0.00000000000E+00 -0.00000000000E+00 -0.74505805969E-08  0.93827000000E+00  0.93827000000E+00 0. -1.
     999902    2    1    2    0    0 -0.12326939257E-01 -0.20995488051E-01  0.33385683966E-03  0.10195809670E+01  0.10192901808E+01 0.  0.
     999903    2    3    3    0    0  0.15437452949E-02 -0.11895825234E+00  0.53857351764E-01  0.13242040449E+00  0.21933997286E-01 0.  0.
         14    1    1    2    0    0  0.12326939257E-01  0.20995488051E-01 -0.33385683966E-03  0.24349033048E-01  0.00000000000E+00 0. -1.
     999901    1    3    3    0    0 -0.13870684552E-01  0.97962764290E-01 -0.53523494925E-01  0.88716056246E+00  0.88000000000E+00 0. -1.
        -11    1    4    4    0    0 -0.44614101649E-02 -0.23739431209E-01  0.31254175619E-02  0.24361734969E-01  0.51100000000E-03 0.  1.
         11    1    4    4    0    0  0.60051554598E-02 -0.95218821132E-01  0.50731934203E-01  0.10805866952E+00  0.51100000000E-03 0. -1.
</event>
<event>
 8    1  0.1063984E+005  0.1043930E+01  0.7957747E-01            NaN
         13   -1    0    0    0    0  0.00000000000E+00  0.00000000000E+00  0.74505805969E-08  0.10566000000E+00  0.10566000000E+00 0.  1.
     999900   -1    0    0    0    0 -0.00000000000E+00 -0.00000000000E+00 -0.74505805969E-08  0.93827000000E+00  0.93827000000E+00 0.  1.
     999902    2    1    2    0    0 -0.43174914386E-02  0.77503374233E-02 -0.21230253663E-01  0.10209206077E+01  0.10206612833E+01 0.  0.
     999903    2    3    3    0    0  0.12028806700E+00 -0.43349958331E-01  0.12617323033E-01  0.13003147665E+00  0.20013748479E-01 0.  0.
         14    1    1    2    0    0  0.43174914386E-02 -0.77503374233E-02  0.21230253663E-01  0.23009392280E-01  0.00000000000E+00 0.  1.
     999901    1    3    3    0    0 -0.12460555844E+00  0.51100295755E-01 -0.33847576695E-01  0.89088913108E+00  0.88000000000E+00 0. -1.
        -11    1    4    4    0    0  0.51210322080E-01 -0.18701668092E-01  0.15333427785E-01  0.56635895028E-01  0.51100000000E-03 0. -1.
         11    1    4    4    0    0  0.69077744920E-01 -0.24648290239E-01 -0.27161047528E-02  0.73395581617E-01  0.51100000000E-03 0.  1.
</event>
<event>
 8    1  0.1063984E+005  0.1043930E+01  0.7957747E-01            NaN
         13   -1    0    0    0    0  0.00000000000E+00  0.00000000000E+00  0.74505805969E-08  0.10566000000E+00  0.10566000000E+00 0.  1.
     999900   -1    0    0    0    0 -0.00000000000E+00 -0.00000000000E+00 -0.74505805969E-08  0.93827000000E+00  0.93827000000E+00 0. -1.
     999902    2    1    2    0    0 -0.15296637389E-01 -0.18740849557E-01  0.89365512574E-02  0.10181410778E+01  0.10178144162E+01 0.  0.
     999903    2    3    3    0    0  0.10652507311E+00 -0.68521969205E-02 -0.65080191937E-01  0.12659166952E+00  0.19886568489E-01 0.  0.
         14    1    1    2    0    0  0.15296637389E-01  0.18740849557E-01 -0.89365512574E-02  0.25788922155E-01  0.00000000000E+00 0. -1.
     999901    1    3    3    0    0 -0.12182171050E+00 -0.11888652636E-01  0.74016743194E-01  0.89154940832E+00  0.88000000000E+00 0.  1.
        -11    1    4    4    0    0  0.47298426042E-01 -0.94776999628E-02 -0.20511989401E-01  0.52421090535E-01  0.51100000000E-03 0.  1.
         11    1    4    4    0    0  0.59226647066E-01  0.26255030424E-02 -0.44568202536E-01  0.74170578986E-01  0.51100000000E-03 0. -1.
</event>
<event>
 8    1  0.1063984E+005  0.1043930E+01  0.7957747E-01            NaN
         13   -1    0    0    0    0  0.00000000000E+00  0.00000000000E+00  0.74505805969E-08  0.10566000000E+00  0.10566000000E+00 0. -1.
     999900   -1    0    0    0    0 -0.00000000000E+00 -0.00000000000E+00 -0.74505805969E-08  0.93827000000E+00  0.93827000000E+00 0.  1.
     999902    2    1    2    0    0 -0.62936640725E-02 -0.21184990347E-01  0.96696524335E-02  0.10198070607E+01  0.10195217137E+01 0.  0.
     999903    2    3    3    0    0  0.21693183895E-01  0.44490986646E-01 -0.11633331578E+00  0.12796999842E+00  0.19820141685E-01 0.  0.
         14    1    1    2    0    0  0.62936640725E-02  0.21184990347E-01 -0.96696524335E-02  0.24122939325E-01  0.00000000000E+00 0.  1.
     999901    1    3    3    0    0 -0.27986847968E-01 -0.65675976993E-01  0.12600296821E+00  0.89183706225E+00  0.88000000000E+00 0. -1.
        -11    1    4    4    0    0  0.11397989000E-02 -0.97013076700E-03 -0.14338638195E-01  0.14425600907E-01  0.51100000000E-03 0. -1.
         11    1    4    4    0    0  0.20553384995E-01  0.45461117413E-01 -0.10199467758E+00  0.11354439751E+00  0.51100000000E-03 0.  1.
</event>
<event>
 8    1  0.1063984E+005  0.1043930E+01  0.7957747E-01            NaN
         13   -1    0    0    0    0  0.00000000000E+00  0.00000000000E+00  0.74505805969E-08  0.10566000000E+00  0.10566000000E+00 0. -1.
     999900   -1    0    0    0    0 -0.00000000000E+00 -0.00000000000E+00 -0.74505805969E-08  0.93827000000E+00  0.93827000000E+00 0. -1.
     999902    2    1    2    0    0 -0.12357336466E-01 -0.46661129337E-02 -0.21664443852E-01  0.10185563030E+01  0.10182402063E+01 0.  0.
     999903    2    3    3    0    0 -0.89663575743E-01  0.77040029685E-01  0.44385879156E-01  0.12894133369E+00  0.26096710052E-01 0.  0.
         14    1    1    2    0    0  0.12357336466E-01  0.46661129337E-02  0.21664443852E-01  0.25373697048E-01  0.00000000000E+00 0. -1.
     999901    1    3    3    0    0  0.77306239277E-01 -0.81706142618E-01 -0.66050323008E-01  0.88961496927E+00  0.88000000000E+00 0. -1.
        -11    1    4    4    0    0 -0.39560648807E-01  0.41444722546E-01  0.33948390490E-01  0.66599281519E-01  0.51100000000E-03 0. -1.
         11    1    4    4    0    0 -0.50102926936E-01  0.35595307139E-01  0.10437488666E-01  0.62342052168E-01  0.51100000000E-03 0.  1.
</event>
<event>
 8    1  0.1063984E+005  0.1043930E+01  0.7957747E-01            NaN
         13   -1    0    0    0    0  0.00000000000E+00  0.00000000000E+00  0.74505805969E-08  0.10566000000E+00  0.10566000000E+00 0.  1.
     999900   -1    0    0    0    0 -0.00000000000E+00 -0.00000000000E+00 -0.74505805969E-08  0.93827000000E+00  0.93827000000E+00 0. -1.
     999902    2    1    2    0    0 -0.22270707597E-01 -0.23849743472E-02 -0.77507186801E-02  0.10202288152E+01  0.10199534741E+01 0.  0.
     999903    2    3    3    0    0  0.66671047414E-01  0.26111286287E-01  0.10412048827E+00  0.12824347925E+00  0.21874324187E-01 0.  0.
         14    1    1    2    0    0  0.22270707597E-01  0.23849743472E-02  0.77507186801E-02  0.23701184772E-01  0.00000000000E+00 0.  1.
     999901    1    3    3    0    0 -0.88941755012E-01 -0.28496260634E-01 -0.11187120695E+00  0.89198533598E+00  0.88000000000E+00 0. -1.
        -11    1    4    4    0    0  0.50869888825E-01  0.12229318479E-01  0.85007151067E-01  0.99818729069E-01  0.51100000000E-03 0.  1.
         11    1    4    4    0    0  0.15801158589E-01  0.13881967808E-01  0.19113337200E-01  0.28424750182E-01  0.51100000000E-03 0. -1.
</event>
<event>
 8    1  0.1063984E+005  0.1043930E+01  0.7957747E-01            NaN
         13   -1    0    0    0    0  0.00000000000E+00  0.00000000000E+00  0.74505805969E-08  0.10566000000E+00  0.10566000000E+00 0. -1.
     999900   -1    0    0    0    0 -0.00000000000E+00 -0.00000000000E+00 -0.74505805969E-08  0.93827000000E+00  0.93827000000E+00 0.  1.
     999902    2    1    2    0    0 -0.11830929580E-01  0.18447004753E-01  0.44480485956E-02  0.10215682466E+01  0.10213234720E+01 0.  0.
     999903    2    3    3    0    0  0.98435537945E-01  0.13056880154E-01  0.83291434993E-01  0.13117281372E+00  0.20218967983E-01 0.  0.
         14    1    1    2    0    0  0.11830929580E-01 -0.18447004753E-01 -0.44480485956E-02  0.22361753406E-01  0.00000000000E+00 0.  1.
     999901    1    3    3    0    0 -0.11026646752E+00  0.53901245997E-02 -0.78843386397E-01  0.89039543287E+00  0.88000000000E+00 0. -1.
        -11    1    4    4    0    0  0.47912063743E-01  0.86728945678E-02  0.28106461035E-01  0.56222942161E-01  0.51100000000E-03 0.  1.
         11    1    4    4    0    0  0.50523474202E-01  0.43839855858E-02  0.55184973958E-01  0.74949871559E-01  0.51100000000E-03 0. -1.
</event>
<event>
 8    1  0.1063984E+005  0.1043930E+01  0.7957747E-01            NaN
         13   -1    0    0    0    0  0.00000000000E+00  0.00000000000E+00  0.74505805969E-08  0.10566000000E+00  0.10566000000E+00 0. -1.
     999900   -1    0    0    0    0 -0.00000000000E+00 -0.00000000000E+00 -0.74505805969E-08  0.93827000000E+00  0.93827000000E+00 0. -1.
     999902    2    1    2    0    0 -0.75053215414E-02 -0.13560499145E-01 -0.18035866750E-01  0.10201495568E+01  0.10198723493E+01 0.  0.
     999903    2    3    3    0    0 -0.90802802079E-01 -0.58830352072E-01 -0.75075438201E-01  0.13322151996E+00  0.20136851044E-01 0.  0.
         14    1    1    2    0    0  0.75053215414E-02  0.13560499145E-01  0.18035866750E-01  0.23780443182E-01  0.00000000000E+00 0. -1.
     999901    1    3    3    0    0  0.83297480538E-01  0.45269852928E-01  0.57039571451E-01  0.88692803685E+00  0.88000000000E+00 0. -1.
        -11    1    4    4    0    0 -0.66363171062E-01 -0.48801279982E-01 -0.65040006163E-01  0.10495760536E+00  0.51100000000E-03 0. -1.
         11    1    4    4    0    0 -0.24439631017E-01 -0.10029072091E-01 -0.10035432038E-01  0.28263914599E-01  0.51100000000E-03 0.  1.
</event>
<event>
 8    1  0.1063984E+005  0.1043930E+01  0.7957747E-01            NaN
         13   -1    0    0    0    0  0.00000000000E+00  0.00000000000E+00  0.74505805969E-08  0.10566000000E+00  0.10566000000E+00 0.  1.
     999900   -1    0    0    0    0 -0.00000000000E+00 -0.00000000000E+00 -0.74505805969E-08  0.93827000000E+00  0.93827000000E+00 0. -1.
     999902    2    1    2    0    0 -0.18989708961E-01  0.14901090524E-01  0.42593735348E-02  0.10194189044E+01  0.10191241871E+01 0.  0.
     999903    2    3    3    0    0 -0.34455960011E-01 -0.48796565087E-01 -0.11284134810E+00  0.12924522737E+00  0.20070899647E-01 0.  0.
         14    1    1    2    0    0  0.18989708961E-01 -0.14901090524E-01 -0.42593735348E-02  0.24511095613E-01  0.00000000000E+00 0. -1.
     999901    1    3    3    0    0  0.15466251050E-01  0.63697655610E-01  0.11710072163E+00  0.89017367702E+00  0.88000000000E+00 0.  1.
        -11    1    4    4    0    0 -0.23296734059E-01 -0.27942444225E-01 -0.86495883832E-01  0.93836650878E-01  0.51100000000E-03 0. -1.
         11    1    4    4    0    0 -0.11159225953E-01 -0.20854120861E-01 -0.26345464265E-01  0.35408576490E-01  0.51100000000E-03 0.  1.
</event>
<event>
 8    1  0.1063984E+005  0.1043930E+01  0.7957747E-01            NaN
         13   -1    0    0    0    0  0.00000000000E+00  0.00000000000E+00  0.74505805969E-08  0.10566000000E+00  0.10566000000E+00 0.  1.
     999900   -1    0    0    0    0 -0.00000000000E+00 -0.00000000000E+00 -0.74505805969E-08  0.93827000000E+00  0.93827000000E+00 0. -1.
     999902    2    1    2    0    0  0.14235198203E-01  0.89589343926E-02  0.17500486344E-01  0.10196571675E+01  0.10193682205E+01 0.  0.
     999903    2    3    3    0    0  0.90580306124E-01  0.78777072481E-01  0.52498141660E-01  0.13290580228E+00  0.22299739826E-01 0.  0.
         14    1    1    2    0    0 -0.14235198203E-01 -0.89589343926E-02 -0.17500486344E-01  0.24272832459E-01  0.00000000000E+00 0. -1.
     999901    1    3    3    0    0 -0.76345107922E-01 -0.69818138089E-01 -0.34997655316E-01  0.88675136526E+00  0.88000000000E+00 0.  1.
        -11    1    4    4    0    0  0.60310564598E-02  0.13559924307E-01  0.27366416388E-02  0.15099520446E-01  0.51100000000E-03 0.  1.
         11    1    4    4    0    0  0.84549249664E-01  0.65217148174E-01  0.49761500021E-01  0.11780628184E+00  0.51100000000E-03 0. -1.
</event>
<event>
 8    1  0.1063984E+005  0.1043930E+01  0.7957747E-01            NaN
         13   -1    0    0    0    0  0.00000000000E+00  0.00000000000E+00  0.74505805969E-08  0.10566000000E+00  0.10566000000E+00 0. -1.
     999900   -1    0    0    0    0 -0.00000000000E+00 -0.00000000000E+00 -0.74505805969E-08  0.93827000000E+00  0.93827000000E+00 0. -1.
     999902    2    1    2    0    0 -0.21532224357E-01  0.67690707768E-02  0.63946796815E-02  0.10204704831E+01  0.10202007930E+01 0.  0.
     999903    2    3    3    0    0  0.83731109726E-01  0.74269088798E-01  0.62368132053E-01  0.12986975926E+00  0.21203164566E-01 0.  0.
         14    1    1    2    0    0  0.21532224357E-01 -0.67690707768E-02 -0.63946796815E-02  0.23459516900E-01  0.00000000000E+00 0. -1.
     999901    1    3    3    0    0 -0.10526333408E+00 -0.67500018021E-01 -0.55973452371E-01  0.89060072384E+00  0.88000000000E+00 0. -1.
        -11    1    4    4    0    0  0.45813921625E-01  0.52937475242E-01  0.33165860704E-01  0.77469523923E-01  0.51100000000E-03 0.  1.
         11    1    4    4    0    0  0.37917188100E-01  0.21331613556E-01  0.29202271349E-01  0.52400235336E-01  0.51100000000E-03 0. -1.
</event>
<event>
 7    1  0.1063984E+005  0.1043930E+01  0.7957747E-01            NaN
         13   -1    0    0    0    0  0.00000000000E+00  0.00000000000E+00  0.74505805969E-08  0.10566000000E+00  0.10566000000E+00 0.  1.
     999900   -1    0    0    0    0 -0.00000000000E+00 -0.00000000000E+00 -0.74505805969E-08  0.93827000000E+00  0.93827000000E+00 0. -1.
     999902    2    1    2    0    0 -0.24132977735E-01  0.34611454444E-02  0.28857984368E-02  0.10193798885E+01  0.10190842208E+01 0.  0.
         14    1    1    2    0    0  0.24132977735E-01 -0.34611454444E-02 -0.28857984368E-02  0.24550111502E-01  0.00000000000E+00 0.  1.
     999901    1    3    3    0    0 -0.20815045624E-02 -0.81309101639E-01 -0.58594198396E-01  0.88569113282E+00  0.88000000000E+00 0. -1.
        -11    1    3    3    0    0  0.50210945596E-02  0.67820900770E-01  0.42428769498E-02  0.68140656716E-01  0.51100000000E-03 0.  1.
         11    1    3    3    0    0 -0.27072567732E-01  0.16949346313E-01  0.57237119883E-01  0.65548098962E-01  0.51100000000E-03 0. -1.
</event>
<event>
 8    1  0.1063984E+005  0.1043930E+01  0.7957747E-01            NaN
         13   -1    0    0    0    0  0.00000000000E+00  0.00000000000E+00  0.74505805969E-08  0.10566000000E+00  0.10566000000E+00 0. -1.
     999900   -1    0    0    0    0 -0.00000000000E+00 -0.00000000000E+00 -0.74505805969E-08  0.93827000000E+00  0.93827000000E+00 0.  1.
     999902    2    1    2    0    0 -0.44525017918E-02  0.22841506156E-01 -0.41555966544E-02  0.10202904535E+01  0.10200165593E+01 0.  0.
     999903    2    3    3    0    0 -0.77654702852E-01  0.72596725437E-01 -0.76977394662E-01  0.13285754991E+00  0.20617270926E-01 0.  0.
         14    1    1    2    0    0  0.44525017918E-02 -0.22841506156E-01  0.41555966544E-02  0.23639546511E-01  0.00000000000E+00 0.  1.
     999901    1    3    3    0    0  0.73202201060E-01 -0.49755219281E-01  0.72821798008E-01  0.88743290358E+00  0.88000000000E+00 0. -1.
        -11    1    4    4    0    0 -0.38088914719E-01  0.37310577025E-01 -0.51134493402E-01  0.73877209739E-01  0.51100000000E-03 0.  1.
         11    1    4    4    0    0 -0.39565788133E-01  0.35286148412E-01 -0.25842901261E-01  0.58980340173E-01  0.51100000000E-03 0. -1.
</event>
<event>
 8    1  0.1063984E+005  0.1043930E+01  0.7957747E-01            NaN
         13   -1    0    0    0    0  0.00000000000E+00  0.00000000000E+00  0.74505805969E-08  0.10566000000E+00  0.10566000000E+00 0. -1.
     999900   -1    0    0    0    0 -0.00000000000E+00 -0.00000000000E+00 -0.74505805969E-08  0.93827000000E+00  0.93827000000E+00 0.  1.
     999902    2    1    2    0    0  0.16442893874E-01 -0.14155927891E-01 -0.86752403771E-02  0.10205629538E+01  0.10202954101E+01 0.  0.
     999903    2    3    3    0    0 -0.37131605245E-02 -0.94101430370E-01  0.89457138745E-01  0.13127812105E+00  0.19039396915E-01 0.  0.
         14    1    1    2    0    0 -0.16442893874E-01  0.14155927891E-01  0.86752403771E-02  0.23367046219E-01  0.00000000000E+00 0. -1.
     999901    1    3    3    0    0  0.20156054398E-01  0.79945502479E-01 -0.98132379122E-01  0.88928483273E+00  0.88000000000E+00 0.  1.
        -11    1    4    4    0    0  0.53373173174E-02 -0.69859554589E-01  0.62195113796E-01  0.93687446462E-01  0.51100000000E-03 0. -1.
         11    1    4    4    0    0 -0.90504778419E-02 -0.24241875781E-01  0.27262024949E-01  0.37590674587E-01  0.51100000000E-03 0.  1.
</event>
<event>
 8    1  0.1063984E+005  0.1043930E+01  0.7957747E-01            NaN
         13   -1    0    0    0    0  0.00000000000E+00  0.00000000000E+00  0.74505805969E-08  0.10566000000E+00  0.10566000000E+00 0. -1.
     999900   -1    0    0    0    0 -0.00000000000E+00 -0.00000000000E+00 -0.74505805969E-08  0.93827000000E+00  0.93827000000E+00 0.  1.
     999902    2    1    2    0    0 -0.74877793683E-02 -0.65859566844E-02  0.21797700571E-01  0.10199595721E+01  0.10196778644E+01 0.  0.
     999903    2    3    3    0    0 -0.65675772962E-01  0.71217900031E-01 -0.81821927648E-01  0.12856947223E+00  0.21212847703E-01 0.  0.
         14    1    1    2    0    0  0.74877793683E-02  0.65859566844E-02 -0.21797700571E-01  0.23970427938E-01  0.00000000000E+00 0.  1.
     999901    1    3    3    0    0  0.58187993593E-01 -0.77803856716E-01  0.10361962822E+00  0.89139009983E+00  0.88000000000E+00 0. -1.
        -11    1    4    4    0    0 -0.64001445767E-02  0.13772226483E-01 -0.55398817541E-02  0.16173666367E-01  0.51100000000E-03 0.  1.
         11    1    4    4    0    0 -0.59275628385E-01  0.57445673548E-01 -0.76282045894E-01  0.11239580587E+00  0.51100000000E-03 0. -1.
</event>
<event>
 8    1  0.1063984E+005  0.1043930E+01  0.7957747E-01            NaN
         13   -1    0    0    0    0  0.00000000000E+00  0.00000000000E+00  0.74505805969E-08  0.10566000000E+00  0.10566000000E+00 0.  1.
     999900   -1    0    0    0    0 -0.00000000000E+00 -0.00000000000E+00 -0.74505805969E-08  0.93827000000E+00  0.93827000000E+00 0.  1.
     999902    2    1    2    0    0  0.90932382767E-02  0.21131980555E-01 -0.64018483623E-02  0.10200504848E+01  0.10197709352E+01 0.  0.
     999903    2    3    3    0    0 -0.10326066049E+00  0.16599881236E-01  0.73418002365E-01  0.12931194455E+00  0.19825636669E-01 0.  0.
         14    1    1    2    0    0 -0.90932382767E-02 -0.21131980555E-01  0.64018483623E-02  0.23879515216E-01  0.00000000000E+00 0.  1.
     999901    1    3    3    0    0  0.11235389877E+00  0.45320993181E-02 -0.79819850727E-01  0.89073854024E+00  0.88000000000E+00 0.  1.
        -11    1    4    4    0    0 -0.13574791656E-01 -0.44649034080E-02  0.10766519176E-01  0.17899424212E-01  0.51100000000E-03 0. -1.
         11    1    4    4    0    0 -0.89685868834E-01  0.21064784644E-01  0.62651483189E-01  0.11141252034E+00  0.51100000000E-03 0.  1.
</event>
<event>
 8    1  0.1063984E+005  0.1043930E+01  0.7957747E-01            NaN
         13   -1    0    0    0    0  0.00000000000E+00  0.00000000000E+00  0.74505805969E-08  0.10566000000E+00  0.10566000000E+00 0.  1.
     999900   -1    0    0    0    0 -0.00000000000E+00 -0.00000000000E+00 -0.74505805969E-08  0.93827000000E+00  0.93827000000E+00 0. -1.
     999902    2    1    2    0    0  0.11188637183E-01  0.36893394370E-02 -0.21409695656E-01  0.10194928992E+01  0.10191999802E+01 0.  0.
     999903    2    3    3    0    0 -0.11341179116E-01 -0.11193525859E+00  0.58651444655E-01  0.12804103483E+00  0.17215986256E-01 0.  0.
         14    1    1    2    0    0 -0.11188637183E-01 -0.36893394370E-02  0.21409695656E-01  0.24437100801E-01  0.00000000000E+00 0.  1.
     999901    1    3    3    0    0  0.22529816299E-01  0.11562459802E+00 -0.80061140311E-01  0.89145186436E+00  0.88000000000E+00 0. -1.
        -11    1    4    4    0    0 -0.15596059083E-01 -0.75198283632E-01  0.40993391053E-01  0.87055948396E-01  0.51100000000E-03 0. -1.
         11    1    4    4    0    0  0.42548799670E-02 -0.36736974955E-01  0.17658053602E-01  0.40985086439E-01  0.51100000000E-03 0.  1.
</event>
<event>
 8    1  0.1063984E+005  0.1043930E+01  0.7957747E-01            NaN
         13   -1    0    0    0    0  0.00000000000E+00  0.00000000000E+00  0.74505805969E-08  0.10566000000E+00  0.10566000000E+00 0. -1.
     999900   -1    0    0    0    0 -0.00000000000E+00 -0.00000000000E+00 -0.74505805969E-08  0.93827000000E+00  0.93827000000E+00 0. -1.
     999902    2    1    2    0    0  0.13647217066E-01 -0.33834649443E-02 -0.18096015490E-01  0.10210136271E+01  0.10207564189E+01 0.  0.
     999903    2    3    3    0    0  0.88224884641E-01  0.85768928359E-01  0.36098278536E-01  0.13171783875E+00  0.30109201091E-01 0.  0.
         14    1    1    2    0    0 -0.13647217066E-01  0.33834649443E-02  0.18096015490E-01  0.22916372865E-01  0.00000000000E+00 0. -1.
     999901    1    3    3    0    0 -0.74577667575E-01 -0.89152393303E-01 -0.54194294026E-01  0.88929578838E+00  0.88000000000E+00 0. -1.
        -11    1    4    4    0    0  0.78435058116E-01  0.61331162583E-01  0.22482098877E-01  0.10207485359E+00  0.51100000000E-03 0. -1.
         11    1    4    4    0    0  0.97898265252E-02  0.24437765776E-01  0.13616179659E-01  0.29642985157E-01  0.51100000000E-03 0.  1.
</event>
<event>
 8    1  0.1063984E+005  0.1043930E+01  0.7957747E-01            NaN
         13   -1    0    0    0    0  0.00000000000E+00  0.00000000000E+00  0.74505805969E-08  0.10566000000E+00  0.10566000000E+00 0.  1.
     999900   -1    0    0    0    0 -0.00000000000E+00 -0.00000000000E+00 -0.74505805969E-08  0.93827000000E+00  0.93827000000E+00 0. -1.
     999902    2    1    2    0    0 -0.68809969202E-02  0.10241623495E-01 -0.19936742188E-01  0.10204840481E+01  0.10202146734E+01 0.  0.
     999903    2    3    3    0    0 -0.95981125915E-01  0.25197392412E-01  0.82540586565E-01  0.12994257749E+00  0.14994662289E-01 0.  0.
         14    1    1    2    0    0  0.68809969202E-02 -0.10241623495E-01  0.19936742188E-01  0.23445951879E-01  0.00000000000E+00 0.  1.
     999901    1    3    3    0    0  0.89100128995E-01 -0.14955768917E-01 -0.10247732875E+00  0.89054147063E+00  0.88000000000E+00 0. -1.
        -11    1    4    4    0    0 -0.72350453752E-01  0.16145496669E-01  0.68823291414E-01  0.10115419805E+00  0.51100000000E-03 0.  1.
         11    1    4    4    0    0 -0.23630672163E-01  0.90518957425E-02  0.13717295151E-01  0.28788379438E-01  0.51100000000E-03 0. -1.
</event>
<event>
 8    1  0.1063984E+005  0.1043930E+01  0.7957747E-01            NaN
         13   -1    0    0    0    0  0.00000000000E+00  0.00000000000E+00  0.74505805969E-08  0.10566000000E+00  0.10566000000E+00 0.  1.
     999900   -1    0    0    0    0 -0.00000000000E+00 -0.00000000000E+00 -0.74505805969E-08  0.93827000000E+00  0.93827000000E+00 0.  1.
     999902    2    1    2    0    0  0.13702726569E-01  0.17555587603E-02  0.18936630114E-01  0.10204898067E+01  0.10202205658E+01 0.  0.
     999903    2    3    3    0    0  0.10814001256E+00 -0.59904881204E-01  0.44403089177E-01  0.13292631523E+00  0.20369434075E-01 0.  0.
         14    1    1    2    0    0 -0.13702726569E-01 -0.17555587603E-02 -0.18936630114E-01  0.23440193303E-01  0.00000000000E+00 0. -1.
     999901    1    3    3    0    0 -0.94437285991E-01  0.61660439964E-01 -0.25466459063E-01  0.88756349146E+00  0.88000000000E+00 0.  1.
        -11    1    4    4    0    0  0.58812748364E-01 -0.26249388385E-01  0.13981408410E-01  0.65906833203E-01  0.51100000000E-03 0.  1.
         11    1    4    4    0    0  0.49327264196E-01 -0.33655492819E-01  0.30421680767E-01  0.67019482031E-01  0.51100000000E-03 0. -1.
</event>
<event>
 8    1  0.1063984E+005  0.1043930E+01  0.7957747E-01            NaN
         13   -1    0    0    0    0  0.00000000000E+00  0.00000000000E+00  0.74505805969E-08  0.10566000000E+00  0.10566000000E+00 0. -1.
     999900   -1    0    0    0    0 -0.00000000000E+00 -0.00000000000E+00 -0.74505805969E-08  0.93827000000E+00  0.93827000000E+00 0. -1.
     999902    2    1    2    0    0  0.17294422411E-01 -0.13070957495E-01  0.89504235877E-02  0.10204767047E+01  0.10202071593E+01 0.  0.
     999903    2    3    3    0    0  0.10448606731E+00 -0.56267622926E-01 -0.55784181193E-01  0.13274988645E+00  0.20670603059E-01 0.  0.
         14    1    1    2    0    0 -0.17294422411E-01  0.13070957495E-01 -0.89504235877E-02  0.23453295265E-01  0.00000000000E+00 0. -1.
     999901    1    3    3    0    0 -0.87191644895E-01  0.43196665431E-01  0.64734604781E-01  0.88772681828E+00  0.88000000000E+00 0.  1.
        -11    1    4    4    0    0  0.45678568415E-01 -0.22752451197E-01 -0.35214057382E-01  0.62004004760E-01  0.51100000000E-03 0. -1.
         11    1    4    4    0    0  0.58807498890E-01 -0.33515171729E-01 -0.20570123811E-01  0.70745881692E-01  0.51100000000E-03 0.  1.
</event>
<event>
 8    1  0.1063984E+005  0.1043930E+01  0.7957747E-01            NaN
         13   -1    0    0    0    0  0.00000000000E+00  0.00000000000E+00  0.74505805969E-08  0.10566000000E+00  0.10566000000E+00 0.  1.
     999900   -1    0    0    0    0 -0.00000000000E+00 -0.00000000000E+00 -0.74505805969E-08  0.93827000000E+00  0.93827000000E+00 0. -1.
     999902    2    1    2    0    0  0.62010688529E-02  0.25749022910E-02  0.22464605852E-01  0.10204834247E+01  0.10202140355E+01 0.  0.
     999903    2    3    3    0    0 -0.28465131080E-01 -0.26256829067E-01 -0.12023628576E+00  0.12784880819E+00  0.19719751032E-01 0.  0.
         14    1    1    2    0    0 -0.62010688529E-02 -0.25749022910E-02 -0.22464605852E-01  0.23446575290E-01  0.00000000000E+00 0. -1.
     999901    1    3    3    0    0  0.34666199933E-01  0.28831731358E-01  0.14270089161E+00  0.89263461652E+00  0.88000000000E+00 0.  1.
        -11    1    4    4    0    0 -0.20460855792E-01 -0.12950473850E-01 -0.45815871739E-01  0.51823900055E-01  0.51100000000E-03 0. -1.
         11    1    4    4    0    0 -0.80042752880E-02 -0.13306355216E-01 -0.74420414022E-01  0.76024908130E-01  0.51100000000E-03 0.  1.
</event>
<event>
 8    1  0.1063984E+005  0.1043930E+01  0.7957747E-01            NaN
         13   -1    0    0    0    0  0.00000000000E+00  0.00000000000E+00  0.74505805969E-08  0.10566000000E+00  0.10566000000E+00 0. -1.
     999900   -1    0    0    0    0 -0.00000000000E+00 -0.00000000000E+00 -0.74505805969E-08  0.93827000000E+00  0.93827000000E+00 0.  1.
     999902    2    1    2    0    0  0.58644292141E-02  0.89631862786E-02  0.21176239477E-01  0.10201989369E+01  0.10199228929E+01 0.  0.
     999903    2    3    3    0    0  0.33348666458E-01  0.90299722659E-01 -0.84662048045E-01  0.12970875808E+00  0.19761732601E-01 0.  0.
         14    1    1    2    0    0 -0.58644292141E-02 -0.89631862786E-02 -0.21176239477E-01  0.23731063117E-01  0.00000000000E+00 0.  1.
     999901    1    3    3    0    0 -0.27484237244E-01 -0.81336536381E-01  0.10583828752E+00  0.89049017881E+00  0.88000000000E+00 0. -1.
        -11    1    4    4    0    0  0.16944907639E-01  0.57946286748E-01 -0.63894114676E-01  0.87906888547E-01  0.51100000000E-03 0.  1.
         11    1    4    4    0    0  0.16403758819E-01  0.32353435911E-01 -0.20767933369E-01  0.41801869528E-01  0.51100000000E-03 0. -1.
</event>
<event>
 8    1  0.1063984E+005  0.1043930E+01  0.7957747E-01            NaN
         13   -1    0    0    0    0  0.00000000000E+00  0.00000000000E+00  0.74505805969E-08  0.10566000000E+00  0.10566000000E+00 0.  1.
     999900   -1    0    0    0    0 -0.00000000000E+00 -0.00000000000E+00 -0.74505805969E-08  0.93827000000E+00  0.93827000000E+00 0. -1.
     999902    2    1    2    0    0 -0.15559568554E-01  0.52678828170E-03 -0.16843273559E-01  0.10209937068E+01  0.10207360461E+01 0.  0.
     999903    2    3    3    0    0 -0.66451701161E-01  0.10979792232E+00  0.22546426055E-01  0.13190330743E+00  0.20462865170E-01 0.  0.
         14    1    1    2    0    0  0.15559568554E-01 -0.52678828170E-03  0.16843273559E-01  0.22936293154E-01  0.00000000000E+00 0.  1.
     999901    1    3    3    0    0  0.50892132607E-01 -0.10927113404E+00 -0.39389699614E-01  0.88909039941E+00  0.88000000000E+00 0. -1.
        -11    1    4    4    0    0 -0.49419952956E-01  0.62443511690E-01  0.13821875327E-01  0.80825919486E-01  0.51100000000E-03 0.  1.
         11    1    4    4    0    0 -0.17031748205E-01  0.47354410628E-01  0.87245507280E-02  0.51077387945E-01  0.51100000000E-03 0. -1.
</event>
<event>
 8    1  0.1063984E+005  0.1043930E+01  0.7957747E-01            NaN
         13   -1    0    0    0    0  0.00000000000E+00  0.00000000000E+00  0.74505805969E-08  0.10566000000E+00  0.10566000000E+00 0.  1.
     999900   -1    0    0    0    0 -0.00000000000E+00 -0.00000000000E+00 -0.74505805969E-08  0.93827000000E+00  0.93827000000E+00 0.  1.
     999902    2    1    2    0    0  0.40327615455E-02  0.92630934336E-02 -0.23697610009E-01  0.10181686960E+01  0.10178427426E+01 0.  0.
     999903    2    3    3    0    0 -0.98807364034E-01  0.79409930248E-01 -0.17949945661E-01  0.12938879869E+00  0.18719734733E-01 0.  0.
         14    1    1    2    0    0 -0.40327615455E-02 -0.92630934336E-02  0.23697610009E-01  0.25761304039E-01  0.00000000000E+00 0.  1.
     999901    1    3    3    0    0  0.10284012558E+00 -0.70146836814E-01 -0.57476643478E-02  0.88877989727E+00  0.88000000000E+00 0.  1.
        -11    1    4    4    0    0 -0.29669267901E-01  0.18213947183E-01  0.21856648982E-02  0.34886266378E-01  0.51100000000E-03 0.  1.
         11    1    4    4    0    0 -0.69138096133E-01  0.61195983065E-01 -0.20135610559E-01  0.94502532314E-01  0.51100000000E-03 0. -1.
</event>
<event>
 8    1  0.1063984E+005  0.1043930E+01  0.7957747E-01            NaN
         13   -1    0    0    0    0  0.00000000000E+00  0.00000000000E+00  0.74505805969E-08  0.10566000000E+00  0.10566000000E+00 0. -1.
     999900   -1    0    0    0    0 -0.00000000000E+00 -0.00000000000E+00 -0.74505805969E-08  0.93827000000E+00  0.93827000000E+00 0.  1.
     999902    2    1    2    0    0  0.62260486300E-02  0.12476908118E-01 -0.19140010754E-01  0.10202492709E+01  0.10199744104E+01 0.  0.
     999903    2    3    3    0    0 -0.75940212863E-01  0.10301507011E+00  0.19436515674E-01  0.13095932850E+00  0.19838018567E-01 0.  0.
         14    1    1    2    0    0 -0.62260486300E-02 -0.12476908118E-01  0.19140010754E-01  0.23680729072E-01  0.00000000000E+00 0.  1.
     999901    1    3    3    0    0  0.82166261493E-01 -0.90538161995E-01 -0.38576526428E-01  0.88928994242E+00  0.88000000000E+00 0.  1.
        -11    1    4    4    0    0 -0.12157476121E-01  0.23275128382E-01  0.11079989545E-01  0.28505492736E-01  0.51100000000E-03 0.  1.
         11    1    4    4    0    0 -0.63782736742E-01  0.79739941731E-01  0.83565261285E-02  0.10245383577E+00  0.51100000000E-03 0. -1.
</event>
<event>
 8    1  0.1063984E+005  0.1043930E+01  0.7957747E-01            NaN
         13   -1    0    0    0    0  0.00000000000E+00  0.00000000000E+00  0.74505805969E-08  0.10566000000E+00  0.10566000000E+00 0. -1.
     999900   -1    0    0    0    0 -0.00000000000E+00 -0.00000000000E+00 -0.74505805969E-08  0.93827000000E+00  0.93827000000E+00 0.  1.
     999902    2    1    2    0    0  0.21808847990E-01 -0.19435658958E-02  0.81650557842E-02  0.10205618286E+01  0.10202942588E+01 0.  0.
     999903    2    3    3    0    0  0.17778857336E-01 -0.11971793640E+00 -0.46089573296E-01  0.13105038519E+00  0.20037031398E-01 0.  0.
         14    1    1    2    0    0 -0.21808847990E-01  0.19435658958E-02 -0.81650557842E-02  0.23368171409E-01  0.00000000000E+00 0. -1.
     999901    1    3    3    0    0  0.40299906547E-02  0.11777437050E+00  0.54254629080E-01  0.88951144340E+00  0.88000000000E+00 0.  1.
        -11    1    4    4    0    0  0.17224221959E-01 -0.11477794226E+00 -0.39130785956E-01  0.12248318000E+00  0.51100000000E-03 0. -1.
         11    1    4    4    0    0  0.55463537704E-03 -0.49399941329E-02 -0.69587873399E-02  0.85672051847E-02  0.51100000000E-03 0.  1.
</event>
<event>
 8    1  0.1063984E+005  0.1043930E+01  0.7957747E-01            NaN
         13   -1    0    0    0    0  0.00000000000E+00  0.00000000000E+00  0.74505805969E-08  0.10566000000E+00  0.10566000000E+00 0.  1.
     999900   -1    0    0    0    0 -0.00000000000E+00 -0.00000000000E+00 -0.74505805969E-08  0.93827000000E+00  0.93827000000E+00 0.  1.
     999902    2    1    2    0    0 -0.91565456887E-02 -0.18590812365E-01 -0.10670543526E-01  0.10206207501E+01  0.10203545434E+01 0.  0.
     999903    2    3    3    0    0  0.51432708320E-01 -0.10662946533E+00 -0.57071153585E-01  0.13294125907E+00  0.20027367030E-01 0.  0.
         14    1    1    2    0    0  0.91565456887E-02  0.18590812365E-01  0.10670543526E-01  0.23309249934E-01  0.00000000000E+00 0.  1.
     999901    1    3    3    0    0 -0.60589254008E-01  0.88038652967E-01  0.46400610059E-01  0.88767949099E+00  0.88000000000E+00 0. -1.
        -11    1    4    4    0    0  0.38484460495E-01 -0.75070537132E-01 -0.30525941245E-01  0.89714733767E-01  0.51100000000E-03 0. -1.
         11    1    4    4    0    0  0.12948247824E-01 -0.31558928199E-01 -0.26545212340E-01  0.43226525305E-01  0.51100000000E-03 0.  1.
</event>
<event>
 8    1  0.1063984E+005  0.1043930E+01  0.7957747E-01            NaN
         13   -1    0    0    0    0  0.00000000000E+00  0.00000000000E+00  0.74505805969E-08  0.10566000000E+00  0.10566000000E+00 0.  1.
     999900   -1    0    0    0    0 -0.00000000000E+00 -0.00000000000E+00 -0.74505805969E-08  0.93827000000E+00  0.93827000000E+00 0.  1.
     999902    2    1    2    0    0  0.17374417862E-01 -0.70107954072E-02 -0.96617843260E-02  0.10228498737E+01  0.10226326283E+01 0.  0.
     999903    2    3    3    0    0  0.43342747554E-01 -0.50586074006E-01  0.11373069534E+00  0.13279433438E+00  0.16190105973E-01 0.  0.
         14    1    1    2    0    0 -0.17374417862E-01  0.70107954072E-02  0.96617843260E-02  0.21080126296E-01  0.00000000000E+00 0. -1.
     999901    1    3    3    0    0 -0.25968329692E-01  0.43575278599E-01 -0.12339247966E+00  0.89005553933E+00  0.88000000000E+00 0.  1.
        -11    1    4    4    0    0  0.32938594930E-01 -0.26733246936E-01  0.66948729055E-01  0.79259138090E-01  0.51100000000E-03 0. -1.
         11    1    4    4    0    0  0.10404152624E-01 -0.23852827071E-01  0.46781966282E-01  0.53535196285E-01  0.51100000000E-03 0.  1.
</event>
<event>
 8    1  0.1063984E+005  0.1043930E+01  0.7957747E-01            NaN
         13   -1    0    0    0    0  0.00000000000E+00  0.00000000000E+00  0.74505805969E-08  0.10566000000E+00  0.10566000000E+00 0. -1.
     999900   -1    0    0    0    0 -0.00000000000E+00 -0.00000000000E+00 -0.74505805969E-08  0.93827000000E+00  0.93827000000E+00 0. -1.
     999902    2    1    2    0    0  0.19705755395E-02  0.16808811954E-01  0.17721391184E-01  0.10194255712E+01  0.10191310162E+01 0.  0.
     999903    2    3    3    0    0  0.12626653033E+00  0.20251013632E-01 -0.13491832515E-01  0.13013619280E+00  0.20001472400E-01 0.  0.
         14    1    1    2    0    0 -0.19705755395E-02 -0.16808811954E-01 -0.17721391184E-01  0.24504428840E-01  0.00000000000E+00 0.  1.
     999901    1    3    3    0    0 -0.12429595479E+00 -0.34422016786E-02  0.31213223699E-01  0.88928937836E+00  0.88000000000E+00 0.  1.
        -11    1    4    4    0    0  0.16998012285E-01  0.12948157496E-02  0.48425619980E-02  0.17729086191E-01  0.51100000000E-03 0. -1.
         11    1    4    4    0    0  0.10926851804E+00  0.18956197883E-01 -0.18334394513E-01  0.11240710661E+00  0.51100000000E-03 0.  1.
</event>
<event>
 8    1  0.1063984E+005  0.1043930E+01  0.7957747E-01            NaN
         13   -1    0    0    0    0  0.00000000000E+00  0.00000000000E+00  0.74505805969E-08  0.10566000000E+00  0.10566000000E+00 0.  1.
     999900   -1    0    0    0    0 -0.00000000000E+00 -0.00000000000E+00 -0.74505805969E-08  0.93827000000E+00  0.93827000000E+00 0. -1.
     999902    2    1    2    0    0  0.18922804261E-01 -0.44051237502E-02 -0.14729146678E-01  0.10195491592E+01  0.10192576037E+01 0.  0.
     999903    2    3    3    0    0 -0.24088128245E-01  0.11487219751E+00 -0.51600685093E-01  0.12969718835E+00  0.19567071331E-01 0.  0.
         14    1    1    2    0    0 -0.18922804261E-01  0.44051237502E-02  0.14729146678E-01  0.24380840802E-01  0.00000000000E+00 0.  1.
     999901    1    3    3    0    0  0.43010932506E-01 -0.11927732126E+00  0.36871538415E-01  0.88985197085E+00  0.88000000000E+00 0.  1.
        -11    1    4    4    0    0 -0.19758960204E-01  0.62068356438E-01 -0.36192103184E-01  0.74518634134E-01  0.51100000000E-03 0. -1.
         11    1    4    4    0    0 -0.43291680411E-02  0.52803841070E-01 -0.15408581909E-01  0.55178554214E-01  0.51100000000E-03 0.  1.
</event>
<event>
 8    1  0.1063984E+005  0.1043930E+01  0.7957747E-01            NaN
         13   -1    0    0    0    0  0.00000000000E+00  0.00000000000E+00  0.74505805969E-08  0.10566000000E+00  0.10566000000E+00 0. -1.
     999900   -1    0    0    0    0 -0.00000000000E+00 -0.00000000000E+00 -0.74505805969E-08  0.93827000000E+00  0.93827000000E+00 0. -1.
     999902    2    1    2    0    0 -0.88618575726E-02 -0.74409504027E-02 -0.19698856382E-01  0.10210838799E+01  0.10208282640E+01 0.  0.
     999903    2    3    3    0    0  0.73302656447E-01 -0.10662381528E+00 -0.14294172445E-01  0.13169225709E+00  0.19915064287E-01 0.  0.
         14    1    1    2    0    0  0.88618575726E-02  0.74409504027E-02  0.19698856382E-01  0.22846120136E-01  0.00000000000E+00 0. -1.
     999901    1    3    3    0    0 -0.82164514020E-01  0.99182864874E-01 -0.54046839366E-02  0.88939162277E+00  0.88000000000E+00 0. -1.
        -11    1    4    4    0    0  0.32036272086E-01 -0.34613066869E-01  0.15659118407E-02  0.47192163843E-01  0.51100000000E-03 0. -1.
         11    1    4    4    0    0  0.41266384361E-01 -0.72010748408E-01 -0.15860084286E-01  0.84500093249E-01  0.51100000000E-03 0.  1.
</event>
<event>
 8    1  0.1063984E+005  0.1043930E+01  0.7957747E-01            NaN
         13   -1    0    0    0    0  0.00000000000E+00  0.00000000000E+00  0.74505805969E-08  0.10566000000E+00  0.10566000000E+00 0.  1.
     999900   -1    0    0    0    0 -0.00000000000E+00 -0.00000000000E+00 -0.74505805969E-08  0.93827000000E+00  0.93827000000E+00 0.  1.
     999902    2    1    2    0    0 -0.78058768862E-02  0.11869748512E-02 -0.23120524090E-01  0.10194984782E+01  0.10192056945E+01 0.  0.
     999903    2    3    3    0    0  0.68573423475E-01 -0.98814436703E-01  0.40037170446E-01  0.12830659414E+00  0.19824221912E-01 0.  0.
         14    1    1    2    0    0  0.78058768862E-02 -0.11869748512E-02  0.23120524090E-01  0.24431521800E-01  0.00000000000E+00 0.  1.
     999901    1    3    3    0    0 -0.76379300361E-01  0.10000141155E+00 -0.63157694536E-01  0.89119188406E+00  0.88000000000E+00 0.  1.
        -11    1    4    4    0    0  0.27869090008E-01 -0.49017907836E-01  0.27664336148E-01  0.62809378933E-01  0.51100000000E-03 0.  1.
         11    1    4    4    0    0  0.40704333467E-01 -0.49796528867E-01  0.12372834297E-01  0.65497215206E-01  0.51100000000E-03 0. -1.
</event>
<event>
 8    1  0.1063984E+005  0.1043930E+01  0.7957747E-01            NaN
         13   -1    0    0    0    0  0.00000000000E+00  0.00000000000E+00  0.74505805969E-08  0.10566000000E+00  0.10566000000E+00 0. -1.
     999900   -1    0    0    0    0 -0.00000000000E+00 -0.00000000000E+00 -0.74505805969E-08  0.93827000000E+00  0.93827000000E+00 0.  1.
     999902    2    1    2    0    0  0.94443748931E-02 -0.20729229028E-01 -0.51596445913E-02  0.10205736500E+01  0.10203063540E+01 0.  0.
     999903    2    3    3    0    0 -0.52267774477E-01  0.93816465977E-01 -0.67851543239E-01  0.12880048389E+00  0.21266950744E-01 0.  0.
         14    1    1    2    0    0 -0.94443748931E-02  0.20729229028E-01  0.51596445913E-02  0.23356350004E-01  0.00000000000E+00 0. -1.
     999901    1    3    3    0    0  0.61712149370E-01 -0.11454569501E+00  0.62691898648E-01  0.89177316610E+00  0.88000000000E+00 0.  1.
        -11    1    4    4    0    0 -0.43708812560E-01  0.71122229491E-01 -0.42372074147E-01  0.93618831502E-01  0.51100000000E-03 0. -1.
         11    1    4    4    0    0 -0.85589619162E-02  0.22694236486E-01 -0.25479469092E-01  0.35181652391E-01  0.51100000000E-03 0.  1.
</event>
<event>
 8    1  0.1063984E+005  0.1043930E+01  0.7957747E-01            NaN
         13   -1    0    0    0    0  0.00000000000E+00  0.00000000000E+00  0.74505805969E-08  0.10566000000E+00  0.10566000000E+00 0. -1.
     999900   -1    0    0    0    0 -0.00000000000E+00 -0.00000000000E+00 -0.74505805969E-08  0.93827000000E+00  0.93827000000E+00 0.  1.
     999902    2    1    2    0    0 -0.15652190184E-02 -0.20334527883E-01 -0.10644640742E-01  0.10209245374E+01  0.10206653025E+01 0.  0.
     999903    2    3    3    0    0  0.85987069494E-01 -0.32834411208E-02 -0.98126411480E-01  0.13209991855E+00  0.20421526537E-01 0.  0.
         14    1    1    2    0    0  0.15652190184E-02  0.20334527883E-01  0.10644640742E-01  0.23005462641E-01  0.00000000000E+00 0. -1.
     999901    1    3    3    0    0 -0.87552288512E-01 -0.17051086762E-01  0.87481770738E-01  0.88882461881E+00  0.88000000000E+00 0. -1.
        -11    1    4    4    0    0  0.24292304111E-01  0.37721776336E-02 -0.40513128110E-01  0.47391138764E-01  0.51100000000E-03 0.  1.
         11    1    4    4    0    0  0.61694765383E-01 -0.70556187544E-02 -0.57613283371E-01  0.84708779789E-01  0.51100000000E-03 0. -1.
</event>
<event>
 8    1  0.1063984E+005  0.1043930E+01  0.7957747E-01            NaN
         13   -1    0    0    0    0  0.00000000000E+00  0.00000000000E+00  0.74505805969E-08  0.10566000000E+00  0.10566000000E+00 0.  1.
     999900   -1    0    0    0    0 -0.00000000000E+00 -0.00000000000E+00 -0.74505805969E-08  0.93827000000E+00  0.93827000000E+00 0.  1.
     999902    2    1    2    0    0 -0.19148577141E-02  0.11971423374E-02  0.23080006642E-01  0.10207397750E+01  0.10204763112E+01 0.  0.
     999903    2    3    3    0    0  0.75263639000E-01  0.52629327928E-01 -0.87907847507E-01  0.12893256833E+00  0.21479199438E-01 0.  0.
         14    1    1    2    0    0  0.19148577141E-02 -0.11971423374E-02 -0.23080006642E-01  0.23190225020E-01  0.00000000000E+00 0. -1.
     999901    1    3    3    0    0 -0.77178496714E-01 -0.51432185591E-01  0.11098785415E+00  0.89180720665E+00  0.88000000000E+00 0. -1.
        -11    1    4    4    0    0  0.40637547914E-01  0.40883339128E-01 -0.56708610082E-01  0.80863992587E-01  0.51100000000E-03 0.  1.
         11    1    4    4    0    0  0.34626091086E-01  0.11745988800E-01 -0.31199237425E-01  0.48068575740E-01  0.51100000000E-03 0. -1.
</event>
<event>
 8    1  0.1063984E+005  0.1043930E+01  0.7957747E-01            NaN
         13   -1    0    0    0    0  0.00000000000E+00  0.00000000000E+00  0.74505805969E-08  0.10566000000E+00  0.10566000000E+00 0.  1.
     999900   -1    0    0    0    0 -0.00000000000E+00 -0.00000000000E+00 -0.74505805969E-08  0.93827000000E+00  0.93827000000E+00 0.  1.
     999902    2    1    2    0    0 -0.11859527772E-01 -0.20875079815E-01  0.30078859233E-02  0.10197336215E+01  0.10194465136E+01 0.  0.
     999903    2    3    3    0    0 -0.50983273079E-01  0.10383194984E+00  0.52487572981E-01  0.12870570377E+00  0.20732701788E-01 0.  0.
         14    1    1    2    0    0  0.11859527772E-01  0.20875079815E-01 -0.30078859233E-02  0.24196378531E-01  0.00000000000E+00 0. -1.
     999901    1    3    3    0    0  0.39123745306E-01 -0.12470702966E+00 -0.49479687057E-01  0.89102791770E+00  0.88000000000E+00 0.  1.
        -11    1    4    4    0    0 -0.26260286783E-01  0.74612544986E-01  0.32430072721E-01  0.85490381148E-01  0.51100000000E-03 0. -1.
         11    1    4    4    0    0 -0.24722986295E-01  0.29219404855E-01  0.20057500259E-01  0.43215322619E-01  0.51100000000E-03 0.  1.
</event>
<event>
 8    1  0.1063984E+005  0.1043930E+01  0.7957747E-01            NaN
         13   -1    0    0    0    0  0.00000000000E+00  0.00000000000E+00  0.74505805969E-08  0.10566000000E+00  0.10566000000E+00 0.  1.
     999900   -1    0    0    0    0 -0.00000000000E+00 -0.00000000000E+00 -0.74505805969E-08  0.93827000000E+00  0.93827000000E+00 0.  1.
     999902    2    1    2    0    0  0.78776980703E-02  0.14329309225E-01  0.63282245495E-02  0.10263962139E+01  0.10262464393E+01 0.  0.
     999903    2    3    3    0    0  0.59646004927E-01 -0.47784352057E-01  0.11143656043E+00  0.13646035845E+00  0.19035026182E-01 0.  0.
         14    1    1    2    0    0 -0.78776980703E-02 -0.14329309225E-01 -0.63282245495E-02  0.17533786120E-01  0.00000000000E+00 0. -1.
     999901    1    3    3    0    0 -0.51768306857E-01  0.62113661282E-01 -0.10510833588E+00  0.88993585543E+00  0.88000000000E+00 0.  1.
        -11    1    4    4    0    0  0.35568090889E-01 -0.24881617532E-01  0.78302175054E-01  0.89530306152E-01  0.51100000000E-03 0.  1.
         11    1    4    4    0    0  0.24077914039E-01 -0.22902734525E-01  0.33134385376E-01  0.46930052295E-01  0.51100000000E-03 0. -1.
</event>
<event>
 8    1  0.1063984E+005  0.1043930E+01  0.7957747E-01            NaN
         13   -1    0    0    0    0  0.00000000000E+00  0.00000000000E+00  0.74505805969E-08  0.10566000000E+00  0.10566000000E+00 0. -1.
     999900   -1    0    0    0    0 -0.00000000000E+00 -0.00000000000E+00 -0.74505805969E-08  0.93827000000E+00  0.93827000000E+00 0.  1.
     999902    2    1    2    0    0 -0.19300099984E-01 -0.14365665591E-01  0.26206588682E-02  0.10197280567E+01  0.10194408151E+01 0.  0.
     999903    2    3    3    0    0 -0.34990511242E-01  0.11462636993E-01  0.12400528241E+00  0.13088188493E+00  0.19925606934E-01 0.  0.
         14    1    1    2    0    0  0.19300099984E-01  0.14365665591E-01 -0.26206588682E-02  0.24201943314E-01  0.00000000000E+00 0. -1.
     999901    1    3    3    0    0  0.15690411258E-01 -0.25828302584E-01 -0.12138462354E+00  0.88884617176E+00  0.88000000000E+00 0.  1.
        -11    1    4    4    0    0 -0.28775195084E-02 -0.33181925117E-02  0.32233419399E-01  0.32535288030E-01  0.51100000000E-03 0.  1.
         11    1    4    4    0    0 -0.32112991734E-01  0.14780829504E-01  0.91771863014E-01  0.98346596895E-01  0.51100000000E-03 0. -1.
</event>
<event>
 8    1  0.1063984E+005  0.1043930E+01  0.7957747E-01            NaN
         13   -1    0    0    0    0  0.00000000000E+00  0.00000000000E+00  0.74505805969E-08  0.10566000000E+00  0.10566000000E+00 0. -1.
     999900   -1    0    0    0    0 -0.00000000000E+00 -0.00000000000E+00 -0.74505805969E-08  0.93827000000E+00  0.93827000000E+00 0.  1.
     999902    2    1    2    0    0  0.54272836951E-02 -0.21494135946E-01  0.78412428748E-02  0.10204153582E+01  0.10201443843E+01 0.  0.
     999903    2    3    3    0    0 -0.17363716421E-01  0.10977810594E+00 -0.59641130557E-01  0.12783163559E+00  0.20763704204E-01 0.  0.
         14    1    1    2    0    0 -0.54272836951E-02  0.21494135946E-01 -0.78412428748E-02  0.23514641783E-01  0.00000000000E+00 0. -1.
     999901    1    3    3    0    0  0.22791000116E-01 -0.13127224188E+00  0.67482373432E-01  0.89258372263E+00  0.88000000000E+00 0. -1.
        -11    1    4    4    0    0 -0.13146413216E-01  0.81326349918E-01 -0.33409367174E-01  0.88900226700E-01  0.51100000000E-03 0.  1.
         11    1    4    4    0    0 -0.42173032055E-02  0.28451756019E-01 -0.26231763383E-01  0.38931408889E-01  0.51100000000E-03 0. -1.
</event>
<event>
 8    1  0.1063984E+005  0.1043930E+01  0.7957747E-01            NaN
         13   -1    0    0    0    0  0.00000000000E+00  0.00000000000E+00  0.74505805969E-08  0.10566000000E+00  0.10566000000E+00 0.  1.
     999900   -1    0    0    0    0 -0.00000000000E+00 -0.00000000000E+00 -0.74505805969E-08  0.93827000000E+00  0.93827000000E+00 0.  1.
     999902    2    1    2    0    0  0.78022136452E-02  0.22088370893E-01 -0.38653303299E-02  0.10201873918E+01  0.10199110760E+01 0.  0.
     999903    2    3    3    0    0 -0.52230043616E-02  0.12547254838E+00  0.38108484501E-01  0.13304605829E+00  0.21871370843E-01 0.  0.
         14    1    1    2    0    0 -0.78022136452E-02 -0.22088370893E-01  0.38653303299E-02  0.23742608219E-01  0.00000000000E+00 0.  1.
     999901    1    3    3    0    0  0.13025218007E-01 -0.10338417749E+00 -0.41973814830E-01  0.88714133349E+00  0.88000000000E+00 0. -1.
        -11    1    4    4    0    0  0.55384998542E-02  0.94757700168E-01  0.28124595961E-01  0.98999751215E-01  0.51100000000E-03 0. -1.
         11    1    4    4    0    0 -0.10761504216E-01  0.30714848217E-01  0.99838885397E-02  0.34046307073E-01  0.51100000000E-03 0.  1.
</event>
<event>
 8    1  0.1063984E+005  0.1043930E+01  0.7957747E-01            NaN
         13   -1    0    0    0    0  0.00000000000E+00  0.00000000000E+00  0.74505805969E-08  0.10566000000E+00  0.10566000000E+00 0.  1.
     999900   -1    0    0    0    0 -0.00000000000E+00 -0.00000000000E+00 -0.74505805969E-08  0.93827000000E+00  0.93827000000E+00 0. -1.
     999902    2    1    2    0    0  0.18504898959E-01  0.15276255328E-01  0.27614547257E-02  0.10197758928E+01  0.10194897992E+01 0.  0.
     999903    2    3    3    0    0  0.10071514852E+00  0.41585803319E-01 -0.72388916139E-01  0.13236488561E+00  0.20183844633E-01 0.  0.
         14    1    1    2    0    0 -0.18504898959E-01 -0.15276255328E-01 -0.27614547257E-02  0.24154107198E-01  0.00000000000E+00 0. -1.
     999901    1    3    3    0    0 -0.82210249556E-01 -0.26309547990E-01  0.75150370865E-01  0.88741100719E+00  0.88000000000E+00 0. -1.
        -11    1    4    4    0    0  0.18643307031E-01  0.27687441614E-02 -0.56456295061E-02  0.19681796026E-01  0.51100000000E-03 0.  1.
         11    1    4    4    0    0  0.82071841484E-01  0.38817059157E-01 -0.66743286633E-01  0.11268308958E+00  0.51100000000E-03 0. -1.
</event>
<event>
 8    1  0.1063984E+005  0.1043930E+01  0.7957747E-01            NaN
         13   -1    0    0    0    0  0.00000000000E+00  0.00000000000E+00  0.74505805969E-08  0.10566000000E+00  0.10566000000E+00 0.  1.
     999900   -1    0    0    0    0 -0.00000000000E+00 -0.00000000000E+00 -0.74505805969E-08  0.93827000000E+00  0.93827000000E+00 0.  1.
     999902    2    1    2    0    0  0.60557514640E-03 -0.22594689403E-01  0.25882365755E-02  0.10211794906E+01  0.10209260337E+01 0.  0.
     999903    2    3    3    0    0 -0.97489759811E-01 -0.88717429816E-01 -0.20775330503E-02  0.13325118213E+00  0.19404272033E-01 0.  0.
         14    1    1    2    0    0 -0.60557514640E-03  0.22594689403E-01 -0.25882365755E-02  0.22750509424E-01  0.00000000000E+00 0. -1.
     999901    1    3    3    0    0  0.98095334958E-01  0.66122740413E-01  0.46657696258E-02  0.88792830845E+00  0.88000000000E+00 0.  1.
        -11    1    4    4    0    0 -0.89066389869E-01 -0.80252107162E-01 -0.75038719851E-02  0.12012406805E+00  0.51100000000E-03 0. -1.
         11    1    4    4    0    0 -0.84233699426E-02 -0.84653226544E-02  0.54263389348E-02  0.13127114080E-01  0.51100000000E-03 0.  1.
</event>
<event>
 8    1  0.1063984E+005  0.1043930E+01  0.7957747E-01            NaN
         13   -1    0    0    0    0  0.00000000000E+00  0.00000000000E+00  0.74505805969E-08  0.10566000000E+00  0.10566000000E+00 0.  1.
     999900   -1    0    0    0    0 -0.00000000000E+00 -0.00000000000E+00 -0.74505805969E-08  0.93827000000E+00  0.93827000000E+00 0. -1.
     999902    2    1    2    0    0  0.68669161214E-03  0.21702062316E-01  0.95751984384E-02  0.10201995243E+01  0.10199234941E+01 0.  0.
     999903    2    3    3    0    0 -0.39113847271E-01  0.12588455559E+00  0.18284585239E-02  0.13312676129E+00  0.18508833804E-01 0.  0.
         14    1    1    2    0    0 -0.68669161214E-03 -0.21702062316E-01 -0.95751984384E-02  0.23730475749E-01  0.00000000000E+00 0. -1.
     999901    1    3    3    0    0  0.39800538883E-01 -0.10418249327E+00  0.77467399145E-02  0.88707276296E+00  0.88000000000E+00 0. -1.
        -11    1    4    4    0    0 -0.36942954168E-01  0.95900707638E-01  0.50011797659E-02  0.10289315093E+00  0.51100000000E-03 0. -1.
         11    1    4    4    0    0 -0.21708931032E-02  0.29983847948E-01 -0.31727212420E-02  0.30233610365E-01  0.51100000000E-03 0.  1.
</event>
<event>
 8    1  0.1063984E+005  0.1043930E+01  0.7957747E-01            NaN
         13   -1    0    0    0    0  0.00000000000E+00  0.00000000000E+00  0.74505805969E-08  0.10566000000E+00  0.10566000000E+00 0.  1.
     999900   -1    0    0    0    0 -0.00000000000E+00 -0.00000000000E+00 -0.74505805969E-08  0.93827000000E+00  0.93827000000E+00 0.  1.
     999902    2    1    2    0    0 -0.18544372316E-01 -0.22195490770E-02 -0.13823214142E-01  0.10206942217E+01  0.10204297099E+01 0.  0.
     999903    2    3    3    0    0  0.16024352497E-01 -0.79027953042E-01 -0.10295403553E+00  0.13219051832E+00  0.19302913399E-01 0.  0.
         14    1    1    2    0    0  0.18544372316E-01  0.22195490770E-02  0.13823214142E-01  0.23235778272E-01  0.00000000000E+00 0.  1.
     999901    1    3    3    0    0 -0.34568724812E-01  0.76808403965E-01  0.89130821388E-01  0.88850370341E+00  0.88000000000E+00 0. -1.
        -11    1    4    4    0    0  0.12365770083E-01 -0.50891251518E-01 -0.51634266828E-01  0.73547198333E-01  0.51100000000E-03 0. -1.
         11    1    4    4    0    0  0.36585824141E-02 -0.28136701525E-01 -0.51319768702E-01  0.58643319983E-01  0.51100000000E-03 0.  1.
</event>
<event>
 8    1  0.1063984E+005  0.1043930E+01  0.7957747E-01            NaN
         13   -1    0    0    0    0  0.00000000000E+00  0.00000000000E+00  0.74505805969E-08  0.10566000000E+00  0.10566000000E+00 0. -1.
     999900   -1    0    0    0    0 -0.00000000000E+00 -0.00000000000E+00 -0.74505805969E-08  0.93827000000E+00  0.93827000000E+00 0.  1.
     999902    2    1    2    0    0  0.14915893359E-01 -0.41527073550E-02  0.17962972588E-01  0.10202150841E+01  0.10199394200E+01 0.  0.
     999903    2    3    3    0    0  0.10313366583E+00 -0.15246283437E-01 -0.76319351877E-01  0.13072388147E+00  0.19876808832E-01 0.  0.
         14    1    1    2    0    0 -0.14915893359E-01  0.41527073550E-02 -0.17962972588E-01  0.23714915924E-01  0.00000000000E+00 0. -1.
     999901    1    3    3    0    0 -0.88217772470E-01  0.11093576082E-01  0.94282324465E-01  0.88949120261E+00  0.88000000000E+00 0. -1.
        -11    1    4    4    0    0  0.65283879481E-01 -0.18484633176E-01 -0.44244007099E-01  0.81002838647E-01  0.51100000000E-03 0. -1.
         11    1    4    4    0    0  0.37849786348E-01  0.32383497387E-02 -0.32075344779E-01  0.49721042822E-01  0.51100000000E-03 0.  1.
</event>
<event>
 8    1  0.1063984E+005  0.1043930E+01  0.7957747E-01            NaN
         13   -1    0    0    0    0  0.00000000000E+00  0.00000000000E+00  0.74505805969E-08  0.10566000000E+00  0.10566000000E+00 0. -1.
     999900   -1    0    0    0    0 -0.00000000000E+00 -0.00000000000E+00 -0.74505805969E-08  0.93827000000E+00  0.93827000000E+00 0. -1.
     999902    2    1    2    0    0 -0.26333011728E-02  0.11856294466E-01 -0.17888839276E-01  0.10223078686E+01  0.10220791856E+01 0.  0.
     999903    2    3    3    0    0 -0.13200882944E+00 -0.26420352318E-02 -0.16407856981E-02  0.13258193999E+00  0.11915000443E-01 0.  0.
         14    1    1    2    0    0  0.26333011728E-02 -0.11856294466E-01  0.17888839276E-01  0.21622131351E-01  0.00000000000E+00 0. -1.
     999901    1    3    3    0    0  0.12937552826E+00  0.14498329698E-01 -0.16248053578E-01  0.88972592866E+00  0.88000000000E+00 0.  1.
        -11    1    4    4    0    0 -0.63752348360E-01 -0.48004864011E-02  0.39791648676E-02  0.64058578389E-01  0.51100000000E-03 0. -1.
         11    1    4    4    0    0 -0.68256481075E-01  0.21584511693E-02 -0.56199505656E-02  0.68523361604E-01  0.51100000000E-03 0.  1.
</event>
<event>
 8    1  0.1063984E+005  0.1043930E+01  0.7957747E-01            NaN
         13   -1    0    0    0    0  0.00000000000E+00  0.00000000000E+00  0.74505805969E-08  0.10566000000E+00  0.10566000000E+00 0.  1.
     999900   -1    0    0    0    0 -0.00000000000E+00 -0.00000000000E+00 -0.74505805969E-08  0.93827000000E+00  0.93827000000E+00 0.  1.
     999902    2    1    2    0    0 -0.55368523522E-02  0.16645811100E-01  0.13505996687E-01  0.10217906299E+01  0.10215507524E+01 0.  0.
     999903    2    3    3    0    0  0.88687907564E-01  0.31412378412E-01 -0.88559777910E-01  0.13077223547E+00  0.20155913324E-01 0.  0.
         14    1    1    2    0    0  0.55368523522E-02 -0.16645811100E-01 -0.13505996687E-01  0.22139370083E-01  0.00000000000E+00 0. -1.
     999901    1    3    3    0    0 -0.94224759916E-01 -0.14766567312E-01  0.10206577460E+00  0.89101839444E+00  0.88000000000E+00 0. -1.
        -11    1    4    4    0    0  0.38035138325E-01  0.24055582427E-01 -0.43006065648E-01  0.62250506799E-01  0.51100000000E-03 0.  1.
         11    1    4    4    0    0  0.50652769239E-01  0.73567959858E-02 -0.45553712262E-01  0.68521728675E-01  0.51100000000E-03 0. -1.
</event>
<event>
 8    1  0.1063984E+005  0.1043930E+01  0.7957747E-01            NaN
         13   -1    0    0    0    0  0.00000000000E+00  0.00000000000E+00  0.74505805969E-08  0.10566000000E+00  0.10566000000E+00 0.  1.
     999900   -1    0    0    0    0 -0.00000000000E+00 -0.00000000000E+00 -0.74505805969E-08  0.93827000000E+00  0.93827000000E+00 0.  1.
     999902    2    1    2    0    0 -0.22038420645E-01 -0.39274430435E-02  0.77019510339E-02  0.10202564527E+01  0.10199817608E+01 0.  0.
     999903    2    3    3    0    0  0.78821486575E-01 -0.59335814079E-01 -0.79824228277E-01  0.12845847077E+00  0.19902404715E-01 0.  0.
         14    1    1    2    0    0  0.22038420645E-01  0.39274430435E-02 -0.77019510339E-02  0.23673547328E-01  0.00000000000E+00 0. -1.
     999901    1    3    3    0    0 -0.10085990722E+00  0.55408371036E-01  0.87526179311E-01  0.89179798191E+00  0.88000000000E+00 0. -1.
        -11    1    4    4    0    0  0.45783150960E-01 -0.43021439628E-01 -0.41523575955E-01  0.75308762177E-01  0.51100000000E-03 0. -1.
         11    1    4    4    0    0  0.33038335614E-01 -0.16314374451E-01 -0.38300652323E-01  0.53149708590E-01  0.51100000000E-03 0.  1.
</event>
<event>
 8    1  0.1165892E+005  0.1043930E+01  0.7957747E-01            NaN
         13   -1    0    0    0    0  0.00000000000E+00  0.00000000000E+00  0.74505805969E-08  0.10566000000E+00  0.10566000000E+00 0.  1.
     999900   -1    0    0    0    0 -0.00000000000E+00 -0.00000000000E+00 -0.74505805969E-08  0.93827000000E+00  0.93827000000E+00 0.  1.
     999902    2    1    2    0    0  0.84081688362E-02 -0.23917374892E-02  0.27920937430E-01  0.10146725828E+01  0.10142506859E+01 0.  0.
     999903    2    3    3    0    0 -0.90531075122E-01  0.27477565506E-02 -0.79432919629E-01  0.12262984900E+00  0.22914305909E-01 0.  0.
         14    1    1    2    0    0 -0.84081688362E-02  0.23917374892E-02 -0.27920937430E-01  0.29257417151E-01  0.00000000000E+00 0. -1.
     999901    1    3    3    0    0  0.98939243958E-01 -0.51394940398E-02  0.10735385706E+00  0.89204273385E+00  0.88000000000E+00 0. -1.
        -11    1    4    4    0    0 -0.31169653312E-01  0.11882538037E-01 -0.28783744105E-01  0.44062535599E-01  0.51100000000E-03 0. -1.
         11    1    4    4    0    0 -0.59361421810E-01 -0.91347814860E-02 -0.50649175525E-01  0.78567313397E-01  0.51100000000E-03 0.  1.
</event>
<event>
 8    1  0.1063984E+005  0.1043930E+01  0.7957747E-01            NaN
         13   -1    0    0    0    0  0.00000000000E+00  0.00000000000E+00  0.74505805969E-08  0.10566000000E+00  0.10566000000E+00 0. -1.
     999900   -1    0    0    0    0 -0.00000000000E+00 -0.00000000000E+00 -0.74505805969E-08  0.93827000000E+00  0.93827000000E+00 0.  1.
     999902    2    1    2    0    0 -0.21230396320E-01 -0.91049077054E-02 -0.41563092201E-02  0.10204586562E+01  0.10201886909E+01 0.  0.
     999903    2    3    3    0    0 -0.10149388929E+00  0.82047378705E-01 -0.30744745890E-02  0.13211630218E+00  0.20309677341E-01 0.  0.
         14    1    1    2    0    0  0.21230396320E-01  0.91049077054E-02  0.41563092201E-02  0.23471343774E-01  0.00000000000E+00 0.  1.
     999901    1    3    3    0    0  0.80263492966E-01 -0.91152286411E-01 -0.10818346311E-02  0.88834235404E+00  0.88000000000E+00 0. -1.
        -11    1    4    4    0    0 -0.55654653468E-01  0.55139705738E-01  0.42357358571E-02  0.78460373315E-01  0.51100000000E-03 0. -1.
         11    1    4    4    0    0 -0.45839235818E-01  0.26907672967E-01 -0.73102104461E-02  0.53655928867E-01  0.51100000000E-03 0.  1.
</event>
<event>
 8    1  0.1063984E+005  0.1043930E+01  0.7957747E-01            NaN
         13   -1    0    0    0    0  0.00000000000E+00  0.00000000000E+00  0.74505805969E-08  0.10566000000E+00  0.10566000000E+00 0. -1.
     999900   -1    0    0    0    0 -0.00000000000E+00 -0.00000000000E+00 -0.74505805969E-08  0.93827000000E+00  0.93827000000E+00 0. -1.
     999902    2    1    2    0    0 -0.17191824841E-01 -0.16178826950E-01  0.23460335775E-02  0.10202062322E+01  0.10199303600E+01 0.  0.
     999903    2    3    3    0    0 -0.13924723343E-01  0.68203347645E-01  0.10791185724E+00  0.12988316253E+00  0.19469782380E-01 0.  0.
         14    1    1    2    0    0  0.17191824841E-01  0.16178826950E-01 -0.23460335775E-02  0.23723767753E-01  0.00000000000E+00 0.  1.
     999901    1    3    3    0    0 -0.32671014977E-02 -0.84382174594E-01 -0.10556582366E+00  0.89032306972E+00  0.88000000000E+00 0.  1.
        -11    1    4    4    0    0 -0.14111841435E-01  0.42253705243E-01  0.53671461120E-01  0.69752466158E-01  0.51100000000E-03 0.  1.
         11    1    4    4    0    0  0.18711809150E-03  0.25949642401E-01  0.54240396122E-01  0.60130696374E-01  0.51100000000E-03 0. -1.
</event>
<event>
 8    1  0.1063984E+005  0.1043930E+01  0.7957747E-01            NaN
         13   -1    0    0    0    0  0.00000000000E+00  0.00000000000E+00  0.74505805969E-08  0.10566000000E+00  0.10566000000E+00 0. -1.
     999900   -1    0    0    0    0 -0.00000000000E+00 -0.00000000000E+00 -0.74505805969E-08  0.93827000000E+00  0.93827000000E+00 0. -1.
     999902    2    1    2    0    0  0.18625139197E-01 -0.12669179469E-01 -0.86678407653E-02  0.10197942302E+01  0.10195085761E+01 0.  0.
     999903    2    3    3    0    0 -0.56855328416E-01 -0.98062162028E-01  0.59942142748E-01  0.12979614468E+00  0.20131137702E-01 0.  0.
         14    1    1    2    0    0 -0.18625139197E-01  0.12669179469E-01  0.86678407653E-02  0.24135769763E-01  0.00000000000E+00 0. -1.
     999901    1    3    3    0    0  0.75480467613E-01  0.85392982559E-01 -0.68609983514E-01  0.88999808556E+00  0.88000000000E+00 0. -1.
        -11    1    4    4    0    0 -0.40351667037E-01 -0.78796965259E-01  0.38348201961E-01  0.96478310937E-01  0.51100000000E-03 0. -1.
         11    1    4    4    0    0 -0.16503661379E-01 -0.19265196769E-01  0.21593940787E-01  0.33317833741E-01  0.51100000000E-03 0.  1.
</event>
<event>
 8    1  0.1063984E+005  0.1043930E+01  0.7957747E-01            NaN
         13   -1    0    0    0    0  0.00000000000E+00  0.00000000000E+00  0.74505805969E-08  0.10566000000E+00  0.10566000000E+00 0. -1.
     999900   -1    0    0    0    0 -0.00000000000E+00 -0.00000000000E+00 -0.74505805969E-08  0.93827000000E+00  0.93827000000E+00 0.  1.
     999902    2    1    2    0    0 -0.13648370958E-01  0.14405474851E-01 -0.13009857200E-01  0.10202012807E+01  0.10199252919E+01 0.  0.
     999903    2    3    3    0    0  0.32845978537E-02  0.62429870398E-01  0.11190187852E+00  0.12992266716E+00  0.21203578087E-01 0.  0.
         14    1    1    2    0    0  0.13648370958E-01 -0.14405474851E-01  0.13009857200E-01  0.23728719305E-01  0.00000000000E+00 0. -1.
     999901    1    3    3    0    0 -0.16932968812E-01 -0.48024395547E-01 -0.12491173572E+00  0.89027861354E+00  0.88000000000E+00 0.  1.
        -11    1    4    4    0    0 -0.82935324507E-02  0.37838110207E-01  0.69043188722E-01  0.79168985685E-01  0.51100000000E-03 0.  1.
         11    1    4    4    0    0  0.11578130304E-01  0.24591760191E-01  0.42858689800E-01  0.50753681472E-01  0.51100000000E-03 0. -1.
</event>
<event>
 8    1  0.1063984E+005  0.1043930E+01  0.7957747E-01            NaN
         13   -1    0    0    0    0  0.00000000000E+00  0.00000000000E+00  0.74505805969E-08  0.10566000000E+00  0.10566000000E+00 0.  1.
     999900   -1    0    0    0    0 -0.00000000000E+00 -0.00000000000E+00 -0.74505805969E-08  0.93827000000E+00  0.93827000000E+00 0.  1.
     999902    2    1    2    0    0  0.13741912808E-02  0.64007614595E-02 -0.23029662999E-01  0.10199879131E+01  0.10197068791E+01 0.  0.
     999903    2    3    3    0    0  0.52095724541E-01  0.67485110121E-01 -0.10016812201E+00  0.13305256399E+00  0.20028167962E-01 0.  0.
         14    1    1    2    0    0 -0.13741912808E-02 -0.64007614595E-02  0.23029662999E-01  0.23942086934E-01  0.00000000000E+00 0.  1.
     999901    1    3    3    0    0 -0.50721533261E-01 -0.61084348661E-01  0.77138459015E-01  0.88693534908E+00  0.88000000000E+00 0. -1.
        -11    1    4    4    0    0  0.17621719510E-01  0.97863388488E-02 -0.26990600581E-01  0.33690518952E-01  0.51100000000E-03 0. -1.
         11    1    4    4    0    0  0.34474005032E-01  0.57698771272E-01 -0.73177521433E-01  0.99362045034E-01  0.51100000000E-03 0.  1.
</event>
<event>
 8    1  0.1081551E+005  0.1043930E+01  0.7957747E-01            NaN
         13   -1    0    0    0    0  0.00000000000E+00  0.00000000000E+00  0.74505805969E-08  0.10566000000E+00  0.10566000000E+00 0. -1.
     999900   -1    0    0    0    0 -0.00000000000E+00 -0.00000000000E+00 -0.74505805969E-08  0.93827000000E+00  0.93827000000E+00 0.  1.
     999902    2    1    2    0    0 -0.13351582809E-01  0.11880330225E-01 -0.15402475065E-01  0.10203367118E+01  0.10200639010E+01 0.  0.
     999903    2    3    3    0    0  0.96757603017E-01 -0.77699670968E-01 -0.27627468770E-01  0.12887832248E+00  0.21144085833E-01 0.  0.
         14    1    1    2    0    0  0.13351582809E-01 -0.11880330225E-01  0.15402475065E-01  0.23593288196E-01  0.00000000000E+00 0. -1.
     999901    1    3    3    0    0 -0.11010918583E+00  0.89580001193E-01  0.12224993706E-01  0.89145838932E+00  0.88000000000E+00 0. -1.
        -11    1    4    4    0    0  0.52873102105E-01 -0.45590472573E-01 -0.50512214385E-02  0.69998800523E-01  0.51100000000E-03 0.  1.
         11    1    4    4    0    0  0.43884500912E-01 -0.32109198395E-01 -0.22576247332E-01  0.58879521962E-01  0.51100000000E-03 0. -1.
</event>
<event>
 8    1  0.1063984E+005  0.1043930E+01  0.7957747E-01            NaN
         13   -1    0    0    0    0  0.00000000000E+00  0.00000000000E+00  0.74505805969E-08  0.10566000000E+00  0.10566000000E+00 0. -1.
     999900   -1    0    0    0    0 -0.00000000000E+00 -0.00000000000E+00 -0.74505805969E-08  0.93827000000E+00  0.93827000000E+00 0.  1.
     999902    2    1    2    0    0 -0.77882592370E-02 -0.19888096248E-01  0.96856745486E-02  0.10204778008E+01  0.10202082809E+01 0.  0.
     999903    2    3    3    0    0 -0.40743862753E-01 -0.12272696770E+00  0.27439906555E-01  0.13369873137E+00  0.20010780740E-01 0.  0.
         14    1    1    2    0    0  0.77882592370E-02  0.19888096248E-01 -0.96856745486E-02  0.23452199167E-01  0.00000000000E+00 0.  1.
     999901    1    3    3    0    0  0.32955603516E-01  0.10283887145E+00 -0.17754232007E-01  0.88677906946E+00  0.88000000000E+00 0.  1.
        -11    1    4    4    0    0 -0.11505819763E-01 -0.53073029855E-01  0.19653823730E-01  0.57755210108E-01  0.51100000000E-03 0.  1.
         11    1    4    4    0    0 -0.29238042990E-01 -0.69653937843E-01  0.77860828254E-02  0.75943521262E-01  0.51100000000E-03 0. -1.
</event>
<event>
 8    1  0.1063984E+005  0.1043930E+01  0.7957747E-01            NaN
         13   -1    0    0    0    0  0.00000000000E+00  0.00000000000E+00  0.74505805969E-08  0.10566000000E+00  0.10566000000E+00 0. -1.
     999900   -1    0    0    0    0 -0.00000000000E+00 -0.00000000000E+00 -0.74505805969E-08  0.93827000000E+00  0.93827000000E+00 0. -1.
     999902    2    1    2    0    0  0.91102791932E-02 -0.13696272286E-01 -0.16293638159E-01  0.10207768640E+01  0.10205142519E+01 0.  0.
     999903    2    3    3    0    0 -0.90809129335E-02  0.12731437691E+00 -0.53438211755E-02  0.12929785633E+00  0.19949077145E-01 0.  0.
         14    1    1    2    0    0 -0.91102791932E-02  0.13696272286E-01  0.16293638159E-01  0.23153135985E-01  0.00000000000E+00 0.  1.
     999901    1    3    3    0    0  0.18191192127E-01 -0.14101064919E+00 -0.10949816983E-01  0.89147900769E+00  0.88000000000E+00 0.  1.
        -11    1    4    4    0    0 -0.27889695255E-02  0.24583680319E-01  0.67883083317E-02  0.25660825008E-01  0.51100000000E-03 0.  1.
         11    1    4    4    0    0 -0.62919434080E-02  0.10273069659E+00 -0.12132129507E-01  0.10363703132E+00  0.51100000000E-03 0. -1.
</event>
<event>
 8    1  0.1063984E+005  0.1043930E+01  0.7957747E-01            NaN
         13   -1    0    0    0    0  0.00000000000E+00  0.00000000000E+00  0.74505805969E-08  0.10566000000E+00  0.10566000000E+00 0. -1.
     999900   -1    0    0    0    0 -0.00000000000E+00 -0.00000000000E+00 -0.74505805969E-08  0.93827000000E+00  0.93827000000E+00 0. -1.
     999902    2    1    2    0    0 -0.53267294548E-02  0.11797554577E-01  0.18412666746E-01  0.10214226093E+01  0.10211746002E+01 0.  0.
     999903    2    3    3    0    0 -0.10809606142E+00 -0.60512267194E-01  0.41590989524E-01  0.13219402192E+00  0.19973884079E-01 0.  0.
         14    1    1    2    0    0  0.53267294548E-02 -0.11797554577E-01 -0.18412666746E-01  0.22507390728E-01  0.00000000000E+00 0. -1.
     999901    1    3    3    0    0  0.10276933197E+00  0.72309821771E-01 -0.23178322778E-01  0.88922858735E+00  0.88000000000E+00 0. -1.
        -11    1    4    4    0    0 -0.43507303000E-01 -0.19853849866E-01  0.67663160005E-02  0.48302224815E-01  0.51100000000E-03 0. -1.
         11    1    4    4    0    0 -0.64588758425E-01 -0.40658417328E-01  0.34824673524E-01  0.83891797105E-01  0.51100000000E-03 0.  1.
</event>
<event>
 8    1  0.1063984E+005  0.1043930E+01  0.7957747E-01            NaN
         13   -1    0    0    0    0  0.00000000000E+00  0.00000000000E+00  0.74505805969E-08  0.10566000000E+00  0.10566000000E+00 0.  1.
     999900   -1    0    0    0    0 -0.00000000000E+00 -0.00000000000E+00 -0.74505805969E-08  0.93827000000E+00  0.93827000000E+00 0.  1.
     999902    2    1    2    0    0 -0.15056904117E-01 -0.50244345416E-02 -0.17059739875E-01  0.10206278536E+01  0.10203618110E+01 0.  0.
     999903    2    3    3    0    0 -0.57900927353E-01  0.11470971412E+00  0.15336900944E-01  0.13089675990E+00  0.19695312143E-01 0.  0.
         14    1    1    2    0    0  0.15056904117E-01  0.50244345416E-02  0.17059739875E-01  0.23302146439E-01  0.00000000000E+00 0.  1.
     999901    1    3    3    0    0  0.42844023236E-01 -0.11973414866E+00 -0.32396640819E-01  0.88973109366E+00  0.88000000000E+00 0.  1.
        -11    1    4    4    0    0 -0.32905316236E-01  0.48328407260E-01  0.13150382959E-01  0.59929862989E-01  0.51100000000E-03 0. -1.
         11    1    4    4    0    0 -0.24995611118E-01  0.66381306863E-01  0.21865179843E-02  0.70966896916E-01  0.51100000000E-03 0.  1.
</event>
<event>
 8    1  0.1063984E+005  0.1043930E+01  0.7957747E-01            NaN
         13   -1    0    0    0    0  0.00000000000E+00  0.00000000000E+00  0.74505805969E-08  0.10566000000E+00  0.10566000000E+00 0.  1.
     999900   -1    0    0    0    0 -0.00000000000E+00 -0.00000000000E+00 -0.74505805969E-08  0.93827000000E+00  0.93827000000E+00 0. -1.
     999902    2    1    2    0    0 -0.11478699049E-01 -0.21343490701E-01  0.42105968706E-02  0.10193325560E+01  0.10190357331E+01 0.  0.
     999903    2    3    3    0    0  0.91627472592E-01 -0.85897931602E-01 -0.29010298670E-01  0.13034336234E+00  0.19332519008E-01 0.  0.
         14    1    1    2    0    0  0.11478699049E-01  0.21343490701E-01 -0.42105968706E-02  0.24597444037E-01  0.00000000000E+00 0. -1.
     999901    1    3    3    0    0 -0.10310617164E+00  0.64554440901E-01  0.33220895540E-01  0.88898919362E+00  0.88000000000E+00 0. -1.
        -11    1    4    4    0    0  0.63056725570E-01 -0.70583960380E-01 -0.21133861090E-01  0.96980138730E-01  0.51100000000E-03 0. -1.
         11    1    4    4    0    0  0.28570747021E-01 -0.15313971222E-01 -0.78764375797E-02  0.33363223614E-01  0.51100000000E-03 0.  1.
</event>
<event>
 8    1  0.1063984E+005  0.1043930E+01  0.7957747E-01            NaN
         13   -1    0    0    0    0  0.00000000000E+00  0.00000000000E+00  0.74505805969E-08  0.10566000000E+00  0.10566000000E+00 0.  1.
     999900   -1    0    0    0    0 -0.00000000000E+00 -0.00000000000E+00 -0.74505805969E-08  0.93827000000E+00  0.93827000000E+00 0.  1.
     999902    2    1    2    0    0  0.51682880367E-03  0.12160734101E-01  0.19903984517E-01  0.10205993514E+01  0.10203326501E+01 0.  0.
     999903    2    3    3    0    0 -0.78974069864E-01 -0.98402291558E-01  0.23032350694E-01  0.13012039469E+00  0.21929734172E-01 0.  0.
         14    1    1    2    0    0 -0.51682880367E-03 -0.12160734101E-01 -0.19903984517E-01  0.23330648631E-01  0.00000000000E+00 0. -1.
     999901    1    3    3    0    0  0.79490898668E-01  0.11056302566E+00 -0.31283661771E-02  0.89047895668E+00  0.88000000000E+00 0. -1.
        -11    1    4    4    0    0 -0.74055989527E-01 -0.98256102485E-01  0.21244379865E-01  0.12486046635E+00  0.51100000000E-03 0. -1.
         11    1    4    4    0    0 -0.49180803370E-02 -0.14618907301E-03  0.17879708291E-02  0.52599283390E-02  0.51100000000E-03 0.  1.
</event>
<event>
 8    1  0.1063984E+005  0.1043930E+01  0.7957747E-01            NaN
         13   -1    0    0    0    0  0.00000000000E+00  0.00000000000E+00  0.74505805969E-08  0.10566000000E+00  0.10566000000E+00 0. -1.
     999900   -1    0    0    0    0 -0.00000000000E+00 -0.00000000000E+00 -0.74505805969E-08  0.93827000000E+00  0.93827000000E+00 0. -1.
     999902    2    1    2    0    0  0.91689320959E-02  0.15508060948E-01 -0.12070256221E-01  0.10222445128E+01  0.10220144733E+01 0.  0.
     999903    2    3    3    0    0  0.25543514024E-02  0.13210960547E+00 -0.16597591334E-01  0.13451698161E+00  0.18970127446E-01 0.  0.
         14    1    1    2    0    0 -0.91689320959E-02 -0.15508060948E-01  0.12070256221E-01  0.21685487207E-01  0.00000000000E+00 0. -1.
     999901    1    3    3    0    0  0.66145806935E-02 -0.11660154452E+00  0.45273351133E-02  0.88772753119E+00  0.88000000000E+00 0.  1.
        -11    1    4    4    0    0 -0.21833331976E-02  0.74935974951E-02 -0.49738158250E-02  0.92693533825E-02  0.51100000000E-03 0. -1.
         11    1    4    4    0    0  0.47376846000E-02  0.12461600797E+00 -0.11623775510E-01  0.12524762823E+00  0.51100000000E-03 0.  1.
</event>
<event>
 8    1  0.1063984E+005  0.1043930E+01  0.7957747E-01            NaN
         13   -1    0    0    0    0  0.00000000000E+00  0.00000000000E+00  0.74505805969E-08  0.10566000000E+00  0.10566000000E+00 0. -1.
     999900   -1    0    0    0    0 -0.00000000000E+00 -0.00000000000E+00 -0.74505805969E-08  0.93827000000E+00  0.93827000000E+00 0.  1.
     999902    2    1    2    0    0 -0.19754868780E-01 -0.88130758702E-02 -0.66199796137E-02  0.10213081239E+01  0.10210575570E+01 0.  0.
     999903    2    3    3    0    0 -0.95105919834E-01  0.75833063152E-01  0.47821219519E-01  0.13237247164E+00  0.20971713287E-01 0.  0.
         14    1    1    2    0    0  0.19754868780E-01  0.88130758702E-02  0.66199796137E-02  0.22621876069E-01  0.00000000000E+00 0. -1.
     999901    1    3    3    0    0  0.75351051054E-01 -0.84646139022E-01 -0.54441199133E-01  0.88893565229E+00  0.88000000000E+00 0.  1.
        -11    1    4    4    0    0 -0.68145157353E-01  0.52923329249E-01  0.23469007602E-01  0.89418659620E-01  0.51100000000E-03 0.  1.
         11    1    4    4    0    0 -0.26960762481E-01  0.22909733903E-01  0.24352211917E-01  0.42953812023E-01  0.51100000000E-03 0. -1.
</event>
<event>
 8    1  0.1063984E+005  0.1043930E+01  0.7957747E-01            NaN
         13   -1    0    0    0    0  0.00000000000E+00  0.00000000000E+00  0.74505805969E-08  0.10566000000E+00  0.10566000000E+00 0. -1.
     999900   -1    0    0    0    0 -0.00000000000E+00 -0.00000000000E+00 -0.74505805969E-08  0.93827000000E+00  0.93827000000E+00 0.  1.
     999902    2    1    2    0    0 -0.22729353279E-01 -0.13118103456E-02  0.65337245561E-02  0.10202438457E+01  0.10199688578E+01 0.  0.
     999903    2    3    3    0    0  0.12345727379E+00 -0.25645160905E-01  0.62818137094E-02  0.12785228071E+00  0.20183452882E-01 0.  0.
         14    1    1    2    0    0  0.22729353279E-01  0.13118103456E-02 -0.65337245561E-02  0.23686154256E-01  0.00000000000E+00 0. -1.
     999901    1    3    3    0    0 -0.14618662707E+00  0.24333350560E-01  0.25191084664E-03  0.89239156503E+00  0.88000000000E+00 0.  1.
        -11    1    4    4    0    0  0.10617773565E+00 -0.16794349053E-01  0.19323085467E-03  0.10749911705E+00  0.51100000000E-03 0.  1.
         11    1    4    4    0    0  0.17279538140E-01 -0.88508118524E-02  0.60885828548E-02  0.20353163660E-01  0.51100000000E-03 0. -1.
</event>
<event>
 8    1  0.1063984E+005  0.1043930E+01  0.7957747E-01            NaN
         13   -1    0    0    0    0  0.00000000000E+00  0.00000000000E+00  0.74505805969E-08  0.10566000000E+00  0.10566000000E+00 0.  1.
     999900   -1    0    0    0    0 -0.00000000000E+00 -0.00000000000E+00 -0.74505805969E-08  0.93827000000E+00  0.93827000000E+00 0.  1.
     999902    2    1    2    0    0 -0.11739567684E-01  0.31724192683E-02  0.18960777872E-01  0.10214046190E+01  0.10211562088E+01 0.  0.
     999903    2    3    3    0    0 -0.11238797686E+00 -0.64844350774E-01 -0.17684271131E-01  0.13230437552E+00  0.18864441821E-01 0.  0.
         14    1    1    2    0    0  0.11739567684E-01 -0.31724192683E-02 -0.18960777872E-01  0.22525381039E-01  0.00000000000E+00 0. -1.
     999901    1    3    3    0    0  0.10064840918E+00  0.68016770042E-01  0.36645049003E-01  0.88910024344E+00  0.88000000000E+00 0. -1.
        -11    1    4    4    0    0 -0.27950655445E-01 -0.10349140355E-01  0.20813947869E-02  0.29882054333E-01  0.51100000000E-03 0. -1.
         11    1    4    4    0    0 -0.84437321416E-01 -0.54495210419E-01 -0.19765665918E-01  0.10242232118E+00  0.51100000000E-03 0.  1.
</event>
<event>
 8    1  0.1127450E+005  0.1043930E+01  0.7957747E-01            NaN
         13   -1    0    0    0    0  0.00000000000E+00  0.00000000000E+00  0.74505805969E-08  0.10566000000E+00  0.10566000000E+00 0.  1.
     999900   -1    0    0    0    0 -0.00000000000E+00 -0.00000000000E+00 -0.74505805969E-08  0.93827000000E+00  0.93827000000E+00 0.  1.
     999902    2    1    2    0    0  0.15146276878E-01 -0.40482832499E-02  0.18235995488E-01  0.10198810950E+01  0.10195975177E+01 0.  0.
     999903    2    3    3    0    0  0.11285355443E+00 -0.61609010213E-01 -0.15457804458E-01  0.13196487061E+00  0.25380868185E-01 0.  0.
         14    1    1    2    0    0 -0.15146276878E-01  0.40482832499E-02 -0.18235995488E-01  0.24048905006E-01  0.00000000000E+00 0. -1.
     999901    1    3    3    0    0 -0.97707277548E-01  0.57560726963E-01  0.33693799945E-01  0.88791622439E+00  0.88000000000E+00 0.  1.
        -11    1    4    4    0    0  0.45021254621E-01 -0.31430895903E-01  0.44742130458E-02  0.55091689830E-01  0.51100000000E-03 0. -1.
         11    1    4    4    0    0  0.67832299805E-01 -0.30178114309E-01 -0.19932017503E-01  0.76873180778E-01  0.51100000000E-03 0.  1.
</event>
<event>
 8    1  0.1119719E+005  0.1043930E+01  0.7957747E-01            NaN
         13   -1    0    0    0    0  0.00000000000E+00  0.00000000000E+00  0.74505805969E-08  0.10566000000E+00  0.10566000000E+00 0. -1.
     999900   -1    0    0    0    0 -0.00000000000E+00 -0.00000000000E+00 -0.74505805969E-08  0.93827000000E+00  0.93827000000E+00 0. -1.
     999902    2    1    2    0    0 -0.33913673422E-02  0.57142170164E-02  0.22681426407E-01  0.10202952639E+01  0.10200214825E+01 0.  0.
     999903    2    3    3    0    0 -0.36393629068E-01  0.20527687047E-02 -0.12076790268E+00  0.12806196169E+00  0.22051521902E-01 0.  0.
         14    1    1    2    0    0  0.33913673422E-02 -0.57142170164E-02 -0.22681426407E-01  0.23634736140E-01  0.00000000000E+00 0.  1.
     999901    1    3    3    0    0  0.33002261726E-01  0.36614483117E-02  0.14344932909E+00  0.89223330217E+00  0.88000000000E+00 0.  1.
        -11    1    4    4    0    0 -0.23296330864E-01  0.10369819981E-01 -0.57244674044E-01  0.62669498367E-01  0.51100000000E-03 0.  1.
         11    1    4    4    0    0 -0.13097298204E-01 -0.83170512763E-02 -0.63523228637E-01  0.65392463325E-01  0.51100000000E-03 0. -1.
</event>
<event>
 8    1  0.1063984E+005  0.1043930E+01  0.7957747E-01            NaN
         13   -1    0    0    0    0  0.00000000000E+00  0.00000000000E+00  0.74505805969E-08  0.10566000000E+00  0.10566000000E+00 0.  1.
     999900   -1    0    0    0    0 -0.00000000000E+00 -0.00000000000E+00 -0.74505805969E-08  0.93827000000E+00  0.93827000000E+00 0. -1.
     999902    2    1    2    0    0 -0.19858217904E-01 -0.10356341372E-01  0.70039930633E-02  0.10204638852E+01  0.10201940416E+01 0.  0.
     999903    2    3    3    0    0 -0.24781586590E-02 -0.13044785266E+00 -0.64719681447E-03  0.13210439814E+00  0.20697091856E-01 0.  0.
         14    1    1    2    0    0  0.19858217904E-01  0.10356341372E-01 -0.70039930633E-02  0.23466114799E-01  0.00000000000E+00 0. -1.
     999901    1    3    3    0    0 -0.17380059245E-01  0.12009151129E+00  0.76511898778E-02  0.88835948706E+00  0.88000000000E+00 0. -1.
        -11    1    4    4    0    0  0.89462541268E-02 -0.52357059441E-01  0.17042922398E-02  0.53145675922E-01  0.51100000000E-03 0. -1.
         11    1    4    4    0    0 -0.11424412786E-01 -0.78090793217E-01 -0.23514890542E-02  0.78958722219E-01  0.51100000000E-03 0.  1.
</event>
<event>
 8    1  0.1063984E+005  0.1043930E+01  0.7957747E-01            NaN
         13   -1    0    0    0    0  0.00000000000E+00  0.00000000000E+00  0.74505805969E-08  0.10566000000E+00  0.10566000000E+00 0. -1.
     999900   -1    0    0    0    0 -0.00000000000E+00 -0.00000000000E+00 -0.74505805969E-08  0.93827000000E+00  0.93827000000E+00 0. -1.
     999902    2    1    2    0    0  0.72329569710E-02 -0.21786505374E-01  0.28346825128E-02  0.10207998701E+01  0.10205377857E+01 0.  0.
     999903    2    3    3    0    0  0.28297974640E-01  0.12363040363E+00 -0.74438903378E-02  0.12855805232E+00  0.19659838311E-01 0.  0.
         14    1    1    2    0    0 -0.72329569710E-02  0.21786505374E-01 -0.28346825128E-02  0.23130129872E-01  0.00000000000E+00 0.  1.
     999901    1    3    3    0    0 -0.21065017669E-01 -0.14541690900E+00  0.10278572851E-01  0.89224181781E+00  0.88000000000E+00 0. -1.
        -11    1    4    4    0    0  0.10518192066E-01  0.83260888854E-01 -0.67170384766E-03  0.83926874624E-01  0.51100000000E-03 0. -1.
         11    1    4    4    0    0  0.17779782573E-01  0.40369514772E-01 -0.67721864901E-02  0.44631177692E-01  0.51100000000E-03 0.  1.
</event>
<event>
 8    1  0.1294357E+005  0.1043930E+01  0.7957747E-01            NaN
         13   -1    0    0    0    0  0.00000000000E+00  0.00000000000E+00  0.74505805969E-08  0.10566000000E+00  0.10566000000E+00 0.  1.
     999900   -1    0    0    0    0 -0.00000000000E+00 -0.00000000000E+00 -0.74505805969E-08  0.93827000000E+00  0.93827000000E+00 0.  1.
     999902    2    1    2    0    0 -0.10851026041E-01 -0.18615040252E-01  0.86630646085E-02  0.10207068827E+01  0.10204426624E+01 0.  0.
     999903    2    3    3    0    0 -0.66054408857E-01  0.10392461836E+00 -0.33603474435E-01  0.12949992482E+00  0.21852363804E-01 0.  0.
         14    1    1    2    0    0  0.10851026041E-01  0.18615040252E-01 -0.86630646085E-02  0.23223117322E-01  0.00000000000E+00 0.  1.
     999901    1    3    3    0    0  0.55203382816E-01 -0.12253965861E+00  0.42266539044E-01  0.89120695786E+00  0.88000000000E+00 0. -1.
        -11    1    4    4    0    0 -0.37877645105E-01  0.40383838998E-01 -0.18396399536E-01  0.58346028895E-01  0.51100000000E-03 0. -1.
         11    1    4    4    0    0 -0.28176763752E-01  0.63540779363E-01 -0.15207074899E-01  0.71153895927E-01  0.51100000000E-03 0.  1.
</event>
<event>
 8    1  0.1063984E+005  0.1043930E+01  0.7957747E-01            NaN
         13   -1    0    0    0    0  0.00000000000E+00  0.00000000000E+00  0.74505805969E-08  0.10566000000E+00  0.10566000000E+00 0.  1.
     999900   -1    0    0    0    0 -0.00000000000E+00 -0.00000000000E+00 -0.74505805969E-08  0.93827000000E+00  0.93827000000E+00 0. -1.
     999902    2    1    2    0    0 -0.33087771110E-02 -0.33565047248E-02  0.24397708632E-01  0.10190812110E+01  0.10187782154E+01 0.  0.
     999903    2    3    3    0    0  0.41196653623E-01  0.11342373501E+00 -0.37954113989E-01  0.12806712155E+00  0.19964090789E-01 0.  0.
         14    1    1    2    0    0  0.33087771110E-02  0.33565047248E-02 -0.24397708632E-01  0.24848789033E-01  0.00000000000E+00 0. -1.
     999901    1    3    3    0    0 -0.44505430734E-01 -0.11678023973E+00  0.62351822620E-01  0.89101408942E+00  0.88000000000E+00 0. -1.
        -11    1    4    4    0    0  0.29237254102E-01  0.55733312955E-01 -0.25118986366E-01  0.67766096224E-01  0.51100000000E-03 0. -1.
         11    1    4    4    0    0  0.11959399521E-01  0.57690422050E-01 -0.12835127623E-01  0.60301025326E-01  0.51100000000E-03 0.  1.
</event>
<event>
 8    1  0.1063984E+005  0.1043930E+01  0.7957747E-01            NaN
         13   -1    0    0    0    0  0.00000000000E+00  0.00000000000E+00  0.74505805969E-08  0.10566000000E+00  0.10566000000E+00 0.  1.
     999900   -1    0    0    0    0 -0.00000000000E+00 -0.00000000000E+00 -0.74505805969E-08  0.93827000000E+00  0.93827000000E+00 0.  1.
     999902    2    1    2    0    0 -0.21241773644E-01 -0.89257665930E-02 -0.61762776382E-02  0.10200756783E+01  0.10197967253E+01 0.  0.
     999903    2    3    3    0    0 -0.14597937481E-01  0.87431577245E-01  0.92041743781E-01  0.12935930484E+00  0.20118813898E-01 0.  0.
         14    1    1    2    0    0  0.21241773644E-01  0.89257665930E-02  0.61762776382E-02  0.23854321669E-01  0.00000000000E+00 0. -1.
     999901    1    3    3    0    0 -0.66438361634E-02 -0.96357343838E-01 -0.98218021419E-01  0.89071637349E+00  0.88000000000E+00 0.  1.
        -11    1    4    4    0    0 -0.50354600043E-02  0.74873048083E-01  0.77773507701E-01  0.10807547737E+00  0.51100000000E-03 0. -1.
         11    1    4    4    0    0 -0.95624774765E-02  0.12558529162E-01  0.14268236079E-01  0.21283827476E-01  0.51100000000E-03 0.  1.
</event>
<event>
 8    1  0.1063984E+005  0.1043930E+01  0.7957747E-01            NaN
         13   -1    0    0    0    0  0.00000000000E+00  0.00000000000E+00  0.74505805969E-08  0.10566000000E+00  0.10566000000E+00 0.  1.
     999900   -1    0    0    0    0 -0.00000000000E+00 -0.00000000000E+00 -0.74505805969E-08  0.93827000000E+00  0.93827000000E+00 0.  1.
     999902    2    1    2    0    0  0.20470894211E-02 -0.22030472275E-01  0.85051891686E-02  0.10202261917E+01  0.10199507889E+01 0.  0.
     999903    2    3    3    0    0  0.46855721017E-01 -0.12213436521E+00  0.16789595133E-01  0.13337939874E+00  0.19897531195E-01 0.  0.
         14    1    1    2    0    0 -0.20470894211E-02  0.22030472275E-01 -0.85051891686E-02  0.23703808271E-01  0.00000000000E+00 0. -1.
     999901    1    3    3    0    0 -0.44808631596E-01  0.10010389293E+00 -0.82844059640E-02  0.88684679299E+00  0.88000000000E+00 0.  1.
        -11    1    4    4    0    0  0.41150766379E-01 -0.10102907780E+00  0.21043913781E-01  0.11110070910E+00  0.51100000000E-03 0. -1.
         11    1    4    4    0    0  0.57049546382E-02 -0.21105287408E-01 -0.42543186479E-02  0.22278689641E-01  0.51100000000E-03 0.  1.
</event>
<event>
 8    1  0.1063984E+005  0.1043930E+01  0.7957747E-01            NaN
         13   -1    0    0    0    0  0.00000000000E+00  0.00000000000E+00  0.74505805969E-08  0.10566000000E+00  0.10566000000E+00 0.  1.
     999900   -1    0    0    0    0 -0.00000000000E+00 -0.00000000000E+00 -0.74505805969E-08  0.93827000000E+00  0.93827000000E+00 0. -1.
     999902    2    1    2    0    0 -0.97487517513E-02  0.73356887959E-02 -0.20396111727E-01  0.10201633876E+01  0.10198865062E+01 0.  0.
     999903    2    3    3    0    0  0.10376064825E+00  0.47994437839E-02 -0.77323111877E-01  0.13104500417E+00  0.20115235590E-01 0.  0.
         14    1    1    2    0    0  0.97487517513E-02 -0.73356887959E-02  0.20396111727E-01  0.23766612388E-01  0.00000000000E+00 0.  1.
     999901    1    3    3    0    0 -0.11350940000E+00  0.25362450120E-02  0.56927000151E-01  0.88911838344E+00  0.88000000000E+00 0.  1.
        -11    1    4    4    0    0  0.19053761047E-01  0.87896653633E-02 -0.14649959135E-01  0.25596610144E-01  0.51100000000E-03 0. -1.
         11    1    4    4    0    0  0.84706887200E-01 -0.39902215794E-02 -0.62673152742E-01  0.10544839403E+00  0.51100000000E-03 0.  1.
</event>
<event>
 8    1  0.1063984E+005  0.1043930E+01  0.7957747E-01            NaN
         13   -1    0    0    0    0  0.00000000000E+00  0.00000000000E+00  0.74505805969E-08  0.10566000000E+00  0.10566000000E+00 0. -1.
     999900   -1    0    0    0    0 -0.00000000000E+00 -0.00000000000E+00 -0.74505805969E-08  0.93827000000E+00  0.93827000000E+00 0. -1.
     999902    2    1    2    0    0  0.12026007271E-01  0.19955722893E-01 -0.15322267041E-01  0.10160440251E+01  0.10156612789E+01 0.  0.
     999903    2    3    3    0    0 -0.57696240989E-01  0.78223204734E-01 -0.82561925426E-01  0.12881380529E+00  0.18132813348E-01 0.  0.
         14    1    1    2    0    0 -0.12026007271E-01 -0.19955722893E-01  0.15322267041E-01  0.27885974868E-01  0.00000000000E+00 0. -1.
     999901    1    3    3    0    0  0.69722248260E-01 -0.58267481841E-01  0.67239658384E-01  0.88723021984E+00  0.88000000000E+00 0.  1.
        -11    1    4    4    0    0 -0.50748983802E-01  0.56671667448E-01 -0.66555645011E-01  0.10107943536E+00  0.51100000000E-03 0.  1.
         11    1    4    4    0    0 -0.69472571872E-02  0.21551537285E-01 -0.16006280415E-01  0.27734369932E-01  0.51100000000E-03 0. -1.
</event>
<event>
 8    1  0.1063984E+005  0.1043930E+01  0.7957747E-01            NaN
         13   -1    0    0    0    0  0.00000000000E+00  0.00000000000E+00  0.74505805969E-08  0.10566000000E+00  0.10566000000E+00 0.  1.
     999900   -1    0    0    0    0 -0.00000000000E+00 -0.00000000000E+00 -0.74505805969E-08  0.93827000000E+00  0.93827000000E+00 0.  1.
     999902    2    1    2    0    0 -0.18088865732E-01  0.14972645384E-01 -0.20692723474E-02  0.10203573663E+01  0.10200850385E+01 0.  0.
     999903    2    3    3    0    0 -0.33621496953E-01 -0.11943173104E-01  0.12414015921E+00  0.13080998443E+00  0.20674342931E-01 0.  0.
         14    1    1    2    0    0  0.18088865732E-01 -0.14972645384E-01  0.20692723474E-02  0.23572633737E-01  0.00000000000E+00 0.  1.
     999901    1    3    3    0    0  0.15532631222E-01  0.26915818488E-01 -0.12620943156E+00  0.88954738184E+00  0.88000000000E+00 0.  1.
        -11    1    4    4    0    0 -0.66028163558E-02 -0.41589552921E-02  0.63340887593E-01  0.63821808616E-01  0.51100000000E-03 0. -1.
         11    1    4    4    0    0 -0.27018680598E-01 -0.77842178114E-02  0.60799271618E-01  0.66988175811E-01  0.51100000000E-03 0.  1.
</event>
<event>
 8    1  0.1063984E+005  0.1043930E+01  0.7957747E-01            NaN
         13   -1    0    0    0    0  0.00000000000E+00  0.00000000000E+00  0.74505805969E-08  0.10566000000E+00  0.10566000000E+00 0.  1.
     999900   -1    0    0    0    0 -0.00000000000E+00 -0.00000000000E+00 -0.74505805969E-08  0.93827000000E+00  0.93827000000E+00 0.  1.
     999902    2    1    2    0    0  0.90546786304E-02 -0.27521133925E-02 -0.21555953187E-01  0.10203881128E+01  0.10201165033E+01 0.  0.
     999903    2    3    3    0    0  0.14341272826E-01  0.78437711010E-01 -0.10423866029E+00  0.13277549141E+00  0.20136688033E-01 0.  0.
         14    1    1    2    0    0 -0.90546786304E-02  0.27521133925E-02  0.21555953187E-01  0.23541887160E-01  0.00000000000E+00 0.  1.
     999901    1    3    3    0    0 -0.52865941954E-02 -0.81189824403E-01  0.82682707107E-01  0.88761262143E+00  0.88000000000E+00 0. -1.
        -11    1    4    4    0    0  0.18124683506E-01  0.52716502595E-01 -0.77608279868E-01  0.95555429061E-01  0.51100000000E-03 0.  1.
         11    1    4    4    0    0 -0.37834106806E-02  0.25721208415E-01 -0.26630380427E-01  0.37220062351E-01  0.51100000000E-03 0. -1.
</event>
<event>
 8    1  0.1063984E+005  0.1043930E+01  0.7957747E-01            NaN
         13   -1    0    0    0    0  0.00000000000E+00  0.00000000000E+00  0.74505805969E-08  0.10566000000E+00  0.10566000000E+00 0. -1.
     999900   -1    0    0    0    0 -0.00000000000E+00 -0.00000000000E+00 -0.74505805969E-08  0.93827000000E+00  0.93827000000E+00 0.  1.
     999902    2    1    2    0    0  0.16393067673E-01 -0.55277727705E-02 -0.16193956697E-01  0.10202333088E+01  0.10199580733E+01 0.  0.
     999903    2    3    3    0    0  0.11223651956E+00 -0.67820429407E-01 -0.42875344825E-02  0.13276043304E+00  0.20255929055E-01 0.  0.
         14    1    1    2    0    0 -0.16393067673E-01  0.55277727705E-02  0.16193956697E-01  0.23696691183E-01  0.00000000000E+00 0. -1.
     999901    1    3    3    0    0 -0.95843451890E-01  0.62292656636E-01 -0.11906422215E-01  0.88747287577E+00  0.88000000000E+00 0. -1.
        -11    1    4    4    0    0  0.86961853094E-01 -0.42111209814E-01 -0.39273117240E-02  0.96702651380E-01  0.51100000000E-03 0.  1.
         11    1    4    4    0    0  0.25274666469E-01 -0.25709219593E-01 -0.36022275849E-03  0.36057781665E-01  0.51100000000E-03 0. -1.
</event>
<event>
 8    1  0.1063984E+005  0.1043930E+01  0.7957747E-01            NaN
         13   -1    0    0    0    0  0.00000000000E+00  0.00000000000E+00  0.74505805969E-08  0.10566000000E+00  0.10566000000E+00 0.  1.
     999900   -1    0    0    0    0 -0.00000000000E+00 -0.00000000000E+00 -0.74505805969E-08  0.93827000000E+00  0.93827000000E+00 0. -1.
     999902    2    1    2    0    0  0.23052576131E-01 -0.54932150501E-02 -0.54252079298E-02  0.10196189005E+01  0.10193290306E+01 0.  0.
     999903    2    3    3    0    0  0.14836179503E-01  0.51310662328E-01  0.11610071105E+00  0.12941513807E+00  0.20396238968E-01 0.  0.
         14    1    1    2    0    0 -0.23052576131E-01  0.54932150501E-02  0.54252079298E-02  0.24311099501E-01  0.00000000000E+00 0.  1.
     999901    1    3    3    0    0  0.82163966276E-02 -0.56803877378E-01 -0.12152591898E+00  0.89020376243E+00  0.88000000000E+00 0. -1.
        -11    1    4    4    0    0  0.77261316635E-02  0.39699933441E-01  0.65240634976E-01  0.76761835561E-01  0.51100000000E-03 0. -1.
         11    1    4    4    0    0  0.71100478396E-02  0.11610728887E-01  0.50860076076E-01  0.52653302509E-01  0.51100000000E-03 0.  1.
</event>
<event>
 8    1  0.1063984E+005  0.1043930E+01  0.7957747E-01            NaN
         13   -1    0    0    0    0  0.00000000000E+00  0.00000000000E+00  0.74505805969E-08  0.10566000000E+00  0.10566000000E+00 0. -1.
     999900   -1    0    0    0    0 -0.00000000000E+00 -0.00000000000E+00 -0.74505805969E-08  0.93827000000E+00  0.93827000000E+00 0.  1.
     999902    2    1    2    0    0 -0.11305076324E-01  0.12392213591E-01 -0.16323665619E-01  0.10205241510E+01  0.10202557077E+01 0.  0.
     999903    2    3    3    0    0 -0.13038859226E+00  0.39476357591E-02  0.55150104009E-02  0.13219475126E+00  0.20694639476E-01 0.  0.
         14    1    1    2    0    0  0.11305076324E-01 -0.12392213591E-01  0.16323665619E-01  0.23405849004E-01  0.00000000000E+00 0. -1.
     999901    1    3    3    0    0  0.11908351593E+00  0.84445778316E-02 -0.21838676020E-01  0.88832939973E+00  0.88000000000E+00 0.  1.
        -11    1    4    4    0    0 -0.48794024633E-01 -0.68665838344E-02  0.75920815274E-02  0.49858877207E-01  0.51100000000E-03 0. -1.
         11    1    4    4    0    0 -0.81594567622E-01  0.10814219594E-01 -0.20770711265E-02  0.82335874055E-01  0.51100000000E-03 0.  1.
</event>
<event>
 8    1  0.1063984E+005  0.1043930E+01  0.7957747E-01            NaN
         13   -1    0    0    0    0  0.00000000000E+00  0.00000000000E+00  0.74505805969E-08  0.10566000000E+00  0.10566000000E+00 0. -1.
     999900   -1    0    0    0    0 -0.00000000000E+00 -0.00000000000E+00 -0.74505805969E-08  0.93827000000E+00  0.93827000000E+00 0. -1.
     999902    2    1    2    0    0 -0.15888887871E-01  0.13529702521E-01  0.95941241651E-02  0.10209613948E+01  0.10207029993E+01 0.  0.
     999903    2    3    3    0    0  0.27565964611E-01  0.11998733029E+00  0.45630167273E-01  0.13274962547E+00  0.19583387367E-01 0.  0.
         14    1    1    2    0    0  0.15888887871E-01 -0.13529702521E-01 -0.95941241651E-02  0.22968605238E-01  0.00000000000E+00 0.  1.
     999901    1    3    3    0    0 -0.43454852482E-01 -0.10645762777E+00 -0.36036043108E-01  0.88821176930E+00  0.88000000000E+00 0.  1.
        -11    1    4    4    0    0  0.23609117173E-01  0.65980107049E-01  0.31168903796E-01  0.76697631155E-01  0.51100000000E-03 0. -1.
         11    1    4    4    0    0  0.39568474378E-02  0.54007223240E-01  0.14461263477E-01  0.56051994310E-01  0.51100000000E-03 0.  1.
</event>
<event>
 8    1  0.1063984E+005  0.1043930E+01  0.7957747E-01            NaN
         13   -1    0    0    0    0  0.00000000000E+00  0.00000000000E+00  0.74505805969E-08  0.10566000000E+00  0.10566000000E+00 0. -1.
     999900   -1    0    0    0    0 -0.00000000000E+00 -0.00000000000E+00 -0.74505805969E-08  0.93827000000E+00  0.93827000000E+00 0. -1.
     999902    2    1    2    0    0 -0.59297539066E-02  0.63768617922E-02 -0.22887734033E-01  0.10194417433E+01  0.10191475817E+01 0.  0.
     999903    2    3    3    0    0 -0.10394722739E+00 -0.12003113216E-01 -0.78350372609E-01  0.13207408957E+00  0.18859571547E-01 0.  0.
         14    1    1    2    0    0  0.59297539066E-02 -0.63768617922E-02  0.22887734033E-01  0.24488256714E-01  0.00000000000E+00 0. -1.
     999901    1    3    3    0    0  0.98017473480E-01  0.18379975008E-01  0.55462638575E-01  0.88736765372E+00  0.88000000000E+00 0. -1.
        -11    1    4    4    0    0 -0.39941543280E-01  0.45313479242E-02 -0.30674523734E-01  0.50567257400E-01  0.51100000000E-03 0. -1.
         11    1    4    4    0    0 -0.64005684106E-01 -0.16534461140E-01 -0.47675848874E-01  0.81506832168E-01  0.51100000000E-03 0.  1.
</event>
<event>
 8    1  0.1063984E+005  0.1043930E+01  0.7957747E-01            NaN
         13   -1    0    0    0    0  0.00000000000E+00  0.00000000000E+00  0.74505805969E-08  0.10566000000E+00  0.10566000000E+00 0. -1.
     999900   -1    0    0    0    0 -0.00000000000E+00 -0.00000000000E+00 -0.74505805969E-08  0.93827000000E+00  0.93827000000E+00 0. -1.
     999902    2    1    2    0    0 -0.16592572621E-01  0.82404402569E-02  0.13471194703E-01  0.10210238565E+01  0.10207668804E+01 0.  0.
     999903    2    3    3    0    0 -0.87605602440E-01 -0.62820693681E-01 -0.72333146775E-01  0.13116155248E+00  0.18710627804E-01 0.  0.
         14    1    1    2    0    0  0.16592572621E-01 -0.82404402569E-02 -0.13471194703E-01  0.22906143467E-01  0.00000000000E+00 0.  1.
     999901    1    3    3    0    0  0.71013029819E-01  0.71061133938E-01  0.85804341478E-01  0.88986230405E+00  0.88000000000E+00 0. -1.
        -11    1    4    4    0    0 -0.21931477926E-01 -0.22366160177E-01 -0.13330428975E-01  0.34046972005E-01  0.51100000000E-03 0. -1.
         11    1    4    4    0    0 -0.65674124514E-01 -0.40454533504E-01 -0.59002717800E-01  0.97114580473E-01  0.51100000000E-03 0.  1.
</event>
<event>
 8    1  0.1832854E+005  0.1043930E+01  0.7957747E-01            NaN
         13   -1    0    0    0    0  0.00000000000E+00  0.00000000000E+00  0.74505805969E-08  0.10566000000E+00  0.10566000000E+00 0.  1.
     999900   -1    0    0    0    0 -0.00000000000E+00 -0.00000000000E+00 -0.74505805969E-08  0.93827000000E+00  0.93827000000E+00 0. -1.
     999902    2    1    2    0    0 -0.10708117069E-01  0.14998109098E-01  0.14710134854E-01  0.10203504513E+01  0.10200779619E+01 0.  0.
     999903    2    3    3    0    0  0.46135182345E-01 -0.11476356906E-01 -0.11716213953E+00  0.12831774185E+00  0.21870393629E-01 0.  0.
         14    1    1    2    0    0  0.10708117069E-01 -0.14998109098E-01 -0.14710134854E-01  0.23579548662E-01  0.00000000000E+00 0. -1.
     999901    1    3    3    0    0 -0.56843299414E-01  0.26474466004E-01  0.13187227438E+00  0.89203270948E+00  0.88000000000E+00 0.  1.
        -11    1    4    4    0    0  0.98952038678E-02 -0.56724947538E-02 -0.54616836947E-01  0.55797421584E-01  0.51100000000E-03 0.  1.
         11    1    4    4    0    0  0.36239978477E-01 -0.58038621518E-02 -0.62545302583E-01  0.72520320270E-01  0.51100000000E-03 0. -1.
</event>
<event>
 8    1  0.1063984E+005  0.1043930E+01  0.7957747E-01            NaN
         13   -1    0    0    0    0  0.00000000000E+00  0.00000000000E+00  0.74505805969E-08  0.10566000000E+00  0.10566000000E+00 0.  1.
     999900   -1    0    0    0    0 -0.00000000000E+00 -0.00000000000E+00 -0.74505805969E-08  0.93827000000E+00  0.93827000000E+00 0.  1.
     999902    2    1    2    0    0  0.63394721556E-03  0.93794171353E-02  0.18104123007E-01  0.10235306220E+01  0.10233273178E+01 0.  0.
     999903    2    3    3    0    0 -0.53846622033E-01  0.12108240254E+00 -0.96479557988E-02  0.13436479532E+00  0.20010203932E-01 0.  0.
         14    1    1    2    0    0 -0.63394721556E-03 -0.93794171353E-02 -0.18104123007E-01  0.20399378047E-01  0.00000000000E+00 0. -1.
     999901    1    3    3    0    0  0.54480569249E-01 -0.11170298540E+00  0.27752078806E-01  0.88916582663E+00  0.88000000000E+00 0. -1.
        -11    1    4    4    0    0 -0.29560274269E-01  0.88336040376E-01 -0.44033915274E-02  0.93256189190E-01  0.51100000000E-03 0. -1.
         11    1    4    4    0    0 -0.24286347764E-01  0.32746362162E-01 -0.52445642715E-02  0.41108606130E-01  0.51100000000E-03 0.  1.
</event>
<event>
 8    1  0.1063984E+005  0.1043930E+01  0.7957747E-01            NaN
         13   -1    0    0    0    0  0.00000000000E+00  0.00000000000E+00  0.74505805969E-08  0.10566000000E+00  0.10566000000E+00 0. -1.
     999900   -1    0    0    0    0 -0.00000000000E+00 -0.00000000000E+00 -0.74505805969E-08  0.93827000000E+00  0.93827000000E+00 0. -1.
     999902    2    1    2    0    0 -0.91030105582E-02  0.14127997050E-01  0.16510792054E-01  0.10203700476E+01  0.10200980162E+01 0.  0.
     999903    2    3    3    0    0 -0.13291601589E-01  0.10695566494E+00 -0.71886723675E-01  0.13107333616E+00  0.19908226378E-01 0.  0.
         14    1    1    2    0    0  0.91030105582E-02 -0.14127997050E-01 -0.16510792054E-01  0.23559952380E-01  0.00000000000E+00 0.  1.
     999901    1    3    3    0    0  0.41885910311E-02 -0.92827667886E-01  0.88397515729E-01  0.88929671146E+00  0.88000000000E+00 0. -1.
        -11    1    4    4    0    0 -0.75353407828E-02  0.55343754623E-01 -0.25353219202E-01  0.61341335015E-01  0.51100000000E-03 0. -1.
         11    1    4    4    0    0 -0.57562608064E-02  0.51611910314E-01 -0.46533504473E-01  0.69732001149E-01  0.51100000000E-03 0.  1.
</event>
<event>
 8    1  0.1063984E+005  0.1043930E+01  0.7957747E-01            NaN
         13   -1    0    0    0    0  0.00000000000E+00  0.00000000000E+00  0.74505805969E-08  0.10566000000E+00  0.10566000000E+00 0.  1.
     999900   -1    0    0    0    0 -0.00000000000E+00 -0.00000000000E+00 -0.74505805969E-08  0.93827000000E+00  0.93827000000E+00 0. -1.
     999902    2    1    2    0    0 -0.19015011899E-01  0.12395995577E-02  0.20489054583E-01  0.10159494953E+01  0.10155641134E+01 0.  0.
     999903    2    3    3    0    0  0.10686339345E-01 -0.12416739317E+00 -0.23018567414E-02  0.12627061520E+00  0.20179949042E-01 0.  0.
         14    1    1    2    0    0  0.19015011899E-01 -0.12395995577E-02 -0.20489054583E-01  0.27980504682E-01  0.00000000000E+00 0. -1.
     999901    1    3    3    0    0 -0.29701351243E-01  0.12540699273E+00  0.22790911324E-01  0.88967888012E+00  0.88000000000E+00 0. -1.
        -11    1    4    4    0    0  0.75024359191E-02 -0.84612053758E-01 -0.10962637960E-01  0.85650024739E-01  0.51100000000E-03 0. -1.
         11    1    4    4    0    0  0.31839034255E-02 -0.39555339411E-01  0.86607812191E-02  0.40620590460E-01  0.51100000000E-03 0.  1.
</event>
<event>
 8    1  0.1063984E+005  0.1043930E+01  0.7957747E-01            NaN
         13   -1    0    0    0    0  0.00000000000E+00  0.00000000000E+00  0.74505805969E-08  0.10566000000E+00  0.10566000000E+00 0.  1.
     999900   -1    0    0    0    0 -0.00000000000E+00 -0.00000000000E+00 -0.74505805969E-08  0.93827000000E+00  0.93827000000E+00 0.  1.
     999902    2    1    2    0    0  0.29224862076E-02  0.21788743581E-01 -0.86324081420E-02  0.10203120250E+01  0.10200386363E+01 0.  0.
     999903    2    3    3    0    0  0.38278121431E-01  0.99857820406E-01 -0.78005396797E-01  0.13343130402E+00  0.16800954943E-01 0.  0.
         14    1    1    2    0    0 -0.29224862076E-02 -0.21788743581E-01  0.86324081420E-02  0.23617974994E-01  0.00000000000E+00 0.  1.
     999901    1    3    3    0    0 -0.35355635224E-01 -0.78069076825E-01  0.69372988655E-01  0.88688072098E+00  0.88000000000E+00 0.  1.
        -11    1    4    4    0    0  0.18260987699E-01  0.42421373391E-01 -0.23811288089E-01  0.51964171826E-01  0.51100000000E-03 0.  1.
         11    1    4    4    0    0  0.20017133733E-01  0.57436447015E-01 -0.54194108708E-01  0.81467132196E-01  0.51100000000E-03 0. -1.
</event>
<event>
 8    1  0.1063984E+005  0.1043930E+01  0.7957747E-01            NaN
         13   -1    0    0    0    0  0.00000000000E+00  0.00000000000E+00  0.74505805969E-08  0.10566000000E+00  0.10566000000E+00 0.  1.
     999900   -1    0    0    0    0 -0.00000000000E+00 -0.00000000000E+00 -0.74505805969E-08  0.93827000000E+00  0.93827000000E+00 0. -1.
     999902    2    1    2    0    0  0.90750440944E-02 -0.22156310855E-01  0.90394615303E-02  0.10183376105E+01  0.10180159717E+01 0.  0.
     999903    2    3    3    0    0  0.15288120435E-01  0.11347443414E+00 -0.48688916788E-01  0.12605577891E+00  0.20230544936E-01 0.  0.
         14    1    1    2    0    0 -0.90750440944E-02  0.22156310855E-01 -0.90394615303E-02  0.25592389509E-01  0.00000000000E+00 0. -1.
     999901    1    3    3    0    0 -0.62130763402E-02 -0.13563074500E+00  0.57728378318E-01  0.89228183158E+00  0.88000000000E+00 0.  1.
        -11    1    4    4    0    0  0.49421430006E-02  0.63608783729E-01 -0.16841139812E-01  0.65987781112E-01  0.51100000000E-03 0.  1.
         11    1    4    4    0    0  0.10345977434E-01  0.49865650413E-01 -0.31847776976E-01  0.60067997799E-01  0.51100000000E-03 0. -1.
</event>
<event>
 8    1  0.1063984E+005  0.1043930E+01  0.7957747E-01            NaN
         13   -1    0    0    0    0  0.00000000000E+00  0.00000000000E+00  0.74505805969E-08  0.10566000000E+00  0.10566000000E+00 0.  1.
     999900   -1    0    0    0    0 -0.00000000000E+00 -0.00000000000E+00 -0.74505805969E-08  0.93827000000E+00  0.93827000000E+00 0. -1.
     999902    2    1    2    0    0 -0.18956518396E-01  0.13144998153E-01  0.65516371521E-03  0.10208525260E+01  0.10205916471E+01 0.  0.
     999903    2    3    3    0    0 -0.85753845812E-01 -0.60534989001E-01  0.77411505646E-01  0.13193061747E+00  0.19873088722E-01 0.  0.
         14    1    1    2    0    0  0.18956518396E-01 -0.13144998153E-01 -0.65516371521E-03  0.23077473987E-01  0.00000000000E+00 0. -1.
     999901    1    3    3    0    0  0.66797327417E-01  0.73679987154E-01 -0.76756341930E-01  0.88892190854E+00  0.88000000000E+00 0. -1.
        -11    1    4    4    0    0 -0.50267069833E-01 -0.29188158374E-01  0.52966834819E-01  0.78641424266E-01  0.51100000000E-03 0.  1.
         11    1    4    4    0    0 -0.35486775979E-01 -0.31346830626E-01  0.24444670827E-01  0.53289193206E-01  0.51100000000E-03 0. -1.
</event>
<event>
 8    1  0.1063984E+005  0.1043930E+01  0.7957747E-01            NaN
         13   -1    0    0    0    0  0.00000000000E+00  0.00000000000E+00  0.74505805969E-08  0.10566000000E+00  0.10566000000E+00 0. -1.
     999900   -1    0    0    0    0 -0.00000000000E+00 -0.00000000000E+00 -0.74505805969E-08  0.93827000000E+00  0.93827000000E+00 0. -1.
     999902    2    1    2    0    0  0.53452543459E-02 -0.24225863285E-01  0.28861271682E-02  0.10189541331E+01  0.10186479919E+01 0.  0.
     999903    2    3    3    0    0 -0.11185548667E+00  0.56212887444E-01  0.11242334738E-01  0.12750798640E+00  0.21455952403E-01 0.  0.
         14    1    1    2    0    0 -0.53452543459E-02  0.24225863285E-01 -0.28861271682E-02  0.24975866871E-01  0.00000000000E+00 0.  1.
     999901    1    3    3    0    0  0.11720074101E+00 -0.80438750729E-01 -0.83562075699E-02  0.89144614673E+00  0.88000000000E+00 0. -1.
        -11    1    4    4    0    0 -0.48349488288E-01  0.32358828232E-01 -0.27255015786E-02  0.58244796009E-01  0.51100000000E-03 0.  1.
         11    1    4    4    0    0 -0.63505998378E-01  0.23854059212E-01  0.13967836317E-01  0.69263190391E-01  0.51100000000E-03 0. -1.
</event>
<event>
 8    1  0.1063984E+005  0.1043930E+01  0.7957747E-01            NaN
         13   -1    0    0    0    0  0.00000000000E+00  0.00000000000E+00  0.74505805969E-08  0.10566000000E+00  0.10566000000E+00 0. -1.
     999900   -1    0    0    0    0 -0.00000000000E+00 -0.00000000000E+00 -0.74505805969E-08  0.93827000000E+00  0.93827000000E+00 0.  1.
     999902    2    1    2    0    0  0.80911891369E-02 -0.14993067561E-01  0.17456758530E-01  0.10195374225E+01  0.10192455828E+01 0.  0.
     999903    2    3    3    0    0 -0.32792943176E-02  0.69335484141E-01  0.10892205188E+00  0.13071432855E+00  0.20101223087E-01 0.  0.
         14    1    1    2    0    0 -0.80911891369E-02  0.14993067561E-01 -0.17456758530E-01  0.24392577456E-01  0.00000000000E+00 0.  1.
     999901    1    3    3    0    0  0.11370483455E-01 -0.84328551702E-01 -0.91465293354E-01  0.88882309399E+00  0.88000000000E+00 0.  1.
        -11    1    4    4    0    0 -0.44769583385E-02  0.13079788355E-01  0.10598253125E-01  0.17427223235E-01  0.51100000000E-03 0.  1.
         11    1    4    4    0    0  0.11976640209E-02  0.56255695786E-01  0.98323798760E-01  0.11328710532E+00  0.51100000000E-03 0. -1.
</event>
<event>
 8    1  0.1063984E+005  0.1043930E+01  0.7957747E-01            NaN
         13   -1    0    0    0    0  0.00000000000E+00  0.00000000000E+00  0.74505805969E-08  0.10566000000E+00  0.10566000000E+00 0.  1.
     999900   -1    0    0    0    0 -0.00000000000E+00 -0.00000000000E+00 -0.74505805969E-08  0.93827000000E+00  0.93827000000E+00 0.  1.
     999902    2    1    2    0    0 -0.21406167743E-01  0.66238219175E-02 -0.34244267204E-02  0.10212622755E+01  0.10210106805E+01 0.  0.
     999903    2    3    3    0    0 -0.12726768669E+00 -0.34346216304E-01 -0.13022760725E-01  0.13391942565E+00  0.19700091833E-01 0.  0.
         14    1    1    2    0    0  0.21406167743E-01 -0.66238219175E-02  0.34244267204E-02  0.22667724469E-01  0.00000000000E+00 0.  1.
     999901    1    3    3    0    0  0.10586151895E+00  0.40970038222E-01  0.95983340044E-02  0.88734284988E+00  0.88000000000E+00 0. -1.
        -11    1    4    4    0    0 -0.53354511607E-01 -0.44834619934E-02 -0.63762935588E-02  0.53923312035E-01  0.51100000000E-03 0.  1.
         11    1    4    4    0    0 -0.73913175085E-01 -0.29862754311E-01 -0.66464671660E-02  0.79996113611E-01  0.51100000000E-03 0. -1.
</event>
<event>
 8    1  0.1063984E+005  0.1043930E+01  0.7957747E-01            NaN
         13   -1    0    0    0    0  0.00000000000E+00  0.00000000000E+00  0.74505805969E-08  0.10566000000E+00  0.10566000000E+00 0. -1.
     999900   -1    0    0    0    0 -0.00000000000E+00 -0.00000000000E+00 -0.74505805969E-08  0.93827000000E+00  0.93827000000E+00 0.  1.
     999902    2    1    2    0    0  0.15548725790E-01 -0.14082665822E-01  0.10238607725E-01  0.10205866190E+01  0.10203196231E+01 0.  0.
     999903    2    3    3    0    0  0.65641548523E-02  0.11490774071E+00 -0.54331561918E-01  0.12879709542E+00  0.19745788508E-01 0.  0.
         14    1    1    2    0    0 -0.15548725790E-01  0.14082665822E-01 -0.10238607725E-01  0.23343381043E-01  0.00000000000E+00 0.  1.
     999901    1    3    3    0    0  0.89845709380E-02 -0.12899040653E+00  0.64570169644E-01  0.89178952354E+00  0.88000000000E+00 0. -1.
        -11    1    4    4    0    0 -0.70364217671E-02  0.34032868997E-01 -0.16866860117E-01  0.38632881004E-01  0.51100000000E-03 0. -1.
         11    1    4    4    0    0  0.13600576619E-01  0.80874871709E-01 -0.37464701801E-01  0.90164214411E-01  0.51100000000E-03 0.  1.
</event>
<event>
 8    1  0.1063984E+005  0.1043930E+01  0.7957747E-01            NaN
         13   -1    0    0    0    0  0.00000000000E+00  0.00000000000E+00  0.74505805969E-08  0.10566000000E+00  0.10566000000E+00 0.  1.
     999900   -1    0    0    0    0 -0.00000000000E+00 -0.00000000000E+00 -0.74505805969E-08  0.93827000000E+00  0.93827000000E+00 0.  1.
     999902    2    1    2    0    0 -0.10214786578E-01 -0.21266265816E-01  0.21857101770E-02  0.10202366833E+01  0.10199615271E+01 0.  0.
     999903    2    3    3    0    0  0.60634674760E-02 -0.86856244008E-01  0.97842666857E-01  0.13247698601E+00  0.19904562388E-01 0.  0.
         14    1    1    2    0    0  0.10214786578E-01  0.21266265816E-01 -0.21857101770E-02  0.23693316686E-01  0.00000000000E+00 0.  1.
     999901    1    3    3    0    0 -0.16278254054E-01  0.65589978192E-01 -0.95656956680E-01  0.88775969730E+00  0.88000000000E+00 0.  1.
        -11    1    4    4    0    0 -0.43878507690E-02 -0.60720712797E-01  0.61913478479E-01  0.86832011006E-01  0.51100000000E-03 0. -1.
         11    1    4    4    0    0  0.10451318245E-01 -0.26135531212E-01  0.35929188377E-01  0.45644975005E-01  0.51100000000E-03 0.  1.
</event>
<event>
 8    1  0.1063984E+005  0.1043930E+01  0.7957747E-01            NaN
         13   -1    0    0    0    0  0.00000000000E+00  0.00000000000E+00  0.74505805969E-08  0.10566000000E+00  0.10566000000E+00 0.  1.
     999900   -1    0    0    0    0 -0.00000000000E+00 -0.00000000000E+00 -0.74505805969E-08  0.93827000000E+00  0.93827000000E+00 0.  1.
     999902    2    1    2    0    0  0.53553449005E-02  0.23198119173E-01 -0.34613760868E-02  0.10198714552E+01  0.10195876478E+01 0.  0.
     999903    2    3    3    0    0 -0.23129879685E-01  0.98775791153E-01 -0.82982100088E-01  0.13260208346E+00  0.20140391061E-01 0.  0.
         14    1    1    2    0    0 -0.53553449005E-02 -0.23198119173E-01  0.34613760868E-02  0.24058544773E-01  0.00000000000E+00 0.  1.
     999901    1    3    3    0    0  0.28485224585E-01 -0.75577671980E-01  0.79520724001E-01  0.88726937176E+00  0.88000000000E+00 0. -1.
        -11    1    4    4    0    0 -0.20401306730E-02  0.11505438774E-01 -0.23578861173E-02  0.11931387282E-01  0.51100000000E-03 0. -1.
         11    1    4    4    0    0 -0.21089749012E-01  0.87270352379E-01 -0.80624213971E-01  0.12067069618E+00  0.51100000000E-03 0.  1.
</event>
<event>
 8    1  0.1063984E+005  0.1043930E+01  0.7957747E-01            NaN
         13   -1    0    0    0    0  0.00000000000E+00  0.00000000000E+00  0.74505805969E-08  0.10566000000E+00  0.10566000000E+00 0.  1.
     999900   -1    0    0    0    0 -0.00000000000E+00 -0.00000000000E+00 -0.74505805969E-08  0.93827000000E+00  0.93827000000E+00 0.  1.
     999902    2    1    2    0    0  0.13824761220E-01  0.14384354547E-01 -0.12105097528E-01  0.10205940392E+01  0.10203272151E+01 0.  0.
     999903    2    3    3    0    0  0.99225145063E-01  0.27592497792E-01 -0.82474635359E-01  0.13356554338E+00  0.20753639531E-01 0.  0.
         14    1    1    2    0    0 -0.13824761220E-01 -0.14384354547E-01  0.12105097528E-01  0.23335960762E-01  0.00000000000E+00 0.  1.
     999901    1    3    3    0    0 -0.85400383843E-01 -0.13208143245E-01  0.70369537831E-01  0.88702849586E+00  0.88000000000E+00 0. -1.
        -11    1    4    4    0    0  0.63422628721E-01  0.26876972599E-01 -0.59435710017E-01  0.90981680773E-01  0.51100000000E-03 0. -1.
         11    1    4    4    0    0  0.35802516341E-01  0.71552519316E-03 -0.23038925343E-01  0.42583862608E-01  0.51100000000E-03 0.  1.
</event>
<event>
 8    1  0.1063984E+005  0.1043930E+01  0.7957747E-01            NaN
         13   -1    0    0    0    0  0.00000000000E+00  0.00000000000E+00  0.74505805969E-08  0.10566000000E+00  0.10566000000E+00 0.  1.
     999900   -1    0    0    0    0 -0.00000000000E+00 -0.00000000000E+00 -0.74505805969E-08  0.93827000000E+00  0.93827000000E+00 0. -1.
     999902    2    1    2    0    0  0.17533941913E-01 -0.61441282612E-02  0.16667096394E-01  0.10189704020E+01  0.10186646644E+01 0.  0.
     999903    2    3    3    0    0 -0.59084986794E-01 -0.57464251529E-01  0.98936400251E-01  0.13033523857E+00  0.20141679441E-01 0.  0.
         14    1    1    2    0    0 -0.17533941913E-01  0.61441282612E-02 -0.16667096394E-01  0.24959598020E-01  0.00000000000E+00 0. -1.
     999901    1    3    3    0    0  0.76618928707E-01  0.51320123268E-01 -0.82269303857E-01  0.88863516341E+00  0.88000000000E+00 0. -1.
        -11    1    4    4    0    0 -0.33463916519E-01 -0.27266206491E-01  0.65794452593E-01  0.78692126914E-01  0.51100000000E-03 0. -1.
         11    1    4    4    0    0 -0.25621070275E-01 -0.30198045038E-01  0.33141947657E-01  0.51643111658E-01  0.51100000000E-03 0.  1.
</event>
<event>
 8    1  0.1063984E+005  0.1043930E+01  0.7957747E-01            NaN
         13   -1    0    0    0    0  0.00000000000E+00  0.00000000000E+00  0.74505805969E-08  0.10566000000E+00  0.10566000000E+00 0. -1.
     999900   -1    0    0    0    0 -0.00000000000E+00 -0.00000000000E+00 -0.74505805969E-08  0.93827000000E+00  0.93827000000E+00 0.  1.
     999902    2    1    2    0    0  0.20443778892E-01 -0.24999975506E-01  0.12490512879E-01  0.10093040013E+01  0.10087098727E+01 0.  0.
     999903    2    3    3    0    0 -0.11235355450E+00 -0.32683886128E-01  0.11350317114E-01  0.11930654389E+00  0.20338733864E-01 0.  0.
         14    1    1    2    0    0 -0.20443778892E-01  0.24999975506E-01 -0.12490512879E-01  0.34625998652E-01  0.00000000000E+00 0.  1.
     999901    1    3    3    0    0  0.13279733339E+00  0.76839106223E-02  0.11401957652E-02  0.88999745746E+00  0.88000000000E+00 0. -1.
        -11    1    4    4    0    0 -0.70183472295E-01 -0.27566225882E-01  0.14193483292E-01  0.76728955953E-01  0.51100000000E-03 0. -1.
         11    1    4    4    0    0 -0.42170082204E-01 -0.51176602462E-02 -0.28431661786E-02  0.42577587935E-01  0.51100000000E-03 0.  1.
</event>
<event>
 8    1  0.1063984E+005  0.1043930E+01  0.7957747E-01            NaN
         13   -1    0    0    0    0  0.00000000000E+00  0.00000000000E+00  0.74505805969E-08  0.10566000000E+00  0.10566000000E+00 0. -1.
     999900   -1    0    0    0    0 -0.00000000000E+00 -0.00000000000E+00 -0.74505805969E-08  0.93827000000E+00  0.93827000000E+00 0.  1.
     999902    2    1    2    0    0 -0.69100360715E-02  0.48319232464E-02  0.24435025999E-01  0.10180810817E+01  0.10177528788E+01 0.  0.
     999903    2    3    3    0    0 -0.11407798691E+00  0.17584759591E-02  0.60940847860E-01  0.13082289449E+00  0.19594985360E-01 0.  0.
         14    1    1    2    0    0  0.69100360715E-02 -0.48319232464E-02 -0.24435025999E-01  0.25848918282E-01  0.00000000000E+00 0.  1.
     999901    1    3    3    0    0  0.10716795084E+00  0.30734472873E-02 -0.36505821861E-01  0.88725818722E+00  0.88000000000E+00 0. -1.
        -11    1    4    4    0    0 -0.48146703992E-01 -0.37532188349E-02  0.35490720614E-01  0.59933664394E-01  0.51100000000E-03 0.  1.
         11    1    4    4    0    0 -0.65931282917E-01  0.55116947940E-02  0.25450127246E-01  0.70889230101E-01  0.51100000000E-03 0. -1.
</event>
<event>
 8    1  0.1063984E+005  0.1043930E+01  0.7957747E-01            NaN
         13   -1    0    0    0    0  0.00000000000E+00  0.00000000000E+00  0.74505805969E-08  0.10566000000E+00  0.10566000000E+00 0. -1.
     999900   -1    0    0    0    0 -0.00000000000E+00 -0.00000000000E+00 -0.74505805969E-08  0.93827000000E+00  0.93827000000E+00 0.  1.
     999902    2    1    2    0    0 -0.44775236150E-02 -0.20578217410E-01 -0.11991311180E-01  0.10196956691E+01  0.10194076490E+01 0.  0.
     999903    2    3    3    0    0 -0.12583147334E+00 -0.26992558391E-01  0.11831195804E-01  0.13102506832E+00  0.21573906488E-01 0.  0.
         14    1    1    2    0    0  0.44775236150E-02  0.20578217410E-01  0.11991311180E-01  0.24234330882E-01  0.00000000000E+00 0.  1.
     999901    1    3    3    0    0  0.12135394973E+00  0.64143409812E-02 -0.23822506983E-01  0.88867060080E+00  0.88000000000E+00 0.  1.
        -11    1    4    4    0    0 -0.70970763345E-02 -0.66777510072E-02 -0.13259266096E-02  0.98478451139E-02  0.51100000000E-03 0.  1.
         11    1    4    4    0    0 -0.11873439701E+00 -0.20314807384E-01  0.13157122413E-01  0.12117722321E+00  0.51100000000E-03 0. -1.
</event>
<event>
 8    1  0.1063984E+005  0.1043930E+01  0.7957747E-01            NaN
         13   -1    0    0    0    0  0.00000000000E+00  0.00000000000E+00  0.74505805969E-08  0.10566000000E+00  0.10566000000E+00 0.  1.
     999900   -1    0    0    0    0 -0.00000000000E+00 -0.00000000000E+00 -0.74505805969E-08  0.93827000000E+00  0.93827000000E+00 0. -1.
     999902    2    1    2    0    0  0.19001125550E-01 -0.14811969030E-02 -0.15860133195E-01  0.10191352316E+01  0.10188335682E+01 0.  0.
     999903    2    3    3    0    0  0.10830211431E+00  0.22931138414E-01 -0.68409725191E-01  0.13271992917E+00  0.26067298003E-01 0.  0.
         14    1    1    2    0    0 -0.19001125550E-01  0.14811969030E-02  0.15860133195E-01  0.24794768428E-01  0.00000000000E+00 0.  1.
     999901    1    3    3    0    0 -0.89300988763E-01 -0.24412335317E-01  0.52549591996E-01  0.88641530240E+00  0.88000000000E+00 0.  1.
        -11    1    4    4    0    0  0.33102095766E-01  0.12514191423E-01 -0.34994536501E-01  0.49771803634E-01  0.51100000000E-03 0. -1.
         11    1    4    4    0    0  0.75200018547E-01  0.10416946991E-01 -0.33415188690E-01  0.82948125538E-01  0.51100000000E-03 0.  1.
</event>
<event>
 8    1  0.1063984E+005  0.1043930E+01  0.7957747E-01            NaN
         13   -1    0    0    0    0  0.00000000000E+00  0.00000000000E+00  0.74505805969E-08  0.10566000000E+00  0.10566000000E+00 0. -1.
     999900   -1    0    0    0    0 -0.00000000000E+00 -0.00000000000E+00 -0.74505805969E-08  0.93827000000E+00  0.93827000000E+00 0.  1.
     999902    2    1    2    0    0  0.13159230283E-01 -0.42419450309E-02 -0.19456862987E-01  0.10200610043E+01  0.10197817038E+01 0.  0.
     999903    2    3    3    0    0  0.11445828582E+00 -0.62846035541E-01 -0.54917032621E-02  0.13220349107E+00  0.19931905827E-01 0.  0.
         14    1    1    2    0    0 -0.13159230283E-01  0.42419450309E-02  0.19456862987E-01  0.23868995718E-01  0.00000000000E+00 0. -1.
     999901    1    3    3    0    0 -0.10129905554E+00  0.58604090510E-01 -0.13965159725E-01  0.88785751321E+00  0.88000000000E+00 0.  1.
        -11    1    4    4    0    0  0.83271083295E-01 -0.41951784575E-01 -0.12291217585E-01  0.94049777740E-01  0.51100000000E-03 0.  1.
         11    1    4    4    0    0  0.31187202529E-01 -0.20894250966E-01  0.67995143230E-02  0.38153713332E-01  0.51100000000E-03 0. -1.
</event>
<event>
 8    1  0.1063984E+005  0.1043930E+01  0.7957747E-01            NaN
         13   -1    0    0    0    0  0.00000000000E+00  0.00000000000E+00  0.74505805969E-08  0.10566000000E+00  0.10566000000E+00 0. -1.
     999900   -1    0    0    0    0 -0.00000000000E+00 -0.00000000000E+00 -0.74505805969E-08  0.93827000000E+00  0.93827000000E+00 0. -1.
     999902    2    1    2    0    0  0.31044476024E-02  0.99258783530E-02  0.21372903866E-01  0.10201610775E+01  0.10198841417E+01 0.  0.
     999903    2    3    3    0    0  0.12757061258E+00  0.14323265345E-01 -0.14021665536E-01  0.13068711007E+00  0.20077263524E-01 0.  0.
         14    1    1    2    0    0 -0.31044476024E-02 -0.99258783530E-02 -0.21372903866E-01  0.23768922476E-01  0.00000000000E+00 0.  1.
     999901    1    3    3    0    0 -0.12446616497E+00 -0.43973869915E-02  0.35394569401E-01  0.88947396745E+00  0.88000000000E+00 0.  1.
        -11    1    4    4    0    0  0.36029084570E-01  0.13222861865E-01 -0.39238640505E-02  0.38582338458E-01  0.51100000000E-03 0.  1.
         11    1    4    4    0    0  0.91541528008E-01  0.11004034791E-02 -0.10097801485E-01  0.92104771611E-01  0.51100000000E-03 0. -1.
</event>
<event>
 8    1  0.1063984E+005  0.1043930E+01  0.7957747E-01            NaN
         13   -1    0    0    0    0  0.00000000000E+00  0.00000000000E+00  0.74505805969E-08  0.10566000000E+00  0.10566000000E+00 0.  1.
     999900   -1    0    0    0    0 -0.00000000000E+00 -0.00000000000E+00 -0.74505805969E-08  0.93827000000E+00  0.93827000000E+00 0.  1.
     999902    2    1    2    0    0 -0.13682978152E-01 -0.69903102869E-02  0.18749751700E-01  0.10196886816E+01  0.10194004934E+01 0.  0.
     999903    2    3    3    0    0 -0.11174798962E+00 -0.41004018066E-01  0.55614797053E-01  0.13282188757E+00  0.19486033055E-01 0.  0.
         14    1    1    2    0    0  0.13682978152E-01  0.69903102869E-02 -0.18749751700E-01  0.24241318401E-01  0.00000000000E+00 0. -1.
     999901    1    3    3    0    0  0.98065011465E-01  0.34013707779E-01 -0.36865045354E-01  0.88686679403E+00  0.88000000000E+00 0.  1.
        -11    1    4    4    0    0 -0.20693782764E-01 -0.81505474539E-02  0.24485110482E-02  0.22381250998E-01  0.51100000000E-03 0. -1.
         11    1    4    4    0    0 -0.91054206853E-01 -0.32853470612E-01  0.53166286005E-01  0.11044063657E+00  0.51100000000E-03 0.  1.
</event>
<event>
 8    1  0.1063984E+005  0.1043930E+01  0.7957747E-01            NaN
         13   -1    0    0    0    0  0.00000000000E+00  0.00000000000E+00  0.74505805969E-08  0.10566000000E+00  0.10566000000E+00 0. -1.
     999900   -1    0    0    0    0 -0.00000000000E+00 -0.00000000000E+00 -0.74505805969E-08  0.93827000000E+00  0.93827000000E+00 0.  1.
     999902    2    1    2    0    0 -0.12800446603E-01  0.20686960680E-01  0.44690833557E-02  0.10191959247E+01  0.10188957544E+01 0.  0.
     999903    2    3    3    0    0 -0.23892974719E-02  0.50529621417E-01 -0.11816864856E+00  0.13012956625E+00  0.20271238916E-01 0.  0.
         14    1    1    2    0    0  0.12800446603E-01 -0.20686960680E-01 -0.44690833557E-02  0.24734075310E-01  0.00000000000E+00 0.  1.
     999901    1    3    3    0    0 -0.10411149131E-01 -0.29842660736E-01  0.12263773191E+00  0.88906635844E+00  0.88000000000E+00 0. -1.
        -11    1    4    4    0    0 -0.75213137673E-02  0.41076222854E-01 -0.77231533499E-01  0.87799755878E-01  0.51100000000E-03 0.  1.
         11    1    4    4    0    0  0.51320162954E-02  0.94533985628E-02 -0.40937115057E-01  0.42329810369E-01  0.51100000000E-03 0. -1.
</event>
<event>
 8    1  0.1063984E+005  0.1043930E+01  0.7957747E-01            NaN
         13   -1    0    0    0    0  0.00000000000E+00  0.00000000000E+00  0.74505805969E-08  0.10566000000E+00  0.10566000000E+00 0.  1.
     999900   -1    0    0    0    0 -0.00000000000E+00 -0.00000000000E+00 -0.74505805969E-08  0.93827000000E+00  0.93827000000E+00 0. -1.
     999902    2    1    2    0    0 -0.22641468096E-01  0.28828755718E-02 -0.42546086913E-02  0.10207125767E+01  0.10204484874E+01 0.  0.
     999903    2    3    3    0    0  0.11771259819E+00 -0.78017532186E-02 -0.46379830037E-01  0.12853100355E+00  0.21260458882E-01 0.  0.
         14    1    1    2    0    0  0.22641468096E-01 -0.28828755718E-02  0.42546086913E-02  0.23217423290E-01  0.00000000000E+00 0. -1.
     999901    1    3    3    0    0 -0.14035406629E+00  0.10684628790E-01  0.42125221345E-01  0.89218157316E+00  0.88000000000E+00 0.  1.
        -11    1    4    4    0    0  0.64284950960E-01 -0.14319838250E-01 -0.29042494502E-01  0.71981527459E-01  0.51100000000E-03 0.  1.
         11    1    4    4    0    0  0.53427647235E-01  0.65180850318E-02 -0.17337335535E-01  0.56549476089E-01  0.51100000000E-03 0. -1.
</event>
<event>
 8    1  0.1063984E+005  0.1043930E+01  0.7957747E-01            NaN
         13   -1    0    0    0    0  0.00000000000E+00  0.00000000000E+00  0.74505805969E-08  0.10566000000E+00  0.10566000000E+00 0.  1.
     999900   -1    0    0    0    0 -0.00000000000E+00 -0.00000000000E+00 -0.74505805969E-08  0.93827000000E+00  0.93827000000E+00 0. -1.
     999902    2    1    2    0    0  0.21914877122E-01 -0.46253182577E-03 -0.67894291782E-02  0.10209828406E+01  0.10207249329E+01 0.  0.
     999903    2    3    3    0    0  0.28986591100E-01  0.10020799481E+00 -0.78795775500E-01  0.13229308712E+00  0.20268743787E-01 0.  0.
         14    1    1    2    0    0 -0.21914877122E-01  0.46253182577E-03  0.67894291782E-02  0.22947159378E-01  0.00000000000E+00 0. -1.
     999901    1    3    3    0    0 -0.70717139780E-02 -0.10067052664E+00  0.72006346322E-01  0.88868975350E+00  0.88000000000E+00 0.  1.
        -11    1    4    4    0    0  0.69994812180E-02  0.57697834856E-01 -0.38402312930E-01  0.69663703919E-01  0.51100000000E-03 0. -1.
         11    1    4    4    0    0  0.21987109882E-01  0.42510159956E-01 -0.40393462570E-01  0.62629383199E-01  0.51100000000E-03 0.  1.
</event>
<event>
 8    1  0.1063984E+005  0.1043930E+01  0.7957747E-01            NaN
         13   -1    0    0    0    0  0.00000000000E+00  0.00000000000E+00  0.74505805969E-08  0.10566000000E+00  0.10566000000E+00 0.  1.
     999900   -1    0    0    0    0 -0.00000000000E+00 -0.00000000000E+00 -0.74505805969E-08  0.93827000000E+00  0.93827000000E+00 0.  1.
     999902    2    1    2    0    0  0.12977567092E-01  0.18730772626E-01  0.58856732474E-02  0.10203949147E+01  0.10201234639E+01 0.  0.
     999903    2    3    3    0    0  0.70155581633E-01 -0.52850343376E-01  0.94903635771E-01  0.13117200723E+00  0.22009792544E-01 0.  0.
         14    1    1    2    0    0 -0.12977567092E-01 -0.18730772626E-01 -0.58856732474E-02  0.23535085306E-01  0.00000000000E+00 0. -1.
     999901    1    3    3    0    0 -0.57178014541E-01  0.71581116002E-01 -0.89017962524E-01  0.88922290747E+00  0.88000000000E+00 0. -1.
        -11    1    4    4    0    0  0.32349173320E-01 -0.15114810998E-01  0.49671697473E-01  0.61175691061E-01  0.51100000000E-03 0.  1.
         11    1    4    4    0    0  0.37806408313E-01 -0.37735532378E-01  0.45231938298E-01  0.69996316164E-01  0.51100000000E-03 0. -1.
</event>
<event>
 8    1  0.1063984E+005  0.1043930E+01  0.7957747E-01            NaN
         13   -1    0    0    0    0  0.00000000000E+00  0.00000000000E+00  0.74505805969E-08  0.10566000000E+00  0.10566000000E+00 0. -1.
     999900   -1    0    0    0    0 -0.00000000000E+00 -0.00000000000E+00 -0.74505805969E-08  0.93827000000E+00  0.93827000000E+00 0.  1.
     999902    2    1    2    0    0  0.23084383665E-01 -0.26244156857E-02  0.38404293744E-02  0.10203816407E+01  0.10201098801E+01 0.  0.
     999903    2    3    3    0    0 -0.21107912478E-01  0.10768232288E+00 -0.66221275539E-01  0.12963522445E+00  0.19468113788E-01 0.  0.
         14    1    1    2    0    0 -0.23084383665E-01  0.26244156857E-02 -0.38404293744E-02  0.23548359277E-01  0.00000000000E+00 0. -1.
     999901    1    3    3    0    0  0.44192296143E-01 -0.11030673856E+00  0.70061704913E-01  0.89074641627E+00  0.88000000000E+00 0. -1.
        -11    1    4    4    0    0 -0.68020584776E-02  0.18520192030E-01 -0.44686415601E-02  0.20235992457E-01  0.51100000000E-03 0. -1.
         11    1    4    4    0    0 -0.14305854000E-01  0.89162130847E-01 -0.61752633979E-01  0.10939923199E+00  0.51100000000E-03 0.  1.
</event>
<event>
 8    1  0.1063984E+005  0.1043930E+01  0.7957747E-01            NaN
         13   -1    0    0    0    0  0.00000000000E+00  0.00000000000E+00  0.74505805969E-08  0.10566000000E+00  0.10566000000E+00 0.  1.
     999900   -1    0    0    0    0 -0.00000000000E+00 -0.00000000000E+00 -0.74505805969E-08  0.93827000000E+00  0.93827000000E+00 0. -1.
     999902    2    1    2    0    0 -0.15755649805E-01  0.17657720684E-01  0.25685840722E-02  0.10201259410E+01  0.10198481761E+01 0.  0.
     999903    2    3    3    0    0  0.52841918939E-01  0.95695982718E-01 -0.69667118275E-01  0.13107386521E+00  0.19412914957E-01 0.  0.
         14    1    1    2    0    0  0.15755649805E-01 -0.17657720684E-01 -0.25685840722E-02  0.23804058996E-01  0.00000000000E+00 0.  1.
     999901    1    3    3    0    0 -0.68597568744E-01 -0.78038262033E-01  0.72235702347E-01  0.88905207579E+00  0.88000000000E+00 0.  1.
        -11    1    4    4    0    0  0.31488039108E-01  0.72276890862E-01 -0.43993064567E-01  0.90283422678E-01  0.51100000000E-03 0.  1.
         11    1    4    4    0    0  0.21353879831E-01  0.23419091856E-01 -0.25674053708E-01  0.40790442532E-01  0.51100000000E-03 0. -1.
</event>
<event>
 8    1  0.1063984E+005  0.1043930E+01  0.7957747E-01            NaN
         13   -1    0    0    0    0  0.00000000000E+00  0.00000000000E+00  0.74505805969E-08  0.10566000000E+00  0.10566000000E+00 0. -1.
     999900   -1    0    0    0    0 -0.00000000000E+00 -0.00000000000E+00 -0.74505805969E-08  0.93827000000E+00  0.93827000000E+00 0.  1.
     999902    2    1    2    0    0  0.21863013276E-01 -0.10334550459E-02 -0.99443079634E-02  0.10198894376E+01  0.10196060594E+01 0.  0.
     999903    2    3    3    0    0  0.86520243560E-01 -0.38173408336E-01  0.88670590580E-01  0.13124730955E+00  0.20504169842E-01 0.  0.
         14    1    1    2    0    0 -0.21863013276E-01  0.10334550459E-02  0.99443079634E-02  0.24040562383E-01  0.00000000000E+00 0. -1.
     999901    1    3    3    0    0 -0.64657230284E-01  0.37139953290E-01 -0.98614898544E-01  0.88864212807E+00  0.88000000000E+00 0.  1.
        -11    1    4    4    0    0  0.83187801424E-01 -0.31793553450E-01  0.78121168440E-01  0.11846610666E+00  0.51100000000E-03 0.  1.
         11    1    4    4    0    0  0.33324421355E-02 -0.63798548858E-02  0.10549422141E-01  0.12781202895E-01  0.51100000000E-03 0. -1.
</event>
<event>
 8    1  0.1063984E+005  0.1043930E+01  0.7957747E-01            NaN
         13   -1    0    0    0    0  0.00000000000E+00  0.00000000000E+00  0.74505805969E-08  0.10566000000E+00  0.10566000000E+00 0. -1.
     999900   -1    0    0    0    0 -0.00000000000E+00 -0.00000000000E+00 -0.74505805969E-08  0.93827000000E+00  0.93827000000E+00 0.  1.
     999902    2    1    2    0    0  0.62229273058E-02  0.48063141964E-02 -0.22532812783E-01  0.10200646877E+01  0.10197854745E+01 0.  0.
     999903    2    3    3    0    0  0.99218478254E-02  0.10355001906E+00 -0.79907452023E-01  0.13267759599E+00  0.19927219500E-01 0.  0.
         14    1    1    2    0    0 -0.62229273058E-02 -0.48063141964E-02  0.22532812783E-01  0.23865312324E-01  0.00000000000E+00 0. -1.
     999901    1    3    3    0    0 -0.36989205197E-02 -0.98743704865E-01  0.57374639240E-01  0.88738709169E+00  0.88000000000E+00 0.  1.
        -11    1    4    4    0    0  0.92452110215E-02  0.40752579252E-01 -0.42364829341E-01  0.59508709687E-01  0.51100000000E-03 0.  1.
         11    1    4    4    0    0  0.67663680392E-03  0.62797439809E-01 -0.37542622682E-01  0.73168886303E-01  0.51100000000E-03 0. -1.
</event>
<event>
 8    1  0.1309540E+005  0.1043930E+01  0.7957747E-01            NaN
         13   -1    0    0    0    0  0.00000000000E+00  0.00000000000E+00  0.74505805969E-08  0.10566000000E+00  0.10566000000E+00 0. -1.
     999900   -1    0    0    0    0 -0.00000000000E+00 -0.00000000000E+00 -0.74505805969E-08  0.93827000000E+00  0.93827000000E+00 0. -1.
     999902    2    1    2    0    0 -0.15871617324E-01 -0.13368913075E-01  0.11071192676E-01  0.10204096390E+01  0.10201385318E+01 0.  0.
     999903    2    3    3    0    0 -0.45872134628E-01  0.38765086960E-01 -0.11316500887E+00  0.12965006496E+00  0.19895612819E-01 0.  0.
         14    1    1    2    0    0  0.15871617324E-01  0.13368913075E-01 -0.11071192676E-01  0.23520360979E-01  0.00000000000E+00 0. -1.
     999901    1    3    3    0    0  0.30000517304E-01 -0.52134000035E-01  0.12423620155E+00  0.89075957406E+00  0.88000000000E+00 0.  1.
        -11    1    4    4    0    0 -0.12147875294E-01  0.77645774651E-02 -0.47071586210E-01  0.49232660772E-01  0.51100000000E-03 0.  1.
         11    1    4    4    0    0 -0.33724259334E-01  0.31000509495E-01 -0.66093422665E-01  0.80417404193E-01  0.51100000000E-03 0. -1.
</event>
<event>
 8    1  0.1063984E+005  0.1043930E+01  0.7957747E-01            NaN
         13   -1    0    0    0    0  0.00000000000E+00  0.00000000000E+00  0.74505805969E-08  0.10566000000E+00  0.10566000000E+00 0. -1.
     999900   -1    0    0    0    0 -0.00000000000E+00 -0.00000000000E+00 -0.74505805969E-08  0.93827000000E+00  0.93827000000E+00 0. -1.
     999902    2    1    2    0    0  0.56920561253E-03 -0.22667355522E-01 -0.17738339107E-02  0.10211862209E+01  0.10209329156E+01 0.  0.
     999903    2    3    3    0    0 -0.11420452450E+00 -0.62215834305E-01  0.17383244038E-01  0.13264579698E+00  0.19474260671E-01 0.  0.
         14    1    1    2    0    0 -0.56920561253E-03  0.22667355522E-01  0.17738339107E-02  0.22743779108E-01  0.00000000000E+00 0. -1.
     999901    1    3    3    0    0  0.11477373011E+00  0.39548478783E-01 -0.19157077948E-01  0.88854042392E+00  0.88000000000E+00 0. -1.
        -11    1    4    4    0    0 -0.40714677376E-01 -0.12165097910E-01  0.79120467472E-02  0.43226567822E-01  0.51100000000E-03 0. -1.
         11    1    4    4    0    0 -0.73489847120E-01 -0.50050736395E-01  0.94711972904E-02  0.89419229154E-01  0.51100000000E-03 0.  1.
</event>
<event>
 8    1  0.1063984E+005  0.1043930E+01  0.7957747E-01            NaN
         13   -1    0    0    0    0  0.00000000000E+00  0.00000000000E+00  0.74505805969E-08  0.10566000000E+00  0.10566000000E+00 0. -1.
     999900   -1    0    0    0    0 -0.00000000000E+00 -0.00000000000E+00 -0.74505805969E-08  0.93827000000E+00  0.93827000000E+00 0.  1.
     999902    2    1    2    0    0 -0.18831566147E-01  0.10991097075E-01  0.60344094856E-02  0.10213059819E+01  0.10210553670E+01 0.  0.
     999903    2    3    3    0    0  0.26986864318E-01  0.83046043342E-01 -0.95234803898E-01  0.13139211108E+00  0.23859648350E-01 0.  0.
         14    1    1    2    0    0  0.18831566147E-01 -0.10991097075E-01 -0.60344094856E-02  0.22624018129E-01  0.00000000000E+00 0.  1.
     999901    1    3    3    0    0 -0.45818430465E-01 -0.72054946268E-01  0.10126921338E+00  0.88991387079E+00  0.88000000000E+00 0. -1.
        -11    1    4    4    0    0  0.64819942664E-02  0.18047327797E-01 -0.82425217319E-02  0.20878758962E-01  0.51100000000E-03 0. -1.
         11    1    4    4    0    0  0.20504870051E-01  0.64998715545E-01 -0.86992282166E-01  0.11051335212E+00  0.51100000000E-03 0.  1.
</event>
<event>
 8    1  0.1063984E+005  0.1043930E+01  0.7957747E-01            NaN
         13   -1    0    0    0    0  0.00000000000E+00  0.00000000000E+00  0.74505805969E-08  0.10566000000E+00  0.10566000000E+00 0.  1.
     999900   -1    0    0    0    0 -0.00000000000E+00 -0.00000000000E+00 -0.74505805969E-08  0.93827000000E+00  0.93827000000E+00 0. -1.
     999902    2    1    2    0    0 -0.11591704806E-01 -0.37265899315E-02 -0.22716868410E-01  0.10181557647E+01  0.10178294799E+01 0.  0.
     999903    2    3    3    0    0  0.70624033987E-01 -0.37400877914E-01 -0.10085273469E+00  0.13023763846E+00  0.20099465941E-01 0.  0.
         14    1    1    2    0    0  0.11591704806E-01  0.37265899315E-02  0.22716868410E-01  0.25774235259E-01  0.00000000000E+00 0.  1.
     999901    1    3    3    0    0 -0.82215738794E-01  0.33674287983E-01  0.78135866284E-01  0.88791812628E+00  0.88000000000E+00 0. -1.
        -11    1    4    4    0    0  0.24104617195E-01 -0.23834050043E-01 -0.39459159858E-01  0.52022888513E-01  0.51100000000E-03 0. -1.
         11    1    4    4    0    0  0.46519416792E-01 -0.13566827871E-01 -0.61393574837E-01  0.78214749948E-01  0.51100000000E-03 0.  1.
</event>
<event>
 8    1  0.1063984E+005  0.1043930E+01  0.7957747E-01            NaN
         13   -1    0    0    0    0  0.00000000000E+00  0.00000000000E+00  0.74505805969E-08  0.10566000000E+00  0.10566000000E+00 0.  1.
     999900   -1    0    0    0    0 -0.00000000000E+00 -0.00000000000E+00 -0.74505805969E-08  0.93827000000E+00  0.93827000000E+00 0.  1.
     999902    2    1    2    0    0 -0.62126934702E-02  0.97204011242E-02 -0.20459306734E-01  0.10204424077E+01  0.10201720642E+01 0.  0.
     999903    2    3    3    0    0  0.33013397600E-01  0.12123076909E+00 -0.35862552394E-01  0.13240496013E+00  0.21404836031E-01 0.  0.
         14    1    1    2    0    0  0.62126934702E-02 -0.97204011242E-02  0.20459306734E-01  0.23487592261E-01  0.00000000000E+00 0.  1.
     999901    1    3    3    0    0 -0.39226091071E-01 -0.11151036797E+00  0.15403245660E-01  0.88803744761E+00  0.88000000000E+00 0. -1.
        -11    1    4    4    0    0  0.19005821273E-01  0.90324692069E-01 -0.17955823560E-01  0.94034270138E-01  0.51100000000E-03 0.  1.
         11    1    4    4    0    0  0.14007576327E-01  0.30906077025E-01 -0.17906728834E-01  0.38370689988E-01  0.51100000000E-03 0. -1.
</event>
<event>
 8    1  0.1063984E+005  0.1043930E+01  0.7957747E-01            NaN
         13   -1    0    0    0    0  0.00000000000E+00  0.00000000000E+00  0.74505805969E-08  0.10566000000E+00  0.10566000000E+00 0. -1.
     999900   -1    0    0    0    0 -0.00000000000E+00 -0.00000000000E+00 -0.74505805969E-08  0.93827000000E+00  0.93827000000E+00 0.  1.
     999902    2    1    2    0    0 -0.11111286811E-01  0.20617678559E-01 -0.18150105108E-02  0.10204386478E+01  0.10201682167E+01 0.  0.
     999903    2    3    3    0    0  0.51214883533E-01  0.38243948387E-01 -0.11272128763E+00  0.13111562485E+00  0.19991360913E-01 0.  0.
         14    1    1    2    0    0  0.11111286811E-01 -0.20617678559E-01  0.18150105108E-02  0.23491352173E-01  0.00000000000E+00 0. -1.
     999901    1    3    3    0    0 -0.62326170345E-01 -0.17626269828E-01  0.11090627712E+00  0.88932302298E+00  0.88000000000E+00 0. -1.
        -11    1    4    4    0    0  0.36465505515E-01  0.26343499153E-01 -0.95224781279E-01  0.10531729740E+00  0.51100000000E-03 0.  1.
         11    1    4    4    0    0  0.14749378018E-01  0.11900449234E-01 -0.17496506348E-01  0.25798327452E-01  0.51100000000E-03 0. -1.
</event>
<event>
 8    1  0.1063984E+005  0.1043930E+01  0.7957747E-01            NaN
         13   -1    0    0    0    0  0.00000000000E+00  0.00000000000E+00  0.74505805969E-08  0.10566000000E+00  0.10566000000E+00 0.  1.
     999900   -1    0    0    0    0 -0.00000000000E+00 -0.00000000000E+00 -0.74505805969E-08  0.93827000000E+00  0.93827000000E+00 0. -1.
     999902    2    1    2    0    0  0.42118921120E-02  0.12512651989E-02 -0.22533161464E-01  0.10209724508E+01  0.10207143069E+01 0.  0.
     999903    2    3    3    0    0 -0.96776851399E-01 -0.28120281765E-01  0.78018379768E-01  0.12902400692E+00  0.20095212560E-01 0.  0.
         14    1    1    2    0    0 -0.42118921120E-02 -0.12512651989E-02  0.22533161464E-01  0.22957549201E-01  0.00000000000E+00 0.  1.
     999901    1    3    3    0    0  0.10098874351E+00  0.29371546963E-01 -0.10055154123E+00  0.89194844388E+00  0.88000000000E+00 0. -1.
        -11    1    4    4    0    0 -0.49845324793E-01 -0.24652381062E-01  0.39554926928E-01  0.68243312207E-01  0.51100000000E-03 0. -1.
         11    1    4    4    0    0 -0.46931526606E-01 -0.34679007026E-02  0.38463452840E-01  0.60780694717E-01  0.51100000000E-03 0.  1.
</event>
<event>
 8    1  0.1063984E+005  0.1043930E+01  0.7957747E-01            NaN
         13   -1    0    0    0    0  0.00000000000E+00  0.00000000000E+00  0.74505805969E-08  0.10566000000E+00  0.10566000000E+00 0.  1.
     999900   -1    0    0    0    0 -0.00000000000E+00 -0.00000000000E+00 -0.74505805969E-08  0.93827000000E+00  0.93827000000E+00 0.  1.
     999902    2    1    2    0    0 -0.40361042146E-02 -0.10802654041E-01 -0.20067722603E-01  0.10207847853E+01  0.10205223550E+01 0.  0.
     999903    2    3    3    0    0 -0.77990281013E-01 -0.69609838021E-01 -0.80680980790E-01  0.13365375092E+00  0.20637126529E-01 0.  0.
         14    1    1    2    0    0  0.40361042146E-02  0.10802654041E-01  0.20067722603E-01  0.23145214668E-01  0.00000000000E+00 0.  1.
     999901    1    3    3    0    0  0.73954176799E-01  0.58807183980E-01  0.60613258187E-01  0.88713103441E+00  0.88000000000E+00 0. -1.
        -11    1    4    4    0    0 -0.43920203937E-01 -0.51938729131E-01 -0.54949584048E-01  0.87443317673E-01  0.51100000000E-03 0. -1.
         11    1    4    4    0    0 -0.34070077076E-01 -0.17671108890E-01 -0.25731396742E-01  0.46210433245E-01  0.51100000000E-03 0.  1.
</event>
<event>
 8    1  0.1063984E+005  0.1043930E+01  0.7957747E-01            NaN
         13   -1    0    0    0    0  0.00000000000E+00  0.00000000000E+00  0.74505805969E-08  0.10566000000E+00  0.10566000000E+00 0.  1.
     999900   -1    0    0    0    0 -0.00000000000E+00 -0.00000000000E+00 -0.74505805969E-08  0.93827000000E+00  0.93827000000E+00 0. -1.
     999902    2    1    2    0    0 -0.78981767759E-02 -0.18599900872E-01 -0.12682060928E-01  0.10200726703E+01  0.10197936461E+01 0.  0.
     999903    2    3    3    0    0 -0.47043252063E-01 -0.10797756472E+00  0.56007034173E-01  0.13201923980E+00  0.20495603272E-01 0.  0.
         14    1    1    2    0    0  0.78981767759E-02  0.18599900872E-01  0.12682060928E-01  0.23857329654E-01  0.00000000000E+00 0. -1.
     999901    1    3    3    0    0  0.39145075287E-01  0.89377663848E-01 -0.68689095101E-01  0.88805343054E+00  0.88000000000E+00 0. -1.
        -11    1    4    4    0    0 -0.17459891066E-01 -0.39655671583E-01  0.99110021580E-02  0.44451199866E-01  0.51100000000E-03 0.  1.
         11    1    4    4    0    0 -0.29583360997E-01 -0.68321893137E-01  0.46096032015E-01  0.87568039936E-01  0.51100000000E-03 0. -1.
</event>
<event>
 8    1  0.1063984E+005  0.1043930E+01  0.7957747E-01            NaN
         13   -1    0    0    0    0  0.00000000000E+00  0.00000000000E+00  0.74505805969E-08  0.10566000000E+00  0.10566000000E+00 0. -1.
     999900   -1    0    0    0    0 -0.00000000000E+00 -0.00000000000E+00 -0.74505805969E-08  0.93827000000E+00  0.93827000000E+00 0.  1.
     999902    2    1    2    0    0 -0.70507041273E-02  0.24834387888E-01 -0.71638602645E-02  0.10171385808E+01  0.10167856767E+01 0.  0.
     999903    2    3    3    0    0 -0.10916798562E+00 -0.27277858598E-01  0.56401525141E-01  0.12742841244E+00  0.19878068404E-01 0.  0.
         14    1    1    2    0    0  0.70507041273E-02 -0.24834387888E-01  0.71638602645E-02  0.26791419230E-01  0.00000000000E+00 0. -1.
     999901    1    3    3    0    0  0.10211728149E+00  0.52112246486E-01 -0.63565385406E-01  0.88971016833E+00  0.88000000000E+00 0. -1.
        -11    1    4    4    0    0 -0.73208640259E-01 -0.21492337779E-01  0.47682913165E-01  0.89974145846E-01  0.51100000000E-03 0. -1.
         11    1    4    4    0    0 -0.35959345362E-01 -0.57855208185E-02  0.87186119760E-02  0.37454266590E-01  0.51100000000E-03 0.  1.
</event>
<event>
 8    1  0.1063984E+005  0.1043930E+01  0.7957747E-01            NaN
         13   -1    0    0    0    0  0.00000000000E+00  0.00000000000E+00  0.74505805969E-08  0.10566000000E+00  0.10566000000E+00 0. -1.
     999900   -1    0    0    0    0 -0.00000000000E+00 -0.00000000000E+00 -0.74505805969E-08  0.93827000000E+00  0.93827000000E+00 0. -1.
     999902    2    1    2    0    0 -0.66408386749E-02  0.10910674535E-01 -0.21014467900E-01  0.10193383059E+01  0.10190416235E+01 0.  0.
     999903    2    3    3    0    0 -0.43071258433E-01  0.45807945819E-01  0.10963700301E+00  0.12826322384E+00  0.21855913598E-01 0.  0.
         14    1    1    2    0    0  0.66408386749E-02 -0.10910674535E-01  0.21014467900E-01  0.24591694091E-01  0.00000000000E+00 0. -1.
     999901    1    3    3    0    0  0.36430419759E-01 -0.34897271284E-01 -0.13065147091E+00  0.89107508207E+00  0.88000000000E+00 0. -1.
        -11    1    4    4    0    0 -0.37493728898E-02  0.11664408065E-01  0.99486544496E-02  0.15790916976E-01  0.51100000000E-03 0.  1.
         11    1    4    4    0    0 -0.39321885544E-01  0.34143537753E-01  0.99688348558E-01  0.11247230687E+00  0.51100000000E-03 0. -1.
</event>
<event>
 8    1  0.1063984E+005  0.1043930E+01  0.7957747E-01            NaN
         13   -1    0    0    0    0  0.00000000000E+00  0.00000000000E+00  0.74505805969E-08  0.10566000000E+00  0.10566000000E+00 0. -1.
     999900   -1    0    0    0    0 -0.00000000000E+00 -0.00000000000E+00 -0.74505805969E-08  0.93827000000E+00  0.93827000000E+00 0. -1.
     999902    2    1    2    0    0  0.19691801299E-01  0.10388640077E-01  0.91011060909E-02  0.10198775362E+01  0.10195938740E+01 0.  0.
     999903    2    3    3    0    0 -0.16046527926E-01 -0.10045231058E+00  0.77709452445E-01  0.12955734119E+00  0.19954646015E-01 0.  0.
         14    1    1    2    0    0 -0.19691801299E-01 -0.10388640077E-01 -0.91011060909E-02  0.24052463764E-01  0.00000000000E+00 0.  1.
     999901    1    3    3    0    0  0.35738329225E-01  0.11084095066E+00 -0.68608346354E-01  0.89032019505E+00  0.88000000000E+00 0. -1.
        -11    1    4    4    0    0 -0.24001649740E-02 -0.65015300339E-01  0.42084703177E-01  0.77486343523E-01  0.51100000000E-03 0. -1.
         11    1    4    4    0    0 -0.13646362952E-01 -0.35437010241E-01  0.35624749267E-01  0.52070997666E-01  0.51100000000E-03 0.  1.
</event>
<event>
 8    1  0.1063984E+005  0.1043930E+01  0.7957747E-01            NaN
         13   -1    0    0    0    0  0.00000000000E+00  0.00000000000E+00  0.74505805969E-08  0.10566000000E+00  0.10566000000E+00 0. -1.
     999900   -1    0    0    0    0 -0.00000000000E+00 -0.00000000000E+00 -0.74505805969E-08  0.93827000000E+00  0.93827000000E+00 0. -1.
     999902    2    1    2    0    0  0.10260126475E-01 -0.20776107682E-01  0.74864406149E-02  0.10195791553E+01  0.10192883254E+01 0.  0.
     999903    2    3    3    0    0 -0.59831863823E-01  0.41047826033E-01 -0.10318977031E+00  0.12773594621E+00  0.20088984768E-01 0.  0.
         14    1    1    2    0    0 -0.10260126475E-01  0.20776107682E-01 -0.74864406149E-02  0.24350844725E-01  0.00000000000E+00 0.  1.
     999901    1    3    3    0    0  0.70091990299E-01 -0.61823933716E-01  0.11067621092E+00  0.89184320906E+00  0.88000000000E+00 0.  1.
        -11    1    4    4    0    0 -0.37170077009E-01  0.13361525369E-01 -0.53449671839E-01  0.66462572368E-01  0.51100000000E-03 0. -1.
         11    1    4    4    0    0 -0.22661786814E-01  0.27686300665E-01 -0.49740098466E-01  0.61273373847E-01  0.51100000000E-03 0.  1.
</event>
<event>
 8    1  0.1063984E+005  0.1043930E+01  0.7957747E-01            NaN
         13   -1    0    0    0    0  0.00000000000E+00  0.00000000000E+00  0.74505805969E-08  0.10566000000E+00  0.10566000000E+00 0. -1.
     999900   -1    0    0    0    0 -0.00000000000E+00 -0.00000000000E+00 -0.74505805969E-08  0.93827000000E+00  0.93827000000E+00 0.  1.
     999902    2    1    2    0    0 -0.45181784691E-02 -0.16985527065E-01  0.16331886058E-01  0.10199372392E+01  0.10196550002E+01 0.  0.
     999903    2    3    3    0    0  0.14703813623E-01 -0.91692885122E-01  0.93314412223E-01  0.13321463118E+00  0.20365930226E-01 0.  0.
         14    1    1    2    0    0  0.45181784691E-02  0.16985527065E-01 -0.16331886058E-01  0.23992760753E-01  0.00000000000E+00 0.  1.
     999901    1    3    3    0    0 -0.19221992092E-01  0.74707358057E-01 -0.76982526165E-01  0.88672260807E+00  0.88000000000E+00 0. -1.
        -11    1    4    4    0    0  0.11935481629E-01 -0.25430335177E-01  0.20893868501E-01  0.35013890541E-01  0.51100000000E-03 0.  1.
         11    1    4    4    0    0  0.27683319935E-02 -0.66262549945E-01  0.72420543723E-01  0.98200740636E-01  0.51100000000E-03 0. -1.
</event>
<event>
 8    1  0.1063984E+005  0.1043930E+01  0.7957747E-01            NaN
         13   -1    0    0    0    0  0.00000000000E+00  0.00000000000E+00  0.74505805969E-08  0.10566000000E+00  0.10566000000E+00 0.  1.
     999900   -1    0    0    0    0 -0.00000000000E+00 -0.00000000000E+00 -0.74505805969E-08  0.93827000000E+00  0.93827000000E+00 0. -1.
     999902    2    1    2    0    0  0.19591122062E-01 -0.87038032833E-02  0.95552144999E-02  0.10204593720E+01  0.10201894233E+01 0.  0.
     999903    2    3    3    0    0 -0.43010299845E-01 -0.11187885940E+00  0.49612803823E-01  0.13132010242E+00  0.20415041567E-01 0.  0.
         14    1    1    2    0    0 -0.19591122062E-01  0.87038032833E-02 -0.95552144999E-02  0.23470628014E-01  0.00000000000E+00 0.  1.
     999901    1    3    3    0    0  0.62601421907E-01  0.10317505612E+00 -0.40057589323E-01  0.88913926957E+00  0.88000000000E+00 0. -1.
        -11    1    4    4    0    0 -0.44367947854E-02 -0.35403903115E-01  0.10802325806E-01  0.37283680981E-01  0.51100000000E-03 0. -1.
         11    1    4    4    0    0 -0.38573505059E-01 -0.76474956284E-01  0.38810478018E-01  0.94036421434E-01  0.51100000000E-03 0.  1.
</event>
<event>
 8    1  0.1063984E+005  0.1043930E+01  0.7957747E-01            NaN
         13   -1    0    0    0    0  0.00000000000E+00  0.00000000000E+00  0.74505805969E-08  0.10566000000E+00  0.10566000000E+00 0.  1.
     999900   -1    0    0    0    0 -0.00000000000E+00 -0.00000000000E+00 -0.74505805969E-08  0.93827000000E+00  0.93827000000E+00 0.  1.
     999902    2    1    2    0    0 -0.13957060846E-01  0.50125100795E-02  0.18498906092E-01  0.10202206278E+01  0.10199450941E+01 0.  0.
     999903    2    3    3    0    0 -0.48495715386E-01  0.81805262345E-02 -0.11760172699E+00  0.12908296315E+00  0.20334447713E-01 0.  0.
         14    1    1    2    0    0  0.13957060846E-01 -0.50125100795E-02 -0.18498906092E-01  0.23709372226E-01  0.00000000000E+00 0. -1.
     999901    1    3    3    0    0  0.34538654540E-01 -0.31680161549E-02  0.13610063308E+00  0.89113766462E+00  0.88000000000E+00 0. -1.
        -11    1    4    4    0    0 -0.45636999283E-01  0.50274633079E-02 -0.88845327320E-01  0.10000882160E+00  0.51100000000E-03 0.  1.
         11    1    4    4    0    0 -0.28587161030E-02  0.31530629266E-02 -0.28756399673E-01  0.29074141547E-01  0.51100000000E-03 0. -1.
</event>
<event>
 8    1  0.1063984E+005  0.1043930E+01  0.7957747E-01            NaN
         13   -1    0    0    0    0  0.00000000000E+00  0.00000000000E+00  0.74505805969E-08  0.10566000000E+00  0.10566000000E+00 0.  1.
     999900   -1    0    0    0    0 -0.00000000000E+00 -0.00000000000E+00 -0.74505805969E-08  0.93827000000E+00  0.93827000000E+00 0. -1.
     999902    2    1    2    0    0  0.28686541601E-03  0.32554820556E-02 -0.20387462456E-01  0.10232822621E+01  0.10230739264E+01 0.  0.
     999903    2    3    3    0    0 -0.39178533742E-02  0.10048287844E+00  0.82620743721E-01  0.13194532423E+00  0.21707668167E-01 0.  0.
         14    1    1    2    0    0 -0.28686541601E-03 -0.32554820556E-02  0.20387462456E-01  0.20647737904E-01  0.00000000000E+00 0.  1.
     999901    1    3    3    0    0  0.42047187902E-02 -0.97227396388E-01 -0.10300820618E+00  0.89133693787E+00  0.88000000000E+00 0. -1.
        -11    1    4    4    0    0 -0.92587678146E-02  0.73238570219E-01  0.50279508513E-01  0.89319107959E-01  0.51100000000E-03 0.  1.
         11    1    4    4    0    0  0.53409144404E-02  0.27244308224E-01  0.32341235207E-01  0.42626216269E-01  0.51100000000E-03 0. -1.
</event>
<event>
 8    1  0.1063984E+005  0.1043930E+01  0.7957747E-01            NaN
         13   -1    0    0    0    0  0.00000000000E+00  0.00000000000E+00  0.74505805969E-08  0.10566000000E+00  0.10566000000E+00 0. -1.
     999900   -1    0    0    0    0 -0.00000000000E+00 -0.00000000000E+00 -0.74505805969E-08  0.93827000000E+00  0.93827000000E+00 0.  1.
     999902    2    1    2    0    0 -0.51013019617E-02  0.80399987422E-02  0.20397951600E-01  0.10214190851E+01  0.10211709975E+01 0.  0.
     999903    2    3    3    0    0  0.10032509643E+00  0.26315773066E-01 -0.75674888281E-01  0.12974721719E+00  0.18708467767E-01 0.  0.
         14    1    1    2    0    0  0.51013019617E-02 -0.80399987422E-02 -0.20397951600E-01  0.22510914929E-01  0.00000000000E+00 0.  1.
     999901    1    3    3    0    0 -0.10542639839E+00 -0.18275774324E-01  0.96072839881E-01  0.89167186788E+00  0.88000000000E+00 0.  1.
        -11    1    4    4    0    0  0.39012340899E-01  0.19333429519E-01 -0.34598825354E-01  0.55615502122E-01  0.51100000000E-03 0. -1.
         11    1    4    4    0    0  0.61312755533E-01  0.69823435472E-02 -0.41076062927E-01  0.74131715069E-01  0.51100000000E-03 0.  1.
</event>
<event>
 8    1  0.1063984E+005  0.1043930E+01  0.7957747E-01            NaN
         13   -1    0    0    0    0  0.00000000000E+00  0.00000000000E+00  0.74505805969E-08  0.10566000000E+00  0.10566000000E+00 0.  1.
     999900   -1    0    0    0    0 -0.00000000000E+00 -0.00000000000E+00 -0.74505805969E-08  0.93827000000E+00  0.93827000000E+00 0.  1.
     999902    2    1    2    0    0 -0.15236919676E-02 -0.23596703985E-01 -0.49103748314E-02  0.10197796820E+01  0.10194936793E+01 0.  0.
     999903    2    3    3    0    0 -0.15644213085E-01 -0.96924063292E-01 -0.86968464795E-01  0.13281304183E+00  0.20899156971E-01 0.  0.
         14    1    1    2    0    0  0.15236919676E-02  0.23596703985E-01  0.49103748314E-02  0.24150317951E-01  0.00000000000E+00 0.  1.
     999901    1    3    3    0    0  0.14120521117E-01  0.73327359307E-01  0.82058089964E-01  0.88696664022E+00  0.88000000000E+00 0. -1.
        -11    1    4    4    0    0  0.23713002824E-02 -0.34420465201E-01 -0.38440931405E-01  0.51656149857E-01  0.51100000000E-03 0.  1.
         11    1    4    4    0    0 -0.18015513367E-01 -0.62503598091E-01 -0.48527533390E-01  0.81156891969E-01  0.51100000000E-03 0. -1.
</event>
<event>
 8    1  0.1063984E+005  0.1043930E+01  0.7957747E-01            NaN
         13   -1    0    0    0    0  0.00000000000E+00  0.00000000000E+00  0.74505805969E-08  0.10566000000E+00  0.10566000000E+00 0. -1.
     999900   -1    0    0    0    0 -0.00000000000E+00 -0.00000000000E+00 -0.74505805969E-08  0.93827000000E+00  0.93827000000E+00 0. -1.
     999902    2    1    2    0    0  0.97402440428E-03 -0.15145152717E-01 -0.18477162254E-01  0.10200191259E+01  0.10197388329E+01 0.  0.
     999903    2    3    3    0    0  0.15891376141E-01  0.12593670084E+00 -0.37551032946E-02  0.12853533145E+00  0.19865602804E-01 0.  0.
         14    1    1    2    0    0 -0.97402440428E-03  0.15145152717E-01  0.18477162254E-01  0.23910874081E-01  0.00000000000E+00 0. -1.
     999901    1    3    3    0    0 -0.14917351737E-01 -0.14108185356E+00 -0.14722058959E-01  0.89148379447E+00  0.88000000000E+00 0. -1.
        -11    1    4    4    0    0  0.10496061200E-01  0.37711712921E-01  0.60068891434E-02  0.39606621042E-01  0.51100000000E-03 0. -1.
         11    1    4    4    0    0  0.53953149413E-02  0.88224987921E-01 -0.97619924381E-02  0.88928710405E-01  0.51100000000E-03 0.  1.
</event>
<event>
 8    1  0.1063984E+005  0.1043930E+01  0.7957747E-01            NaN
         13   -1    0    0    0    0  0.00000000000E+00  0.00000000000E+00  0.74505805969E-08  0.10566000000E+00  0.10566000000E+00 0.  1.
     999900   -1    0    0    0    0 -0.00000000000E+00 -0.00000000000E+00 -0.74505805969E-08  0.93827000000E+00  0.93827000000E+00 0.  1.
     999902    2    1    2    0    0  0.19817176404E-01  0.51058079687E-02  0.15853751572E-02  0.10234043290E+01  0.10231984741E+01 0.  0.
     999903    2    3    3    0    0 -0.67444400118E-02 -0.11710787357E+00 -0.60032080576E-01  0.13242822703E+00  0.13177370574E-01 0.  0.
         14    1    1    2    0    0 -0.19817176404E-01 -0.51058079687E-02 -0.15853751572E-02  0.20525671001E-01  0.00000000000E+00 0.  1.
     999901    1    3    3    0    0  0.26561616416E-01  0.12221368153E+00  0.61617455733E-01  0.89097610196E+00  0.88000000000E+00 0. -1.
        -11    1    4    4    0    0 -0.18098757820E-02 -0.28893957215E-01 -0.21365167041E-01  0.35984272920E-01  0.51100000000E-03 0.  1.
         11    1    4    4    0    0 -0.49345642298E-02 -0.88213916351E-01 -0.38666913535E-01  0.96443954115E-01  0.51100000000E-03 0. -1.
</event>
<event>
 8    1  0.1063984E+005  0.1043930E+01  0.7957747E-01            NaN
         13   -1    0    0    0    0  0.00000000000E+00  0.00000000000E+00  0.74505805969E-08  0.10566000000E+00  0.10566000000E+00 0.  1.
     999900   -1    0    0    0    0 -0.00000000000E+00 -0.00000000000E+00 -0.74505805969E-08  0.93827000000E+00  0.93827000000E+00 0. -1.
     999902    2    1    2    0    0  0.15168944201E-01 -0.16870889138E-01 -0.31107388909E-02  0.10210302082E+01  0.10207733762E+01 0.  0.
     999903    2    3    3    0    0 -0.75208690002E-01 -0.75657754962E-01  0.73496414055E-01  0.13114669433E+00  0.20427667931E-01 0.  0.
         14    1    1    2    0    0 -0.15168944201E-01  0.16870889138E-01  0.31107388909E-02  0.22899791810E-01  0.00000000000E+00 0. -1.
     999901    1    3    3    0    0  0.90377634203E-01  0.58786865824E-01 -0.76607152946E-01  0.88988351386E+00  0.88000000000E+00 0. -1.
        -11    1    4    4    0    0 -0.37442120874E-01 -0.30481005393E-01  0.22586280351E-01  0.53304833612E-01  0.51100000000E-03 0.  1.
         11    1    4    4    0    0 -0.37766569128E-01 -0.45176749569E-01  0.50910133704E-01  0.77841860718E-01  0.51100000000E-03 0. -1.
</event>
<event>
 8    1  0.1063984E+005  0.1043930E+01  0.7957747E-01            NaN
         13   -1    0    0    0    0  0.00000000000E+00  0.00000000000E+00  0.74505805969E-08  0.10566000000E+00  0.10566000000E+00 0.  1.
     999900   -1    0    0    0    0 -0.00000000000E+00 -0.00000000000E+00 -0.74505805969E-08  0.93827000000E+00  0.93827000000E+00 0. -1.
     999902    2    1    2    0    0  0.38344420063E-02  0.12209742998E-01  0.19256295406E-01  0.10208088910E+01  0.10205470132E+01 0.  0.
     999903    2    3    3    0    0 -0.63150520425E-01  0.46866239217E-02 -0.11033637333E+00  0.12876750051E+00  0.19924889864E-01 0.  0.
         14    1    1    2    0    0 -0.38344420063E-02 -0.12209742998E-01 -0.19256295406E-01  0.23121109021E-01  0.00000000000E+00 0. -1.
     999901    1    3    3    0    0  0.66984962432E-01  0.75231190760E-02  0.12959266873E+00  0.89204139046E+00  0.88000000000E+00 0.  1.
        -11    1    4    4    0    0 -0.30563735117E-01 -0.60840270675E-02 -0.42067788312E-01  0.52355679961E-01  0.51100000000E-03 0.  1.
         11    1    4    4    0    0 -0.32586785308E-01  0.10770650989E-01 -0.68268585015E-01  0.76411820554E-01  0.51100000000E-03 0. -1.
</event>
<event>
 8    1  0.1063984E+005  0.1043930E+01  0.7957747E-01            NaN
         13   -1    0    0    0    0  0.00000000000E+00  0.00000000000E+00  0.74505805969E-08  0.10566000000E+00  0.10566000000E+00 0.  1.
     999900   -1    0    0    0    0 -0.00000000000E+00 -0.00000000000E+00 -0.74505805969E-08  0.93827000000E+00  0.93827000000E+00 0.  1.
     999902    2    1    2    0    0  0.14505488934E-01 -0.86317657060E-02 -0.16652075504E-01  0.10202190699E+01  0.10199434996E+01 0.  0.
     999903    2    3    3    0    0 -0.26561144138E-01  0.69668966307E-01 -0.10609648986E+00  0.13127712788E+00  0.20444067620E-01 0.  0.
         14    1    1    2    0    0 -0.14505488934E-01  0.86317657060E-02  0.16652075504E-01  0.23710930117E-01  0.00000000000E+00 0.  1.
     999901    1    3    3    0    0  0.41066633072E-01 -0.78300732013E-01  0.89444414355E-01  0.88894194200E+00  0.88000000000E+00 0.  1.
        -11    1    4    4    0    0  0.26400970637E-02  0.50717449216E-02 -0.13410515348E-01  0.14587520418E-01  0.51100000000E-03 0.  1.
         11    1    4    4    0    0 -0.29201241202E-01  0.64597221385E-01 -0.92685974511E-01  0.11668960747E+00  0.51100000000E-03 0. -1.
</event>
<event>
 8    1  0.1063984E+005  0.1043930E+01  0.7957747E-01            NaN
         13   -1    0    0    0    0  0.00000000000E+00  0.00000000000E+00  0.74505805969E-08  0.10566000000E+00  0.10566000000E+00 0. -1.
     999900   -1    0    0    0    0 -0.00000000000E+00 -0.00000000000E+00 -0.74505805969E-08  0.93827000000E+00  0.93827000000E+00 0.  1.
     999902    2    1    2    0    0 -0.14239156703E-01  0.94875612923E-02 -0.18705617659E-01  0.10185791118E+01  0.10182635903E+01 0.  0.
     999903    2    3    3    0    0 -0.23375388601E-01 -0.52353603718E-01 -0.11609782347E+00  0.13100204908E+00  0.19887776009E-01 0.  0.
         14    1    1    2    0    0  0.14239156703E-01 -0.94875612923E-02  0.18705617659E-01  0.25350888247E-01  0.00000000000E+00 0. -1.
     999901    1    3    3    0    0  0.91362318978E-02  0.61841165010E-01  0.97392205813E-01  0.88757706267E+00  0.88000000000E+00 0. -1.
        -11    1    4    4    0    0  0.27910091809E-02 -0.28331117360E-02 -0.38653754984E-02  0.55694257424E-02  0.51100000000E-03 0. -1.
         11    1    4    4    0    0 -0.26166397782E-01 -0.49520491982E-01 -0.11223244797E+00  0.12543262334E+00  0.51100000000E-03 0.  1.
</event>
<event>
 8    1  0.1063984E+005  0.1043930E+01  0.7957747E-01            NaN
         13   -1    0    0    0    0  0.00000000000E+00  0.00000000000E+00  0.74505805969E-08  0.10566000000E+00  0.10566000000E+00 0.  1.
     999900   -1    0    0    0    0 -0.00000000000E+00 -0.00000000000E+00 -0.74505805969E-08  0.93827000000E+00  0.93827000000E+00 0. -1.
     999902    2    1    2    0    0  0.23006417360E-01  0.48990163053E-02 -0.13583198205E-02  0.10203685774E+01  0.10200965117E+01 0.  0.
     999903    2    3    3    0    0 -0.32189107097E-01  0.52654867812E-02  0.12342365404E+00  0.12985343370E+00  0.23762405184E-01 0.  0.
         14    1    1    2    0    0 -0.23006417360E-01 -0.48990163053E-02  0.13583198205E-02  0.23561422564E-01  0.00000000000E+00 0.  1.
     999901    1    3    3    0    0  0.55195524457E-01 -0.36647047585E-03 -0.12478197386E+00  0.89051514374E+00  0.88000000000E+00 0. -1.
        -11    1    4    4    0    0 -0.25554047852E-01  0.58640733141E-02  0.53192284764E-01  0.59304949177E-01  0.51100000000E-03 0. -1.
         11    1    4    4    0    0 -0.66350592452E-02 -0.59858653290E-03  0.70231369278E-01  0.70548484524E-01  0.51100000000E-03 0.  1.
</event>
<event>
 8    1  0.1063984E+005  0.1043930E+01  0.7957747E-01            NaN
         13   -1    0    0    0    0  0.00000000000E+00  0.00000000000E+00  0.74505805969E-08  0.10566000000E+00  0.10566000000E+00 0.  1.
     999900   -1    0    0    0    0 -0.00000000000E+00 -0.00000000000E+00 -0.74505805969E-08  0.93827000000E+00  0.93827000000E+00 0.  1.
     999902    2    1    2    0    0  0.28242767361E-02 -0.23649617745E-01  0.54923047585E-02  0.10194872839E+01  0.10191942286E+01 0.  0.
     999903    2    3    3    0    0  0.13007878544E-01 -0.45710078380E-01 -0.11963480390E+00  0.13030385908E+00  0.20198841949E-01 0.  0.
         14    1    1    2    0    0 -0.28242767361E-02  0.23649617745E-01 -0.54923047585E-02  0.24442716095E-01  0.00000000000E+00 0. -1.
     999901    1    3    3    0    0 -0.10183601808E-01  0.22060460636E-01  0.12512710866E+00  0.88918342483E+00  0.88000000000E+00 0. -1.
        -11    1    4    4    0    0  0.91538340015E-02 -0.23045941167E-01 -0.86398858373E-01  0.89888441584E-01  0.51100000000E-03 0. -1.
         11    1    4    4    0    0  0.38540445428E-02 -0.22664137214E-01 -0.33235945527E-01  0.40415417492E-01  0.51100000000E-03 0.  1.
</event>
<event>
 8    1  0.1063984E+005  0.1043930E+01  0.7957747E-01            NaN
         13   -1    0    0    0    0  0.00000000000E+00  0.00000000000E+00  0.74505805969E-08  0.10566000000E+00  0.10566000000E+00 0.  1.
     999900   -1    0    0    0    0 -0.00000000000E+00 -0.00000000000E+00 -0.74505805969E-08  0.93827000000E+00  0.93827000000E+00 0. -1.
     999902    2    1    2    0    0 -0.89650130106E-02 -0.13142379909E-02 -0.21692099743E-01  0.10204215787E+01  0.10201507499E+01 0.  0.
     999903    2    3    3    0    0 -0.26383436886E-02 -0.12863754572E+00  0.97457422733E-02  0.13068027399E+00  0.20682734153E-01 0.  0.
         14    1    1    2    0    0  0.89650130106E-02  0.13142379909E-02  0.21692099743E-01  0.23508421279E-01  0.00000000000E+00 0. -1.
     999901    1    3    3    0    0 -0.63266693221E-02  0.12732330773E+00 -0.31437842016E-01  0.88974130473E+00  0.88000000000E+00 0. -1.
        -11    1    4    4    0    0 -0.71925422880E-02 -0.12206430479E+00  0.85147715413E-02  0.12257320108E+00  0.51100000000E-03 0. -1.
         11    1    4    4    0    0  0.45541985994E-02 -0.65732409284E-02  0.12309707320E-02  0.81070729076E-02  0.51100000000E-03 0.  1.
</event>
<event>
 8    1  0.1063984E+005  0.1043930E+01  0.7957747E-01            NaN
         13   -1    0    0    0    0  0.00000000000E+00  0.00000000000E+00  0.74505805969E-08  0.10566000000E+00  0.10566000000E+00 0.  1.
     999900   -1    0    0    0    0 -0.00000000000E+00 -0.00000000000E+00 -0.74505805969E-08  0.93827000000E+00  0.93827000000E+00 0. -1.
     999902    2    1    2    0    0  0.21348486979E-01 -0.68741237943E-02 -0.69455094916E-02  0.10204512527E+01  0.10201811150E+01 0.  0.
     999903    2    3    3    0    0  0.11018930743E+00 -0.94360003554E-02  0.70463501491E-01  0.13259348840E+00  0.19626679497E-01 0.  0.
         14    1    1    2    0    0 -0.21348486979E-01  0.68741237943E-02  0.69455094916E-02  0.23478747333E-01  0.00000000000E+00 0. -1.
     999901    1    3    3    0    0 -0.88840820453E-01  0.25618765611E-02 -0.77409010983E-01  0.88785776427E+00  0.88000000000E+00 0. -1.
        -11    1    4    4    0    0  0.61629598660E-01 -0.11197642580E-01  0.30472011553E-01  0.69659164791E-01  0.51100000000E-03 0. -1.
         11    1    4    4    0    0  0.48559708772E-01  0.17616422241E-02  0.39991489939E-01  0.62934323607E-01  0.51100000000E-03 0.  1.
</event>
<event>
 8    1  0.1063984E+005  0.1043930E+01  0.7957747E-01            NaN
         13   -1    0    0    0    0  0.00000000000E+00  0.00000000000E+00  0.74505805969E-08  0.10566000000E+00  0.10566000000E+00 0.  1.
     999900   -1    0    0    0    0 -0.00000000000E+00 -0.00000000000E+00 -0.74505805969E-08  0.93827000000E+00  0.93827000000E+00 0. -1.
     999902    2    1    2    0    0  0.82016862685E-02 -0.20279562453E-01  0.92547717206E-02  0.10201775452E+01  0.10199009974E+01 0.  0.
     999903    2    3    3    0    0 -0.60061354826E-01  0.81733034592E-01 -0.75189819757E-01  0.12765454728E+00  0.18828679140E-01 0.  0.
         14    1    1    2    0    0 -0.82016862685E-02  0.20279562453E-01 -0.92547717206E-02  0.23752454831E-01  0.00000000000E+00 0. -1.
     999901    1    3    3    0    0  0.68263041095E-01 -0.10201259704E+00  0.84444591478E-01  0.89252299789E+00  0.88000000000E+00 0.  1.
        -11    1    4    4    0    0 -0.42000460029E-01  0.46984248344E-01 -0.37698201865E-01  0.73436869351E-01  0.51100000000E-03 0. -1.
         11    1    4    4    0    0 -0.18060894797E-01  0.34748786248E-01 -0.37491617892E-01  0.54217677926E-01  0.51100000000E-03 0.  1.
</event>
<event>
 8    1  0.1063984E+005  0.1043930E+01  0.7957747E-01            NaN
         13   -1    0    0    0    0  0.00000000000E+00  0.00000000000E+00  0.74505805969E-08  0.10566000000E+00  0.10566000000E+00 0.  1.
     999900   -1    0    0    0    0 -0.00000000000E+00 -0.00000000000E+00 -0.74505805969E-08  0.93827000000E+00  0.93827000000E+00 0. -1.
     999902    2    1    2    0    0 -0.17930164544E-01 -0.14044840737E-02 -0.15596820777E-01  0.10201240303E+01  0.10198462202E+01 0.  0.
     999903    2    3    3    0    0 -0.14497794804E-01  0.99272447979E-01  0.79062339287E-01  0.12933338013E+00  0.20274731560E-01 0.  0.
         14    1    1    2    0    0  0.17930164544E-01  0.14044840737E-02  0.15596820777E-01  0.23805969723E-01  0.00000000000E+00 0.  1.
     999901    1    3    3    0    0 -0.34323697396E-02 -0.10067693205E+00 -0.94659160064E-01  0.89079065015E+00  0.88000000000E+00 0. -1.
        -11    1    4    4    0    0 -0.93880093709E-02  0.18862515899E-01  0.10548646474E-01  0.23568289913E-01  0.51100000000E-03 0. -1.
         11    1    4    4    0    0 -0.51097854335E-02  0.80409932080E-01  0.68513692813E-01  0.10576509021E+00  0.51100000000E-03 0.  1.
</event>
<event>
 8    1  0.1063984E+005  0.1043930E+01  0.7957747E-01            NaN
         13   -1    0    0    0    0  0.00000000000E+00  0.00000000000E+00  0.74505805969E-08  0.10566000000E+00  0.10566000000E+00 0.  1.
     999900   -1    0    0    0    0 -0.00000000000E+00 -0.00000000000E+00 -0.74505805969E-08  0.93827000000E+00  0.93827000000E+00 0. -1.
     999902    2    1    2    0    0  0.96353203979E-02  0.26381989332E-01  0.21178079995E-02  0.10157638169E+01  0.10153732308E+01 0.  0.
     999903    2    3    3    0    0 -0.19711153820E-01  0.34925399478E-02 -0.12289370289E+00  0.12614984426E+00  0.20253236188E-01 0.  0.
         14    1    1    2    0    0 -0.96353203979E-02 -0.26381989332E-01 -0.21178079995E-02  0.28166183110E-01  0.00000000000E+00 0. -1.
     999901    1    3    3    0    0  0.29346474218E-01  0.22889449384E-01  0.12501151089E+00  0.88961397263E+00  0.88000000000E+00 0.  1.
        -11    1    4    4    0    0 -0.15427815250E-01  0.11542276677E-01 -0.79160060633E-01  0.81472805001E-01  0.51100000000E-03 0. -1.
         11    1    4    4    0    0 -0.42833385701E-02 -0.80497367295E-02 -0.43733642260E-01  0.44677039260E-01  0.51100000000E-03 0.  1.
</event>
<event>
 8    1  0.1063984E+005  0.1043930E+01  0.7957747E-01            NaN
         13   -1    0    0    0    0  0.00000000000E+00  0.00000000000E+00  0.74505805969E-08  0.10566000000E+00  0.10566000000E+00 0. -1.
     999900   -1    0    0    0    0 -0.00000000000E+00 -0.00000000000E+00 -0.74505805969E-08  0.93827000000E+00  0.93827000000E+00 0.  1.
     999902    2    1    2    0    0 -0.11002530898E-01 -0.20637922145E-01  0.28512401284E-03  0.10205406688E+01  0.10202726086E+01 0.  0.
     999903    2    3    3    0    0  0.73513544890E-01  0.80246741538E-01 -0.64996084907E-01  0.12836225693E+00  0.20213785918E-01 0.  0.
         14    1    1    2    0    0  0.11002530898E-01  0.20637922145E-01 -0.28512401284E-03  0.23389331164E-01  0.00000000000E+00 0.  1.
     999901    1    3    3    0    0 -0.84516075787E-01 -0.10088466368E+00  0.65281208920E-01  0.89217841191E+00  0.88000000000E+00 0. -1.
        -11    1    4    4    0    0  0.42358400165E-01  0.51527960267E-01 -0.50175945558E-01  0.83470062822E-01  0.51100000000E-03 0.  1.
         11    1    4    4    0    0  0.31155144725E-01  0.28718781271E-01 -0.14820139349E-01  0.44892194108E-01  0.51100000000E-03 0. -1.
</event>
<event>
 8    1  0.1063984E+005  0.1043930E+01  0.7957747E-01            NaN
         13   -1    0    0    0    0  0.00000000000E+00  0.00000000000E+00  0.74505805969E-08  0.10566000000E+00  0.10566000000E+00 0.  1.
     999900   -1    0    0    0    0 -0.00000000000E+00 -0.00000000000E+00 -0.74505805969E-08  0.93827000000E+00  0.93827000000E+00 0.  1.
     999902    2    1    2    0    0  0.12121109975E-01 -0.92599030256E-03 -0.18312436414E-01  0.10219499160E+01  0.10217135150E+01 0.  0.
     999903    2    3    3    0    0 -0.64605693288E-01  0.11126138127E+00  0.13625204177E-01  0.13094316992E+00  0.20186059338E-01 0.  0.
         14    1    1    2    0    0 -0.12121109975E-01  0.92599030256E-03  0.18312436414E-01  0.21980083996E-01  0.00000000000E+00 0.  1.
     999901    1    3    3    0    0  0.76726803262E-01 -0.11218737158E+00 -0.31937640591E-01  0.89100674608E+00  0.88000000000E+00 0.  1.
        -11    1    4    4    0    0 -0.75735397267E-03  0.12811949078E-01  0.31193808163E-03  0.12848270334E-01  0.51100000000E-03 0.  1.
         11    1    4    4    0    0 -0.63848339315E-01  0.98449432196E-01  0.13313266095E-01  0.11809489959E+00  0.51100000000E-03 0. -1.
</event>
<event>
 8    1  0.1063984E+005  0.1043930E+01  0.7957747E-01            NaN
         13   -1    0    0    0    0  0.00000000000E+00  0.00000000000E+00  0.74505805969E-08  0.10566000000E+00  0.10566000000E+00 0. -1.
     999900   -1    0    0    0    0 -0.00000000000E+00 -0.00000000000E+00 -0.74505805969E-08  0.93827000000E+00  0.93827000000E+00 0. -1.
     999902    2    1    2    0    0 -0.40128717258E-02 -0.22879106415E-01  0.29367979936E-02  0.10205167253E+01  0.10202481096E+01 0.  0.
     999903    2    3    3    0    0  0.42399041104E-01 -0.12384534200E+00 -0.15352437928E-01  0.13333988693E+00  0.20210904859E-01 0.  0.
         14    1    1    2    0    0  0.40128717258E-02  0.22879106415E-01 -0.29367979936E-02  0.23413274703E-01  0.00000000000E+00 0. -1.
     999901    1    3    3    0    0 -0.46411912830E-01  0.10096623558E+00  0.18289235922E-01  0.88717683836E+00  0.88000000000E+00 0.  1.
        -11    1    4    4    0    0  0.18948276008E-01 -0.34240471218E-01 -0.10818778458E-01  0.40604853419E-01  0.51100000000E-03 0.  1.
         11    1    4    4    0    0  0.23450765096E-01 -0.89604870782E-01 -0.45336594697E-02  0.92735033513E-01  0.51100000000E-03 0. -1.
</event>
<event>
 8    1  0.1063984E+005  0.1043930E+01  0.7957747E-01            NaN
         13   -1    0    0    0    0  0.00000000000E+00  0.00000000000E+00  0.74505805969E-08  0.10566000000E+00  0.10566000000E+00 0. -1.
     999900   -1    0    0    0    0 -0.00000000000E+00 -0.00000000000E+00 -0.74505805969E-08  0.93827000000E+00  0.93827000000E+00 0.  1.
     999902    2    1    2    0    0 -0.10915625116E-01 -0.15014162286E-01  0.12933746254E-01  0.10213057269E+01  0.10210551063E+01 0.  0.
     999903    2    3    3    0    0  0.84948320288E-02 -0.10681378190E+00  0.78030555255E-01  0.13392670386E+00  0.19137614200E-01 0.  0.
         14    1    1    2    0    0  0.10915625116E-01  0.15014162286E-01 -0.12933746254E-01  0.22624273093E-01  0.00000000000E+00 0. -1.
     999901    1    3    3    0    0 -0.19410457145E-01  0.91799619614E-01 -0.65096809001E-01  0.88737902305E+00  0.88000000000E+00 0.  1.
        -11    1    4    4    0    0  0.12509396987E-01 -0.63815019283E-01  0.39772282426E-01  0.76229503931E-01  0.51100000000E-03 0.  1.
         11    1    4    4    0    0 -0.40145649581E-02 -0.42998762617E-01  0.38258272829E-01  0.57697199926E-01  0.51100000000E-03 0. -1.
</event>
<event>
 8    1  0.1063984E+005  0.1043930E+01  0.7957747E-01            NaN
         13   -1    0    0    0    0  0.00000000000E+00  0.00000000000E+00  0.74505805969E-08  0.10566000000E+00  0.10566000000E+00 0.  1.
     999900   -1    0    0    0    0 -0.00000000000E+00 -0.00000000000E+00 -0.74505805969E-08  0.93827000000E+00  0.93827000000E+00 0. -1.
     999902    2    1    2    0    0 -0.17848627079E-01 -0.11151216345E-01 -0.92293229765E-02  0.10209494970E+01  0.10206908307E+01 0.  0.
     999903    2    3    3    0    0  0.82157182182E-03  0.11491623665E+00 -0.58863982476E-01  0.13038496906E+00  0.18134367864E-01 0.  0.
         14    1    1    2    0    0  0.17848627079E-01  0.11151216345E-01  0.92293229765E-02  0.22980502979E-01  0.00000000000E+00 0.  1.
     999901    1    3    3    0    0 -0.18670198901E-01 -0.12606745300E+00  0.49634659499E-01  0.89056452796E+00  0.88000000000E+00 0. -1.
        -11    1    4    4    0    0 -0.70536305513E-02  0.32667903863E-01 -0.21188009073E-01  0.39574467732E-01  0.51100000000E-03 0. -1.
         11    1    4    4    0    0  0.78752023732E-02  0.82248332791E-01 -0.37675973403E-01  0.90810501332E-01  0.51100000000E-03 0.  1.
</event>
<event>
 8    1  0.1063984E+005  0.1043930E+01  0.7957747E-01            NaN
         13   -1    0    0    0    0  0.00000000000E+00  0.00000000000E+00  0.74505805969E-08  0.10566000000E+00  0.10566000000E+00 0.  1.
     999900   -1    0    0    0    0 -0.00000000000E+00 -0.00000000000E+00 -0.74505805969E-08  0.93827000000E+00  0.93827000000E+00 0.  1.
     999902    2    1    2    0    0  0.11507105582E-01 -0.89658905343E-02 -0.18953886106E-01  0.10200124234E+01  0.10197319714E+01 0.  0.
     999903    2    3    3    0    0  0.70887919841E-01 -0.10779444596E+00  0.18272459425E-01  0.13171125529E+00  0.19215416646E-01 0.  0.
         14    1    1    2    0    0 -0.11507105582E-01  0.89658905343E-02  0.18953886106E-01  0.23917576601E-01  0.00000000000E+00 0.  1.
     999901    1    3    3    0    0 -0.59380814259E-01  0.98828555423E-01 -0.37226345531E-01  0.88830116811E+00  0.88000000000E+00 0.  1.
        -11    1    4    4    0    0  0.55068041430E-01 -0.67418272440E-01  0.13234115494E-01  0.88051777833E-01  0.51100000000E-03 0. -1.
         11    1    4    4    0    0  0.15819878411E-01 -0.40376173518E-01  0.50383439314E-02  0.43659477453E-01  0.51100000000E-03 0.  1.
</event>
<event>
 8    1  0.1063984E+005  0.1043930E+01  0.7957747E-01            NaN
         13   -1    0    0    0    0  0.00000000000E+00  0.00000000000E+00  0.74505805969E-08  0.10566000000E+00  0.10566000000E+00 0. -1.
     999900   -1    0    0    0    0 -0.00000000000E+00 -0.00000000000E+00 -0.74505805969E-08  0.93827000000E+00  0.93827000000E+00 0. -1.
     999902    2    1    2    0    0  0.18267152242E-01 -0.24058793440E-02  0.12927202712E-01  0.10214224529E+01  0.10211744403E+01 0.  0.
     999903    2    3    3    0    0  0.49238592515E-02 -0.94471719919E-01  0.91374261716E-01  0.13304859943E+00  0.20087903103E-01 0.  0.
         14    1    1    2    0    0 -0.18267152242E-01  0.24058793440E-02 -0.12927202712E-01  0.22507547099E-01  0.00000000000E+00 0.  1.
     999901    1    3    3    0    0  0.13343292991E-01  0.92065840575E-01 -0.78447059003E-01  0.88837385347E+00  0.88000000000E+00 0. -1.
        -11    1    4    4    0    0  0.98265777506E-02 -0.57538030602E-01  0.45898617338E-01  0.74257193526E-01  0.51100000000E-03 0. -1.
         11    1    4    4    0    0 -0.49027184990E-02 -0.36933689317E-01  0.45475644378E-01  0.58791405901E-01  0.51100000000E-03 0.  1.
</event>
<event>
 8    1  0.1063984E+005  0.1043930E+01  0.7957747E-01            NaN
         13   -1    0    0    0    0  0.00000000000E+00  0.00000000000E+00  0.74505805969E-08  0.10566000000E+00  0.10566000000E+00 0. -1.
     999900   -1    0    0    0    0 -0.00000000000E+00 -0.00000000000E+00 -0.74505805969E-08  0.93827000000E+00  0.93827000000E+00 0. -1.
     999902    2    1    2    0    0  0.15591607478E-01 -0.18216088299E-01 -0.12033291782E-02  0.10199222492E+01  0.10196396532E+01 0.  0.
     999903    2    3    3    0    0  0.11636065163E-01  0.68423309150E-01 -0.10750818863E+00  0.12929171153E+00  0.18471296725E-01 0.  0.
         14    1    1    2    0    0 -0.15591607478E-01  0.18216088299E-01  0.12033291782E-02  0.24007750785E-01  0.00000000000E+00 0.  1.
     999901    1    3    3    0    0  0.39555423152E-02 -0.86639397449E-01  0.10630485945E+00  0.89063053768E+00  0.88000000000E+00 0.  1.
        -11    1    4    4    0    0  0.14678540684E-01  0.57276545062E-01 -0.97338230857E-01  0.11389053726E+00  0.51100000000E-03 0. -1.
         11    1    4    4    0    0 -0.30424755213E-02  0.11146764088E-01 -0.10169957768E-01  0.15401174271E-01  0.51100000000E-03 0.  1.
</event>
<event>
 8    1  0.1063984E+005  0.1043930E+01  0.7957747E-01            NaN
         13   -1    0    0    0    0  0.00000000000E+00  0.00000000000E+00  0.74505805969E-08  0.10566000000E+00  0.10566000000E+00 0.  1.
     999900   -1    0    0    0    0 -0.00000000000E+00 -0.00000000000E+00 -0.74505805969E-08  0.93827000000E+00  0.93827000000E+00 0.  1.
     999902    2    1    2    0    0  0.21050256848E-01 -0.70988153432E-02 -0.76809714713E-02  0.10204246003E+01  0.10201538419E+01 0.  0.
     999903    2    3    3    0    0  0.71813873889E-02 -0.14794130822E-01 -0.12946014061E+00  0.13189675635E+00  0.19141256420E-01 0.  0.
         14    1    1    2    0    0 -0.21050256848E-01  0.70988153432E-02  0.76809714713E-02  0.23505399707E-01  0.00000000000E+00 0.  1.
     999901    1    3    3    0    0  0.13868869459E-01  0.76953154785E-02  0.12177916914E+00  0.88852784394E+00  0.88000000000E+00 0. -1.
        -11    1    4    4    0    0  0.81933503892E-02 -0.18976488689E-01 -0.99563136130E-01  0.10168735079E+00  0.51100000000E-03 0.  1.
         11    1    4    4    0    0 -0.10119630004E-02  0.41823578673E-02 -0.29897004482E-01  0.30209405563E-01  0.51100000000E-03 0. -1.
</event>
<event>
 8    1  0.1063984E+005  0.1043930E+01  0.7957747E-01            NaN
         13   -1    0    0    0    0  0.00000000000E+00  0.00000000000E+00  0.74505805969E-08  0.10566000000E+00  0.10566000000E+00 0.  1.
     999900   -1    0    0    0    0 -0.00000000000E+00 -0.00000000000E+00 -0.74505805969E-08  0.93827000000E+00  0.93827000000E+00 0. -1.
     999902    2    1    2    0    0  0.14446606169E-01 -0.14532808775E-01 -0.12423077172E-01  0.10199666987E+01  0.10196851606E+01 0.  0.
     999903    2    3    3    0    0  0.74760147914E-01  0.85807699591E-01  0.58142995969E-01  0.12941321264E+00  0.20374753975E-01 0.  0.
         14    1    1    2    0    0 -0.14446606169E-01  0.14532808775E-01  0.12423077172E-01  0.23963301257E-01  0.00000000000E+00 0.  1.
     999901    1    3    3    0    0 -0.60313541745E-01 -0.10034050837E+00 -0.70566073141E-01  0.89055348611E+00  0.88000000000E+00 0. -1.
        -11    1    4    4    0    0  0.35180773766E-01  0.36235586631E-01  0.14968487249E-01  0.52678471056E-01  0.51100000000E-03 0.  1.
         11    1    4    4    0    0  0.39579374148E-01  0.49572112960E-01  0.43174508721E-01  0.76734741581E-01  0.51100000000E-03 0. -1.
</event>
<event>
 8    1  0.1063984E+005  0.1043930E+01  0.7957747E-01            NaN
         13   -1    0    0    0    0  0.00000000000E+00  0.00000000000E+00  0.74505805969E-08  0.10566000000E+00  0.10566000000E+00 0. -1.
     999900   -1    0    0    0    0 -0.00000000000E+00 -0.00000000000E+00 -0.74505805969E-08  0.93827000000E+00  0.93827000000E+00 0.  1.
     999902    2    1    2    0    0 -0.13268907881E-02 -0.23258184750E-01  0.40338647081E-02  0.10202873296E+01  0.10200133623E+01 0.  0.
     999903    2    3    3    0    0 -0.53956036633E-01 -0.44850603019E-01  0.11011942062E+00  0.13209241596E+00  0.19982218990E-01 0.  0.
         14    1    1    2    0    0  0.13268907881E-02  0.23258184750E-01 -0.40338647081E-02  0.23642670355E-01  0.00000000000E+00 0. -1.
     999901    1    3    3    0    0  0.52629145845E-01  0.21592418269E-01 -0.10608555592E+00  0.88819491368E+00  0.88000000000E+00 0.  1.
        -11    1    4    4    0    0 -0.15117841575E-01 -0.22346711054E-02  0.22765399177E-01  0.27423847461E-01  0.51100000000E-03 0.  1.
         11    1    4    4    0    0 -0.38838195058E-01 -0.42615931913E-01  0.87354021447E-01  0.10466856850E+00  0.51100000000E-03 0. -1.
</event>
<event>
 8    1  0.1063984E+005  0.1043930E+01  0.7957747E-01            NaN
         13   -1    0    0    0    0  0.00000000000E+00  0.00000000000E+00  0.74505805969E-08  0.10566000000E+00  0.10566000000E+00 0. -1.
     999900   -1    0    0    0    0 -0.00000000000E+00 -0.00000000000E+00 -0.74505805969E-08  0.93827000000E+00  0.93827000000E+00 0.  1.
     999902    2    1    2    0    0  0.10795238044E-01  0.14188441466E-01  0.75666064510E-02  0.10245624351E+01  0.10243793638E+01 0.  0.
     999903    2    3    3    0    0  0.12731623517E+00  0.39715401442E-01  0.20308045347E-01  0.13642330599E+00  0.20301843752E-01 0.  0.
         14    1    1    2    0    0 -0.10795238044E-01 -0.14188441466E-01 -0.75666064510E-02  0.19367564866E-01  0.00000000000E+00 0.  1.
     999901    1    3    3    0    0 -0.11652099713E+00 -0.25526959975E-01 -0.12741438896E-01  0.88813912915E+00  0.88000000000E+00 0.  1.
        -11    1    4    4    0    0  0.10702383724E+00  0.34746748768E-01  0.95769149837E-02  0.11293102634E+00  0.51100000000E-03 0.  1.
         11    1    4    4    0    0  0.20292397933E-01  0.49686526739E-02  0.10731130363E-01  0.23492279649E-01  0.51100000000E-03 0. -1.
</event>
<event>
 8    1  0.1063984E+005  0.1043930E+01  0.7957747E-01            NaN
         13   -1    0    0    0    0  0.00000000000E+00  0.00000000000E+00  0.74505805969E-08  0.10566000000E+00  0.10566000000E+00 0.  1.
     999900   -1    0    0    0    0 -0.00000000000E+00 -0.00000000000E+00 -0.74505805969E-08  0.93827000000E+00  0.93827000000E+00 0.  1.
     999902    2    1    2    0    0  0.18960495260E-01  0.11287804317E-01 -0.61054012406E-02  0.10210347858E+01  0.10207780577E+01 0.  0.
     999903    2    3    3    0    0  0.36936838518E-01  0.84543446354E-01 -0.94300365848E-01  0.13341556017E+00  0.19880350491E-01 0.  0.
         14    1    1    2    0    0 -0.18960495260E-01 -0.11287804317E-01  0.61054012406E-02  0.22895214153E-01  0.00000000000E+00 0.  1.
     999901    1    3    3    0    0 -0.17976343258E-01 -0.73255642037E-01  0.88194964607E-01  0.88761922568E+00  0.88000000000E+00 0. -1.
        -11    1    4    4    0    0  0.27265464585E-01  0.54936754772E-01 -0.74526460031E-01  0.96518946066E-01  0.51100000000E-03 0. -1.
         11    1    4    4    0    0  0.96713739335E-02  0.29606691582E-01 -0.19773905817E-01  0.36896614105E-01  0.51100000000E-03 0.  1.
</event>
<event>
 8    1  0.1063984E+005  0.1043930E+01  0.7957747E-01            NaN
         13   -1    0    0    0    0  0.00000000000E+00  0.00000000000E+00  0.74505805969E-08  0.10566000000E+00  0.10566000000E+00 0.  1.
     999900   -1    0    0    0    0 -0.00000000000E+00 -0.00000000000E+00 -0.74505805969E-08  0.93827000000E+00  0.93827000000E+00 0.  1.
     999902    2    1    2    0    0  0.30293692698E-02  0.23020700092E-01  0.16883773987E-02  0.10206495290E+01  0.10203839869E+01 0.  0.
     999903    2    3    3    0    0 -0.73441449780E-01 -0.81940152671E-01  0.64057338179E-01  0.12893519469E+00  0.20325026182E-01 0.  0.
         14    1    1    2    0    0 -0.30293692698E-02 -0.23020700092E-01 -0.16883773987E-02  0.23280470982E-01  0.00000000000E+00 0.  1.
     999901    1    3    3    0    0  0.76470819049E-01  0.10496085276E+00 -0.62368960781E-01  0.89171433433E+00  0.88000000000E+00 0.  1.
        -11    1    4    4    0    0 -0.37722358217E-01 -0.31665296852E-01  0.20089392558E-01  0.53193158851E-01  0.51100000000E-03 0.  1.
         11    1    4    4    0    0 -0.35719091562E-01 -0.50274855819E-01  0.43967945622E-01  0.75742035838E-01  0.51100000000E-03 0. -1.
</event>
<event>
 8    1  0.1063984E+005  0.1043930E+01  0.7957747E-01            NaN
         13   -1    0    0    0    0  0.00000000000E+00  0.00000000000E+00  0.74505805969E-08  0.10566000000E+00  0.10566000000E+00 0.  1.
     999900   -1    0    0    0    0 -0.00000000000E+00 -0.00000000000E+00 -0.74505805969E-08  0.93827000000E+00  0.93827000000E+00 0. -1.
     999902    2    1    2    0    0  0.67354055946E-02  0.61604126914E-02  0.23777127900E-01  0.10184610349E+01  0.10181425300E+01 0.  0.
     999903    2    3    3    0    0 -0.10699109151E+00 -0.67807769441E-01  0.11137916064E-01  0.12797534842E+00  0.14444700476E-01 0.  0.
         14    1    1    2    0    0 -0.67354055946E-02 -0.61604126914E-02 -0.23777127900E-01  0.25468965119E-01  0.00000000000E+00 0. -1.
     999901    1    3    3    0    0  0.11372649710E+00  0.73968182132E-01  0.12639211835E-01  0.89048568646E+00  0.88000000000E+00 0. -1.
        -11    1    4    4    0    0 -0.66200634078E-01 -0.34075923541E-01  0.89868869854E-02  0.74998118484E-01  0.51100000000E-03 0.  1.
         11    1    4    4    0    0 -0.40790457428E-01 -0.33731845900E-01  0.21510290790E-02  0.52977229939E-01  0.51100000000E-03 0. -1.
</event>
<event>
 8    1  0.1063984E+005  0.1043930E+01  0.7957747E-01            NaN
         13   -1    0    0    0    0  0.00000000000E+00  0.00000000000E+00  0.74505805969E-08  0.10566000000E+00  0.10566000000E+00 0. -1.
     999900   -1    0    0    0    0 -0.00000000000E+00 -0.00000000000E+00 -0.74505805969E-08  0.93827000000E+00  0.93827000000E+00 0.  1.
     999902    2    1    2    0    0 -0.10933787422E-01 -0.16443656543E-01  0.14240210063E-01  0.10195840531E+01  0.10192933416E+01 0.  0.
     999903    2    3    3    0    0  0.43256395711E-01 -0.41230843322E-02 -0.11869344128E+00  0.12786676152E+00  0.19330289808E-01 0.  0.
         14    1    1    2    0    0  0.10933787422E-01  0.16443656543E-01 -0.14240210063E-01  0.24345946902E-01  0.00000000000E+00 0.  1.
     999901    1    3    3    0    0 -0.54190183133E-01 -0.12320572211E-01  0.13293365134E+00  0.89171729158E+00  0.88000000000E+00 0. -1.
        -11    1    4    4    0    0  0.40984106438E-01 -0.90347096667E-02 -0.10153413572E+00  0.10986703235E+00  0.51100000000E-03 0.  1.
         11    1    4    4    0    0  0.22722892734E-02  0.49116253345E-02 -0.17159305556E-01  0.17999729168E-01  0.51100000000E-03 0. -1.
</event>
<event>
 8    1  0.1063984E+005  0.1043930E+01  0.7957747E-01            NaN
         13   -1    0    0    0    0  0.00000000000E+00  0.00000000000E+00  0.74505805969E-08  0.10566000000E+00  0.10566000000E+00 0.  1.
     999900   -1    0    0    0    0 -0.00000000000E+00 -0.00000000000E+00 -0.74505805969E-08  0.93827000000E+00  0.93827000000E+00 0. -1.
     999902    2    1    2    0    0 -0.18472017547E-01 -0.14248466641E-01 -0.49819165814E-02  0.10200751530E+01  0.10197961875E+01 0.  0.
     999903    2    3    3    0    0  0.42621903305E-01  0.10137249173E-01 -0.12082517090E+00  0.13004886692E+00  0.19864425538E-01 0.  0.
         14    1    1    2    0    0  0.18472017547E-01  0.14248466641E-01  0.49819165814E-02  0.23854847027E-01  0.00000000000E+00 0.  1.
     999901    1    3    3    0    0 -0.61093920852E-01 -0.24385715814E-01  0.11584325432E+00  0.89002628606E+00  0.88000000000E+00 0. -1.
        -11    1    4    4    0    0  0.37933524541E-01  0.11845361235E-02 -0.97207493763E-01  0.10435474773E+00  0.51100000000E-03 0.  1.
         11    1    4    4    0    0  0.46883787648E-02  0.89527130500E-02 -0.23617677133E-01  0.25694119183E-01  0.51100000000E-03 0. -1.
</event>
<event>
 8    1  0.1063984E+005  0.1043930E+01  0.7957747E-01            NaN
         13   -1    0    0    0    0  0.00000000000E+00  0.00000000000E+00  0.74505805969E-08  0.10566000000E+00  0.10566000000E+00 0. -1.
     999900   -1    0    0    0    0 -0.00000000000E+00 -0.00000000000E+00 -0.74505805969E-08  0.93827000000E+00  0.93827000000E+00 0.  1.
     999902    2    1    2    0    0 -0.65824317133E-02  0.26351674811E-02 -0.23496157588E-01  0.10193873446E+01  0.10190918586E+01 0.  0.
     999903    2    3    3    0    0 -0.10148473572E+00 -0.71670228451E-01  0.30085458792E-01  0.12955661414E+00  0.21071502241E-01 0.  0.
         14    1    1    2    0    0  0.65824317133E-02 -0.26351674811E-02  0.23496157588E-01  0.24542655446E-01  0.00000000000E+00 0. -1.
     999901    1    3    3    0    0  0.94902304009E-01  0.74305395932E-01 -0.53581616380E-01  0.88983073041E+00  0.88000000000E+00 0. -1.
        -11    1    4    4    0    0 -0.40217392096E-01 -0.18867790830E-01  0.41614059717E-02  0.44620741573E-01  0.51100000000E-03 0.  1.
         11    1    4    4    0    0 -0.61267343626E-01 -0.52802437620E-01  0.25924052821E-01  0.84935872570E-01  0.51100000000E-03 0. -1.
</event>
<event>
 7    1  0.1063984E+005  0.1043930E+01  0.7957747E-01            NaN
         13   -1    0    0    0    0  0.00000000000E+00  0.00000000000E+00  0.74505805969E-08  0.10566000000E+00  0.10566000000E+00 0.  1.
     999900   -1    0    0    0    0 -0.00000000000E+00 -0.00000000000E+00 -0.74505805969E-08  0.93827000000E+00  0.93827000000E+00 0. -1.
     999902    2    1    2    0    0 -0.63810579884E-04  0.12009456741E-01  0.16078470748E-01  0.10238614090E+01  0.10236647090E+01 0.  0.
         14    1    1    2    0    0  0.63810579884E-04 -0.12009456741E-01 -0.16078470748E-01  0.20068590997E-01  0.00000000000E+00 0. -1.
     999901    1    3    3    0    0  0.55758777090E-01  0.12691214383E+00  0.19646170946E-01  0.89106773340E+00  0.88000000000E+00 0.  1.
        -11    1    3    3    0    0 -0.17933154684E-01 -0.10786165538E-01  0.54457650326E-02  0.21629999578E-01  0.51100000000E-03 0. -1.
         11    1    3    3    0    0 -0.37889432986E-01 -0.10411652155E+00 -0.90134652304E-02  0.11116367603E+00  0.51100000000E-03 0.  1.
</event>
<event>
 8    1  0.1063984E+005  0.1043930E+01  0.7957747E-01            NaN
         13   -1    0    0    0    0  0.00000000000E+00  0.00000000000E+00  0.74505805969E-08  0.10566000000E+00  0.10566000000E+00 0.  1.
     999900   -1    0    0    0    0 -0.00000000000E+00 -0.00000000000E+00 -0.74505805969E-08  0.93827000000E+00  0.93827000000E+00 0. -1.
     999902    2    1    2    0    0 -0.13208747292E-01 -0.17145067092E-01 -0.97104531268E-02  0.10202083384E+01  0.10199325156E+01 0.  0.
     999903    2    3    3    0    0  0.50745166058E-01 -0.11257531386E+00  0.40307449652E-01  0.13133330462E+00  0.19377131743E-01 0.  0.
         14    1    1    2    0    0  0.13208747292E-01  0.17145067092E-01  0.97104531268E-02  0.23721661631E-01  0.00000000000E+00 0.  1.
     999901    1    3    3    0    0 -0.63953913350E-01  0.95430246770E-01 -0.50017902779E-01  0.88887503375E+00  0.88000000000E+00 0. -1.
        -11    1    4    4    0    0  0.44310506036E-01 -0.10708116330E+00  0.40753486203E-01  0.12284504156E+00  0.51100000000E-03 0.  1.
         11    1    4    4    0    0  0.64346600222E-02 -0.54941505640E-02 -0.44603655112E-03  0.84882630512E-02  0.51100000000E-03 0. -1.
</event>
<event>
 8    1  0.1063984E+005  0.1043930E+01  0.7957747E-01            NaN
         13   -1    0    0    0    0  0.00000000000E+00  0.00000000000E+00  0.74505805969E-08  0.10566000000E+00  0.10566000000E+00 0.  1.
     999900   -1    0    0    0    0 -0.00000000000E+00 -0.00000000000E+00 -0.74505805969E-08  0.93827000000E+00  0.93827000000E+00 0.  1.
     999902    2    1    2    0    0 -0.18138830379E-01 -0.93140247768E-02 -0.94258551262E-02  0.10214663634E+01  0.10212193283E+01 0.  0.
     999903    2    3    3    0    0 -0.12016439835E+00  0.51707243761E-01 -0.20356281682E-01  0.13340539366E+00  0.16416429696E-01 0.  0.
         14    1    1    2    0    0  0.18138830379E-01  0.93140247768E-02  0.94258551262E-02  0.22463636614E-01  0.00000000000E+00 0. -1.
     999901    1    3    3    0    0  0.10202556797E+00 -0.61021268538E-01  0.10930426556E-01  0.88806096973E+00  0.88000000000E+00 0.  1.
        -11    1    4    4    0    0 -0.56572482131E-01  0.22594323200E-01 -0.17595380222E-01  0.63409839153E-01  0.51100000000E-03 0.  1.
         11    1    4    4    0    0 -0.63591916221E-01  0.29112920561E-01 -0.27609014605E-02  0.69995554502E-01  0.51100000000E-03 0. -1.
</event>
<event>
 7    1  0.1664534E+005  0.1043930E+01  0.7957747E-01            NaN
         13   -1    0    0    0    0  0.00000000000E+00  0.00000000000E+00  0.74505805969E-08  0.10566000000E+00  0.10566000000E+00 0. -1.
     999900   -1    0    0    0    0 -0.00000000000E+00 -0.00000000000E+00 -0.74505805969E-08  0.93827000000E+00  0.93827000000E+00 0. -1.
     999903    2    1    2    0    0  0.31139723826E-02 -0.89283897713E-01 -0.55925607655E-01  0.10770026954E+00  0.22144147143E-01 0.  0.
         14    1    1    2    0    0  0.82103205830E-02  0.21533980019E-01  0.48303975789E-01  0.53520049856E-01  0.00000000000E+00 0. -1.
     999901    1    1    2    0    0 -0.11324292966E-01  0.67749917694E-01  0.76216318662E-02  0.88270968060E+00  0.88000000000E+00 0.  1.
        -11    1    3    3    0    0 -0.57395304349E-02 -0.50365301418E-01 -0.21790379270E-01  0.55178687428E-01  0.51100000000E-03 0.  1.
         11    1    3    3    0    0  0.88535028174E-02 -0.38918596295E-01 -0.34135228385E-01  0.52521582113E-01  0.51100000000E-03 0. -1.
</event>
<event>
 8    1  0.1063984E+005  0.1043930E+01  0.7957747E-01            NaN
         13   -1    0    0    0    0  0.00000000000E+00  0.00000000000E+00  0.74505805969E-08  0.10566000000E+00  0.10566000000E+00 0. -1.
     999900   -1    0    0    0    0 -0.00000000000E+00 -0.00000000000E+00 -0.74505805969E-08  0.93827000000E+00  0.93827000000E+00 0.  1.
     999902    2    1    2    0    0  0.13786021616E-01 -0.16165779195E-01 -0.10488801115E-01  0.10202360818E+01  0.10199609115E+01 0.  0.
     999903    2    3    3    0    0 -0.62616137062E-01 -0.83176805570E-01 -0.78246841608E-01  0.13179986040E+00  0.20235448486E-01 0.  0.
         14    1    1    2    0    0 -0.13786021616E-01  0.16165779195E-01  0.10488801115E-01  0.23693918161E-01  0.00000000000E+00 0.  1.
     999901    1    3    3    0    0  0.76402158678E-01  0.67011026375E-01  0.67758040492E-01  0.88843622144E+00  0.88000000000E+00 0. -1.
        -11    1    4    4    0    0 -0.53475259289E-01 -0.71881784686E-01 -0.57469465862E-01  0.10644057005E+00  0.51100000000E-03 0. -1.
         11    1    4    4    0    0 -0.91408777726E-02 -0.11295020884E-01 -0.20777375745E-01  0.25359290351E-01  0.51100000000E-03 0.  1.
</event>
<event>
 8    1  0.1063984E+005  0.1043930E+01  0.7957747E-01            NaN
         13   -1    0    0    0    0  0.00000000000E+00  0.00000000000E+00  0.74505805969E-08  0.10566000000E+00  0.10566000000E+00 0.  1.
     999900   -1    0    0    0    0 -0.00000000000E+00 -0.00000000000E+00 -0.74505805969E-08  0.93827000000E+00  0.93827000000E+00 0. -1.
     999902    2    1    2    0    0 -0.23615824730E-01  0.31080953769E-02 -0.24001257742E-04  0.10201105120E+01  0.10198323826E+01 0.  0.
     999903    2    3    3    0    0  0.61931207398E-01  0.40424815212E-01 -0.10392102063E+00  0.12909680672E+00  0.19919007057E-01 0.  0.
         14    1    1    2    0    0  0.23615824730E-01 -0.31080953769E-02  0.24001257742E-04  0.23819488042E-01  0.00000000000E+00 0. -1.
     999901    1    3    3    0    0 -0.85547032128E-01 -0.37316719835E-01  0.10389701937E+00  0.89101370524E+00  0.88000000000E+00 0.  1.
        -11    1    4    4    0    0  0.39583371949E-01  0.15684184596E-01 -0.49724555849E-01  0.65464719939E-01  0.51100000000E-03 0. -1.
         11    1    4    4    0    0  0.22347835449E-01  0.24740630615E-01 -0.54196464781E-01  0.63632086782E-01  0.51100000000E-03 0.  1.
</event>
<event>
 8    1  0.1063984E+005  0.1043930E+01  0.7957747E-01            NaN
         13   -1    0    0    0    0  0.00000000000E+00  0.00000000000E+00  0.74505805969E-08  0.10566000000E+00  0.10566000000E+00 0.  1.
     999900   -1    0    0    0    0 -0.00000000000E+00 -0.00000000000E+00 -0.74505805969E-08  0.93827000000E+00  0.93827000000E+00 0. -1.
     999902    2    1    2    0    0  0.20831601698E-01  0.11103513083E-01 -0.71877326234E-04  0.10203238822E+01  0.10200507712E+01 0.  0.
     999903    2    3    3    0    0  0.11572569622E+00  0.55222077204E-01 -0.29381776861E-01  0.13363881572E+00  0.23539959228E-01 0.  0.
         14    1    1    2    0    0 -0.20831601698E-01 -0.11103513083E-01  0.71877326234E-04  0.23606117818E-01  0.00000000000E+00 0. -1.
     999901    1    3    3    0    0 -0.94894094519E-01 -0.44118564121E-01  0.29309899535E-01  0.88668506646E+00  0.88000000000E+00 0.  1.
        -11    1    4    4    0    0  0.53954026965E-01  0.18742280908E-01 -0.29893279461E-02  0.57197091901E-01  0.51100000000E-03 0.  1.
         11    1    4    4    0    0  0.61771669251E-01  0.36479796296E-01 -0.26392448915E-01  0.76441723820E-01  0.51100000000E-03 0. -1.
</event>
<event>
 8    1  0.1063984E+005  0.1043930E+01  0.7957747E-01            NaN
         13   -1    0    0    0    0  0.00000000000E+00  0.00000000000E+00  0.74505805969E-08  0.10566000000E+00  0.10566000000E+00 0. -1.
     999900   -1    0    0    0    0 -0.00000000000E+00 -0.00000000000E+00 -0.74505805969E-08  0.93827000000E+00  0.93827000000E+00 0. -1.
     999902    2    1    2    0    0 -0.95054870300E-02 -0.14323222284E-01 -0.15924155378E-01  0.10204973795E+01  0.10202283145E+01 0.  0.
     999903    2    3    3    0    0  0.67730419104E-01 -0.81373143283E-01  0.72978909866E-01  0.13012395663E+00  0.19933004864E-01 0.  0.
         14    1    1    2    0    0  0.95054870300E-02  0.14323222284E-01  0.15924155378E-01  0.23432620528E-01  0.00000000000E+00 0. -1.
     999901    1    3    3    0    0 -0.77235906134E-01  0.67049920999E-01 -0.88903065244E-01  0.89037342285E+00  0.88000000000E+00 0. -1.
        -11    1    4    4    0    0  0.44812859875E-01 -0.51005616938E-01  0.35091626735E-01  0.76429371039E-01  0.51100000000E-03 0. -1.
         11    1    4    4    0    0  0.22917559229E-01 -0.30367526344E-01  0.37887283131E-01  0.53694585586E-01  0.51100000000E-03 0.  1.
</event>
<event>
 8    1  0.1063984E+005  0.1043930E+01  0.7957747E-01            NaN
         13   -1    0    0    0    0  0.00000000000E+00  0.00000000000E+00  0.74505805969E-08  0.10566000000E+00  0.10566000000E+00 0. -1.
     999900   -1    0    0    0    0 -0.00000000000E+00 -0.00000000000E+00 -0.74505805969E-08  0.93827000000E+00  0.93827000000E+00 0.  1.
     999902    2    1    2    0    0 -0.15586674039E-03  0.19472984665E-01  0.13894815310E-01  0.10200074726E+01  0.10197269030E+01 0.  0.
     999903    2    3    3    0    0  0.31479534071E-01  0.22630679329E-01 -0.12142466628E+00  0.12909662870E+00  0.20466588568E-01 0.  0.
         14    1    1    2    0    0  0.15586674039E-03 -0.19472984665E-01 -0.13894815310E-01  0.23922527432E-01  0.00000000000E+00 0. -1.
     999901    1    3    3    0    0 -0.31635400811E-01 -0.31576946633E-02  0.13531948159E+00  0.89091084387E+00  0.88000000000E+00 0. -1.
        -11    1    4    4    0    0  0.15688582193E-01  0.20333716940E-01 -0.53870403659E-01  0.59681430674E-01  0.51100000000E-03 0.  1.
         11    1    4    4    0    0  0.15790951877E-01  0.22969623885E-02 -0.67554262625E-01  0.69415198028E-01  0.51100000000E-03 0. -1.
</event>
<event>
 8    1  0.1063984E+005  0.1043930E+01  0.7957747E-01            NaN
         13   -1    0    0    0    0  0.00000000000E+00  0.00000000000E+00  0.74505805969E-08  0.10566000000E+00  0.10566000000E+00 0.  1.
     999900   -1    0    0    0    0 -0.00000000000E+00 -0.00000000000E+00 -0.74505805969E-08  0.93827000000E+00  0.93827000000E+00 0.  1.
     999902    2    1    2    0    0 -0.25081934586E-01 -0.24639256019E-02  0.10103117617E-01  0.10167777007E+01  0.10164150950E+01 0.  0.
     999903    2    3    3    0    0  0.97508956421E-01 -0.10311510655E-01  0.76305105636E-01  0.12578229422E+00  0.19605931701E-01 0.  0.
         14    1    1    2    0    0  0.25081934586E-01  0.24639256019E-02 -0.10103117617E-01  0.27152299305E-01  0.00000000000E+00 0. -1.
     999901    1    3    3    0    0 -0.12259089101E+00  0.78475850529E-02 -0.66201988019E-01  0.89099540648E+00  0.88000000000E+00 0.  1.
        -11    1    4    4    0    0  0.22423271161E-01 -0.70246215666E-02  0.27461948692E-01  0.36146481775E-01  0.51100000000E-03 0. -1.
         11    1    4    4    0    0  0.75085685259E-01 -0.32868890881E-02  0.48843156944E-01  0.89635812441E-01  0.51100000000E-03 0.  1.
</event>
<event>
 8    1  0.1063984E+005  0.1043930E+01  0.7957747E-01            NaN
         13   -1    0    0    0    0  0.00000000000E+00  0.00000000000E+00  0.74505805969E-08  0.10566000000E+00  0.10566000000E+00 0.  1.
     999900   -1    0    0    0    0 -0.00000000000E+00 -0.00000000000E+00 -0.74505805969E-08  0.93827000000E+00  0.93827000000E+00 0.  1.
     999902    2    1    2    0    0 -0.11360272954E-01  0.16785280280E-01  0.12768150760E-01  0.10199753113E+01  0.10196939779E+01 0.  0.
     999903    2    3    3    0    0 -0.39904473644E-01 -0.68946434117E-01  0.10185748222E+00  0.13087373826E+00  0.20174510843E-01 0.  0.
         14    1    1    2    0    0  0.11360272954E-01 -0.16785280280E-01 -0.12768150760E-01  0.23954688675E-01  0.00000000000E+00 0. -1.
     999901    1    3    3    0    0  0.28544200690E-01  0.85731714397E-01 -0.89089331461E-01  0.88910157306E+00  0.88000000000E+00 0.  1.
        -11    1    4    4    0    0 -0.39913124847E-02 -0.24491281594E-01  0.26688695692E-01  0.36445864625E-01  0.51100000000E-03 0.  1.
         11    1    4    4    0    0 -0.35913161159E-01 -0.44455152522E-01  0.75168786529E-01  0.94427873636E-01  0.51100000000E-03 0. -1.
</event>
<event>
 8    1  0.1063984E+005  0.1043930E+01  0.7957747E-01            NaN
         13   -1    0    0    0    0  0.00000000000E+00  0.00000000000E+00  0.74505805969E-08  0.10566000000E+00  0.10566000000E+00 0. -1.
     999900   -1    0    0    0    0 -0.00000000000E+00 -0.00000000000E+00 -0.74505805969E-08  0.93827000000E+00  0.93827000000E+00 0.  1.
     999902    2    1    2    0    0  0.22922917899E-01 -0.53839561977E-02 -0.28215744739E-02  0.10202148481E+01  0.10199391785E+01 0.  0.
     999903    2    3    3    0    0 -0.65485983718E-01  0.84243738038E-01  0.68572089083E-01  0.12839294170E+00  0.19929741954E-01 0.  0.
         14    1    1    2    0    0 -0.22922917899E-01  0.53839561977E-02  0.28215744739E-02  0.23715151947E-01  0.00000000000E+00 0. -1.
     999901    1    3    3    0    0  0.88408901618E-01 -0.89627694236E-01 -0.71393663557E-01  0.89182190636E+00  0.88000000000E+00 0.  1.
        -11    1    4    4    0    0 -0.43425123998E-02  0.17374065063E-01  0.12267090003E-01  0.21713087502E-01  0.51100000000E-03 0.  1.
         11    1    4    4    0    0 -0.61143471318E-01  0.66869672975E-01  0.56304999080E-01  0.10667985420E+00  0.51100000000E-03 0. -1.
</event>
<event>
 8    1  0.1063984E+005  0.1043930E+01  0.7957747E-01            NaN
         13   -1    0    0    0    0  0.00000000000E+00  0.00000000000E+00  0.74505805969E-08  0.10566000000E+00  0.10566000000E+00 0. -1.
     999900   -1    0    0    0    0 -0.00000000000E+00 -0.00000000000E+00 -0.74505805969E-08  0.93827000000E+00  0.93827000000E+00 0. -1.
     999902    2    1    2    0    0  0.18208322663E-03 -0.22854791611E-02 -0.19564199883E-01  0.10242319167E+01  0.10240424819E+01 0.  0.
     999903    2    3    3    0    0  0.80689520863E-01 -0.56658866480E-01 -0.91430171270E-01  0.13597371627E+00  0.20207656201E-01 0.  0.
         14    1    1    2    0    0 -0.18208322663E-03  0.22854791611E-02  0.19564199883E-01  0.19698083316E-01  0.00000000000E+00 0. -1.
     999901    1    3    3    0    0 -0.80507437637E-01  0.54373387318E-01  0.71865971388E-01  0.88825820042E+00  0.88000000000E+00 0. -1.
        -11    1    4    4    0    0  0.39329946930E-01 -0.38899661211E-01 -0.45070422934E-01  0.71355676104E-01  0.51100000000E-03 0.  1.
         11    1    4    4    0    0  0.41359573933E-01 -0.17759205269E-01 -0.46359748336E-01  0.64618040163E-01  0.51100000000E-03 0. -1.
</event>
<event>
 8    1  0.1063984E+005  0.1043930E+01  0.7957747E-01            NaN
         13   -1    0    0    0    0  0.00000000000E+00  0.00000000000E+00  0.74505805969E-08  0.10566000000E+00  0.10566000000E+00 0.  1.
     999900   -1    0    0    0    0 -0.00000000000E+00 -0.00000000000E+00 -0.74505805969E-08  0.93827000000E+00  0.93827000000E+00 0.  1.
     999902    2    1    2    0    0  0.20854551752E-02  0.24979065292E-02  0.17574477883E-01  0.10260568097E+01  0.10259011286E+01 0.  0.
     999903    2    3    3    0    0 -0.65466068793E-01  0.11032516382E+00 -0.38713140126E-01  0.13512571145E+00  0.17401228171E-01 0.  0.
         14    1    1    2    0    0 -0.20854551752E-02 -0.24979065292E-02 -0.17574477883E-01  0.17873190347E-01  0.00000000000E+00 0. -1.
     999901    1    3    3    0    0  0.67551523968E-01 -0.10782725729E+00  0.56287618010E-01  0.89093109820E+00  0.88000000000E+00 0.  1.
        -11    1    4    4    0    0 -0.42390238753E-01  0.58676294942E-01 -0.27606619311E-01  0.77474037460E-01  0.51100000000E-03 0.  1.
         11    1    4    4    0    0 -0.23075830039E-01  0.51648868875E-01 -0.11106520816E-01  0.57651673989E-01  0.51100000000E-03 0. -1.
</event>
<event>
 8    1  0.1063984E+005  0.1043930E+01  0.7957747E-01            NaN
         13   -1    0    0    0    0  0.00000000000E+00  0.00000000000E+00  0.74505805969E-08  0.10566000000E+00  0.10566000000E+00 0.  1.
     999900   -1    0    0    0    0 -0.00000000000E+00 -0.00000000000E+00 -0.74505805969E-08  0.93827000000E+00  0.93827000000E+00 0.  1.
     999902    2    1    2    0    0 -0.18440537395E-01 -0.97944864350E-02  0.39089937955E-02  0.10226869866E+01  0.10224663354E+01 0.  0.
     999903    2    3    3    0    0  0.58156180330E-01  0.11428187298E+00  0.14522750399E-01  0.13062496416E+00  0.20235690750E-01 0.  0.
         14    1    1    2    0    0  0.18440537395E-01  0.97944864350E-02 -0.39089937955E-02  0.21243013356E-01  0.00000000000E+00 0. -1.
     999901    1    3    3    0    0 -0.76596717726E-01 -0.12407635941E+00 -0.10613756604E-01  0.89206202249E+00  0.88000000000E+00 0. -1.
        -11    1    4    4    0    0  0.35612318708E-01  0.62119204723E-01 -0.13636643945E-02  0.71618109028E-01  0.51100000000E-03 0. -1.
         11    1    4    4    0    0  0.22543861623E-01  0.52162668256E-01  0.15886414794E-01  0.59006855131E-01  0.51100000000E-03 0.  1.
</event>
<event>
 8    1  0.1063984E+005  0.1043930E+01  0.7957747E-01            NaN
         13   -1    0    0    0    0  0.00000000000E+00  0.00000000000E+00  0.74505805969E-08  0.10566000000E+00  0.10566000000E+00 0.  1.
     999900   -1    0    0    0    0 -0.00000000000E+00 -0.00000000000E+00 -0.74505805969E-08  0.93827000000E+00  0.93827000000E+00 0. -1.
     999902    2    1    2    0    0  0.28932697815E-02 -0.80114920266E-02 -0.21799938681E-01  0.10205250360E+01  0.10202566132E+01 0.  0.
     999903    2    3    3    0    0 -0.10192369160E+00 -0.64789973553E-01  0.44736315214E-01  0.12999852630E+00  0.17666334005E-01 0.  0.
         14    1    1    2    0    0 -0.28932697815E-02  0.80114920266E-02  0.21799938681E-01  0.23404964025E-01  0.00000000000E+00 0.  1.
     999901    1    3    3    0    0  0.10481696139E+00  0.56778481526E-01 -0.66536253894E-01  0.89052650968E+00  0.88000000000E+00 0.  1.
        -11    1    4    4    0    0 -0.70933085661E-02 -0.10805533536E-01  0.49543563488E-02  0.13852124358E-01  0.51100000000E-03 0. -1.
         11    1    4    4    0    0 -0.94830383038E-01 -0.53984440018E-01  0.39781958865E-01  0.11614640194E+00  0.51100000000E-03 0.  1.
</event>
<event>
 8    1  0.1063984E+005  0.1043930E+01  0.7957747E-01            NaN
         13   -1    0    0    0    0  0.00000000000E+00  0.00000000000E+00  0.74505805969E-08  0.10566000000E+00  0.10566000000E+00 0. -1.
     999900   -1    0    0    0    0 -0.00000000000E+00 -0.00000000000E+00 -0.74505805969E-08  0.93827000000E+00  0.93827000000E+00 0.  1.
     999902    2    1    2    0    0  0.17447312919E-01  0.95919085442E-02 -0.13361262821E-01  0.10199521606E+01  0.10196702767E+01 0.  0.
     999903    2    3    3    0    0 -0.71274740219E-01  0.47154767184E-01  0.93609759578E-01  0.12825413398E+00  0.19562084078E-01 0.  0.
         14    1    1    2    0    0 -0.17447312919E-01 -0.95919085442E-02  0.13361262821E-01  0.23977839390E-01  0.00000000000E+00 0. -1.
     999901    1    3    3    0    0  0.88722053138E-01 -0.37562858640E-01 -0.10697102240E+00  0.89169802663E+00  0.88000000000E+00 0.  1.
        -11    1    4    4    0    0 -0.32636691645E-01  0.16499125695E-01  0.52831353753E-01  0.64255644504E-01  0.51100000000E-03 0. -1.
         11    1    4    4    0    0 -0.38638048574E-01  0.30655641489E-01  0.40778405824E-01  0.63998489476E-01  0.51100000000E-03 0.  1.
</event>
<event>
 8    1  0.1063984E+005  0.1043930E+01  0.7957747E-01            NaN
         13   -1    0    0    0    0  0.00000000000E+00  0.00000000000E+00  0.74505805969E-08  0.10566000000E+00  0.10566000000E+00 0.  1.
     999900   -1    0    0    0    0 -0.00000000000E+00 -0.00000000000E+00 -0.74505805969E-08  0.93827000000E+00  0.93827000000E+00 0.  1.
     999902    2    1    2    0    0  0.10608300620E-01 -0.14973670156E-01  0.15175876306E-01  0.10201171030E+01  0.10198391294E+01 0.  0.
     999903    2    3    3    0    0  0.38373845143E-03  0.50035909132E-01  0.12011032874E+00  0.13144279466E+00  0.18627338495E-01 0.  0.
         14    1    1    2    0    0 -0.10608300620E-01  0.14973670156E-01 -0.15175876306E-01  0.23812896960E-01  0.00000000000E+00 0. -1.
     999901    1    3    3    0    0  0.10224562169E-01 -0.65009579288E-01 -0.10493445243E+00  0.88867430838E+00  0.88000000000E+00 0.  1.
        -11    1    4    4    0    0  0.73588630519E-02  0.27135097964E-01  0.50116029460E-01  0.57466024195E-01  0.51100000000E-03 0.  1.
         11    1    4    4    0    0 -0.69751246004E-02  0.22900811168E-01  0.69994299280E-01  0.73976770462E-01  0.51100000000E-03 0. -1.
</event>
<event>
 8    1  0.1063984E+005  0.1043930E+01  0.7957747E-01            NaN
         13   -1    0    0    0    0  0.00000000000E+00  0.00000000000E+00  0.74505805969E-08  0.10566000000E+00  0.10566000000E+00 0. -1.
     999900   -1    0    0    0    0 -0.00000000000E+00 -0.00000000000E+00 -0.74505805969E-08  0.93827000000E+00  0.93827000000E+00 0.  1.
     999902    2    1    2    0    0 -0.21666374231E-01 -0.27544919545E-02 -0.31557648740E-02  0.10218624254E+01  0.10216241180E+01 0.  0.
     999903    2    3    3    0    0  0.11125303587E+00 -0.22582985365E-01  0.61232389711E-01  0.12933423355E+00  0.95241378168E-02 0.  0.
         14    1    1    2    0    0  0.21666374231E-01  0.27544919545E-02  0.31557648740E-02  0.22067574633E-01  0.00000000000E+00 0. -1.
     999901    1    3    3    0    0 -0.13291941010E+00  0.19828493411E-01 -0.64388154585E-01  0.89252819181E+00  0.88000000000E+00 0.  1.
        -11    1    4    4    0    0  0.72557320053E-01 -0.13845349377E-01  0.44804725953E-01  0.86394345772E-01  0.51100000000E-03 0. -1.
         11    1    4    4    0    0  0.38695715815E-01 -0.87376359879E-02  0.16427663758E-01  0.42939887781E-01  0.51100000000E-03 0.  1.
</event>
<event>
 8    1  0.1063984E+005  0.1043930E+01  0.7957747E-01            NaN
         13   -1    0    0    0    0  0.00000000000E+00  0.00000000000E+00  0.74505805969E-08  0.10566000000E+00  0.10566000000E+00 0. -1.
     999900   -1    0    0    0    0 -0.00000000000E+00 -0.00000000000E+00 -0.74505805969E-08  0.93827000000E+00  0.93827000000E+00 0. -1.
     999902    2    1    2    0    0 -0.41308419356E-02  0.16693780326E-01  0.16157066747E-01  0.10203334544E+01  0.10200605675E+01 0.  0.
     999903    2    3    3    0    0 -0.34166512603E-02  0.12684160376E+00 -0.31251212398E-01  0.13220024483E+00  0.19995012004E-01 0.  0.
         14    1    1    2    0    0  0.41308419356E-02 -0.16693780326E-01 -0.16157066747E-01  0.23596545563E-01  0.00000000000E+00 0.  1.
     999901    1    3    3    0    0 -0.71419067531E-03 -0.11014782344E+00  0.47408279145E-01  0.88813320961E+00  0.88000000000E+00 0.  1.
        -11    1    4    4    0    0  0.46067804993E-02  0.40567795063E-01 -0.25042854597E-02  0.40908446433E-01  0.51100000000E-03 0.  1.
         11    1    4    4    0    0 -0.80234317595E-02  0.86273808701E-01 -0.28746926938E-01  0.91291798396E-01  0.51100000000E-03 0. -1.
</event>
<event>
 8    1  0.1063984E+005  0.1043930E+01  0.7957747E-01            NaN
         13   -1    0    0    0    0  0.00000000000E+00  0.00000000000E+00  0.74505805969E-08  0.10566000000E+00  0.10566000000E+00 0.  1.
     999900   -1    0    0    0    0 -0.00000000000E+00 -0.00000000000E+00 -0.74505805969E-08  0.93827000000E+00  0.93827000000E+00 0. -1.
     999902    2    1    2    0    0 -0.11659568991E-02 -0.87307250621E-03  0.23078139636E-01  0.10208059381E+01  0.10205439927E+01 0.  0.
     999903    2    3    3    0    0  0.11598059917E+00 -0.11543325444E-01 -0.53035632114E-01  0.12972206090E+00  0.20743361967E-01 0.  0.
         14    1    1    2    0    0  0.11659568991E-02  0.87307250621E-03 -0.23078139636E-01  0.23124061930E-01  0.00000000000E+00 0. -1.
     999901    1    3    3    0    0 -0.11714655607E+00  0.10670252938E-01  0.76113771750E-01  0.89108387717E+00  0.88000000000E+00 0.  1.
        -11    1    4    4    0    0  0.33388246821E-01  0.26038196489E-02 -0.23320926379E-01  0.40812763087E-01  0.51100000000E-03 0. -1.
         11    1    4    4    0    0  0.82592352347E-01 -0.14147145093E-01 -0.29714705735E-01  0.88909297817E-01  0.51100000000E-03 0.  1.
</event>
<event>
 8    1  0.1063984E+005  0.1043930E+01  0.7957747E-01            NaN
         13   -1    0    0    0    0  0.00000000000E+00  0.00000000000E+00  0.74505805969E-08  0.10566000000E+00  0.10566000000E+00 0. -1.
     999900   -1    0    0    0    0 -0.00000000000E+00 -0.00000000000E+00 -0.74505805969E-08  0.93827000000E+00  0.93827000000E+00 0. -1.
     999902    2    1    2    0    0 -0.23097519145E-02 -0.20832966115E-01  0.99149549955E-02  0.10207426378E+01  0.10204792398E+01 0.  0.
     999903    2    3    3    0    0 -0.64922053208E-01  0.85518129699E-01 -0.68075038944E-01  0.12871500654E+00  0.20127555301E-01 0.  0.
         14    1    1    2    0    0  0.23097519145E-02  0.20832966115E-01 -0.99149549955E-02  0.23187362153E-01  0.00000000000E+00 0.  1.
     999901    1    3    3    0    0  0.62612301293E-01 -0.10635109581E+00  0.77989993939E-01  0.89202763130E+00  0.88000000000E+00 0.  1.
        -11    1    4    4    0    0 -0.18233356492E-01  0.40290558670E-01 -0.26809073542E-01  0.51718197495E-01  0.51100000000E-03 0.  1.
         11    1    4    4    0    0 -0.46688696716E-01  0.45227571029E-01 -0.41265965401E-01  0.76996809049E-01  0.51100000000E-03 0. -1.
</event>
<event>
 8    1  0.1063984E+005  0.1043930E+01  0.7957747E-01            NaN
         13   -1    0    0    0    0  0.00000000000E+00  0.00000000000E+00  0.74505805969E-08  0.10566000000E+00  0.10566000000E+00 0.  1.
     999900   -1    0    0    0    0 -0.00000000000E+00 -0.00000000000E+00 -0.74505805969E-08  0.93827000000E+00  0.93827000000E+00 0. -1.
     999902    2    1    2    0    0  0.91455997419E-02 -0.12912633560E-02 -0.22217933033E-01  0.10198687053E+01  0.10195848322E+01 0.  0.
     999903    2    3    3    0    0 -0.70028312493E-03 -0.12673911714E+00  0.20964635566E-01  0.12986935715E+00  0.19058850201E-01 0.  0.
         14    1    1    2    0    0 -0.91455997419E-02  0.12912633560E-02  0.22217933033E-01  0.24061294727E-01  0.00000000000E+00 0.  1.
     999901    1    3    3    0    0  0.98458828668E-02  0.12544785379E+00 -0.43182568599E-01  0.88999934812E+00  0.88000000000E+00 0. -1.
        -11    1    4    4    0    0 -0.65932588130E-02 -0.71085298083E-01  0.18956353676E-01  0.73866062106E-01  0.51100000000E-03 0. -1.
         11    1    4    4    0    0  0.58929756881E-02 -0.55653819061E-01  0.20082818893E-02  0.56003295043E-01  0.51100000000E-03 0.  1.
</event>
<event>
 8    1  0.1063984E+005  0.1043930E+01  0.7957747E-01            NaN
         13   -1    0    0    0    0  0.00000000000E+00  0.00000000000E+00  0.74505805969E-08  0.10566000000E+00  0.10566000000E+00 0. -1.
     999900   -1    0    0    0    0 -0.00000000000E+00 -0.00000000000E+00 -0.74505805969E-08  0.93827000000E+00  0.93827000000E+00 0. -1.
     999902    2    1    2    0    0 -0.25133743393E-02  0.20742626917E-01 -0.59983717475E-02  0.10221916908E+01  0.10219605172E+01 0.  0.
     999903    2    3    3    0    0  0.64032296451E-01  0.11530754803E+00  0.17139390119E-01  0.13432559359E+00  0.18805339044E-01 0.  0.
         14    1    1    2    0    0  0.25133743393E-02 -0.20742626917E-01  0.59983717475E-02  0.21738309171E-01  0.00000000000E+00 0. -1.
     999901    1    3    3    0    0 -0.66545670790E-01 -0.94564921117E-01 -0.23137761867E-01  0.88786609724E+00  0.88000000000E+00 0. -1.
        -11    1    4    4    0    0  0.54683288920E-02  0.38004288301E-02 -0.18979036815E-02  0.69432729709E-02  0.51100000000E-03 0. -1.
         11    1    4    4    0    0  0.58563967559E-01  0.11150711920E+00  0.19037293801E-01  0.12738232062E+00  0.51100000000E-03 0.  1.
</event>
<event>
 7    1  0.2411824E+005  0.1043930E+01  0.7957747E-01            NaN
         13   -1    0    0    0    0  0.00000000000E+00  0.00000000000E+00  0.74505805969E-08  0.10566000000E+00  0.10566000000E+00 0.  1.
     999900   -1    0    0    0    0 -0.00000000000E+00 -0.00000000000E+00 -0.74505805969E-08  0.93827000000E+00  0.93827000000E+00 0.  1.
     999903    2    1    2    0    0 -0.64234041865E-01 -0.71088394530E-01 -0.16313999379E-02  0.10054839688E+00  0.30458934285E-01 0.  0.
         14    1    1    2    0    0 -0.37139302753E-01 -0.10612936478E-01 -0.36283005829E-01  0.52994516147E-01  0.00000000000E+00 0.  1.
     999901    1    1    2    0    0  0.10137334462E+00  0.81701331008E-01  0.37914405767E-01  0.89038708698E+00  0.88000000000E+00 0. -1.
        -11    1    3    3    0    0 -0.30175655791E-01 -0.55241578423E-01 -0.19682382851E-02  0.62978863693E-01  0.51100000000E-03 0.  1.
         11    1    3    3    0    0 -0.34058386073E-01 -0.15846816107E-01  0.33683834715E-03  0.37569533185E-01  0.51100000000E-03 0. -1.
</event>
<event>
 8    1  0.1063984E+005  0.1043930E+01  0.7957747E-01            NaN
         13   -1    0    0    0    0  0.00000000000E+00  0.00000000000E+00  0.74505805969E-08  0.10566000000E+00  0.10566000000E+00 0. -1.
     999900   -1    0    0    0    0 -0.00000000000E+00 -0.00000000000E+00 -0.74505805969E-08  0.93827000000E+00  0.93827000000E+00 0.  1.
     999902    2    1    2    0    0  0.22673393342E-01 -0.77524580859E-02 -0.37601770430E-02  0.10196746438E+01  0.10193861177E+01 0.  0.
     999903    2    3    3    0    0  0.58648370250E-01 -0.28147281510E-01 -0.11269701556E+00  0.13199374250E+00  0.22132102314E-01 0.  0.
         14    1    1    2    0    0 -0.22673393342E-01  0.77524580859E-02  0.37601770430E-02  0.24255356179E-01  0.00000000000E+00 0. -1.
     999901    1    3    3    0    0 -0.35974976909E-01  0.20394823424E-01  0.10893683852E+00  0.88768090132E+00  0.88000000000E+00 0.  1.
        -11    1    4    4    0    0  0.30219648696E-01 -0.83229360419E-02 -0.72048248083E-01  0.78572957209E-01  0.51100000000E-03 0.  1.
         11    1    4    4    0    0  0.28428721554E-01 -0.19824345468E-01 -0.40648767478E-01  0.53420785289E-01  0.51100000000E-03 0. -1.
</event>
<event>
 8    1  0.1063984E+005  0.1043930E+01  0.7957747E-01            NaN
         13   -1    0    0    0    0  0.00000000000E+00  0.00000000000E+00  0.74505805969E-08  0.10566000000E+00  0.10566000000E+00 0.  1.
     999900   -1    0    0    0    0 -0.00000000000E+00 -0.00000000000E+00 -0.74505805969E-08  0.93827000000E+00  0.93827000000E+00 0.  1.
     999902    2    1    2    0    0  0.11874246687E-01  0.18795012981E-01 -0.93672032484E-02  0.10198054328E+01  0.10195200469E+01 0.  0.
     999903    2    3    3    0    0 -0.96869376647E-01  0.16383713871E-01  0.80518022071E-01  0.12856453172E+00  0.19838969859E-01 0.  0.
         14    1    1    2    0    0 -0.11874246687E-01 -0.18795012981E-01  0.93672032484E-02  0.24124567230E-01  0.00000000000E+00 0.  1.
     999901    1    3    3    0    0  0.10874362333E+00  0.24112991103E-02 -0.89885225320E-01  0.89124090105E+00  0.88000000000E+00 0.  1.
        -11    1    4    4    0    0 -0.88068262654E-01  0.19494918729E-01  0.68105423359E-01  0.11302513240E+00  0.51100000000E-03 0. -1.
         11    1    4    4    0    0 -0.88011139929E-02 -0.31112048583E-02  0.12412598712E-01  0.15539399312E-01  0.51100000000E-03 0.  1.
</event>
<event>
 8    1  0.1063984E+005  0.1043930E+01  0.7957747E-01            NaN
         13   -1    0    0    0    0  0.00000000000E+00  0.00000000000E+00  0.74505805969E-08  0.10566000000E+00  0.10566000000E+00 0.  1.
     999900   -1    0    0    0    0 -0.00000000000E+00 -0.00000000000E+00 -0.74505805969E-08  0.93827000000E+00  0.93827000000E+00 0.  1.
     999902    2    1    2    0    0  0.43752650386E-02  0.14310214438E-01 -0.20730254486E-01  0.10183630559E+01  0.10180420644E+01 0.  0.
     999903    2    3    3    0    0 -0.88446214915E-01  0.90857895989E-01  0.16663109549E-01  0.12938969385E+00  0.19650533301E-01 0.  0.
         14    1    1    2    0    0 -0.43752650386E-02 -0.14310214438E-01  0.20730254486E-01  0.25566944137E-01  0.00000000000E+00 0.  1.
     999901    1    3    3    0    0  0.92821479953E-01 -0.76547681551E-01 -0.37393364035E-01  0.88897336201E+00  0.88000000000E+00 0.  1.
        -11    1    4    4    0    0 -0.23926258721E-01  0.37935884150E-01  0.50960790059E-02  0.45142311692E-01  0.51100000000E-03 0.  1.
         11    1    4    4    0    0 -0.64519956194E-01  0.52922011839E-01  0.11567030543E-01  0.84247382161E-01  0.51100000000E-03 0. -1.
</event>
<event>
 8    1  0.1063984E+005  0.1043930E+01  0.7957747E-01            NaN
         13   -1    0    0    0    0  0.00000000000E+00  0.00000000000E+00  0.74505805969E-08  0.10566000000E+00  0.10566000000E+00 0. -1.
     999900   -1    0    0    0    0 -0.00000000000E+00 -0.00000000000E+00 -0.74505805969E-08  0.93827000000E+00  0.93827000000E+00 0.  1.
     999902    2    1    2    0    0  0.13631563485E-01  0.79357809925E-03  0.20515694772E-01  0.10192856696E+01  0.10189877002E+01 0.  0.
     999903    2    3    3    0    0 -0.11454440718E+00 -0.47563538472E-01 -0.22348425022E-01  0.12765524002E+00  0.20339537732E-01 0.  0.
         14    1    1    2    0    0 -0.13631563485E-01 -0.79357809925E-03 -0.20515694772E-01  0.24644330407E-01  0.00000000000E+00 0.  1.
     999901    1    3    3    0    0  0.12817597066E+00  0.48357116571E-01  0.42864119794E-01  0.89163042958E+00  0.88000000000E+00 0. -1.
        -11    1    4    4    0    0 -0.57984823071E-01 -0.32826353721E-01 -0.56840031428E-02  0.66875841811E-01  0.51100000000E-03 0. -1.
         11    1    4    4    0    0 -0.56559584107E-01 -0.14737184750E-01 -0.16664421879E-01  0.60779398207E-01  0.51100000000E-03 0.  1.
</event>
<event>
 8    1  0.1063984E+005  0.1043930E+01  0.7957747E-01            NaN
         13   -1    0    0    0    0  0.00000000000E+00  0.00000000000E+00  0.74505805969E-08  0.10566000000E+00  0.10566000000E+00 0.  1.
     999900   -1    0    0    0    0 -0.00000000000E+00 -0.00000000000E+00 -0.74505805969E-08  0.93827000000E+00  0.93827000000E+00 0.  1.
     999902    2    1    2    0    0  0.69020266516E-02  0.22712507582E-01 -0.60158614363E-02  0.10194415014E+01  0.10191473340E+01 0.  0.
     999903    2    3    3    0    0 -0.52663169399E-01 -0.52191375113E-01  0.10198435690E+00  0.12768892849E+00  0.20156992810E-01 0.  0.
         14    1    1    2    0    0 -0.69020266516E-02 -0.22712507582E-01  0.60158614363E-02  0.24488498553E-01  0.00000000000E+00 0. -1.
     999901    1    3    3    0    0  0.59565196050E-01  0.74903882695E-01 -0.10800021833E+00  0.89175257296E+00  0.88000000000E+00 0.  1.
        -11    1    4    4    0    0 -0.16482569715E-01 -0.97844495881E-02  0.14870830613E-01  0.24265475110E-01  0.51100000000E-03 0.  1.
         11    1    4    4    0    0 -0.36180599683E-01 -0.42406925525E-01  0.87113526282E-01  0.10342345338E+00  0.51100000000E-03 0. -1.
</event>
<event>
 8    1  0.1063984E+005  0.1043930E+01  0.7957747E-01            NaN
         13   -1    0    0    0    0  0.00000000000E+00  0.00000000000E+00  0.74505805969E-08  0.10566000000E+00  0.10566000000E+00 0.  1.
     999900   -1    0    0    0    0 -0.00000000000E+00 -0.00000000000E+00 -0.74505805969E-08  0.93827000000E+00  0.93827000000E+00 0. -1.
     999902    2    1    2    0    0 -0.35961016318E-02  0.15410176629E-01  0.21182589300E-01  0.10174893574E+01  0.10171457540E+01 0.  0.
     999903    2    3    3    0    0  0.23398501826E-01  0.96882285927E-01  0.82852179093E-01  0.13116574185E+00  0.20156910490E-01 0.  0.
         14    1    1    2    0    0  0.35961016318E-02 -0.15410176629E-01 -0.21182589300E-01  0.26440642582E-01  0.00000000000E+00 0.  1.
     999901    1    3    3    0    0 -0.26994603457E-01 -0.81472109298E-01 -0.61669589792E-01  0.88632361557E+00  0.88000000000E+00 0. -1.
        -11    1    4    4    0    0  0.10073870397E-01  0.49264409608E-01  0.28980343666E-01  0.58039524109E-01  0.51100000000E-03 0. -1.
         11    1    4    4    0    0  0.13324631429E-01  0.47617876319E-01  0.53871835427E-01  0.73126217741E-01  0.51100000000E-03 0.  1.
</event>
<event>
 8    1  0.1063984E+005  0.1043930E+01  0.7957747E-01            NaN
         13   -1    0    0    0    0  0.00000000000E+00  0.00000000000E+00  0.74505805969E-08  0.10566000000E+00  0.10566000000E+00 0. -1.
     999900   -1    0    0    0    0 -0.00000000000E+00 -0.00000000000E+00 -0.74505805969E-08  0.93827000000E+00  0.93827000000E+00 0.  1.
     999902    2    1    2    0    0 -0.63764378091E-02 -0.82792645701E-03  0.23105272246E-01  0.10199467136E+01  0.10196647001E+01 0.  0.
     999903    2    3    3    0    0 -0.59394511246E-01 -0.64326121552E-01  0.97911104972E-01  0.13290734045E+00  0.20303171892E-01 0.  0.
         14    1    1    2    0    0  0.63764378091E-02  0.82792645701E-03 -0.23105272246E-01  0.23983286408E-01  0.00000000000E+00 0.  1.
     999901    1    3    3    0    0  0.53018073437E-01  0.63498195095E-01 -0.74805832726E-01  0.88703937314E+00  0.88000000000E+00 0.  1.
        -11    1    4    4    0    0 -0.56589086085E-01 -0.57403213398E-01  0.80341465624E-01  0.11380890032E+00  0.51100000000E-03 0. -1.
         11    1    4    4    0    0 -0.28054251613E-02 -0.69229081546E-02  0.17569639348E-01  0.19098440132E-01  0.51100000000E-03 0.  1.
</event>
<event>
 8    1  0.1063984E+005  0.1043930E+01  0.7957747E-01            NaN
         13   -1    0    0    0    0  0.00000000000E+00  0.00000000000E+00  0.74505805969E-08  0.10566000000E+00  0.10566000000E+00 0. -1.
     999900   -1    0    0    0    0 -0.00000000000E+00 -0.00000000000E+00 -0.74505805969E-08  0.93827000000E+00  0.93827000000E+00 0.  1.
     999902    2    1    2    0    0  0.20237995469E-01 -0.40592732844E-02 -0.10406623704E-01  0.10208139455E+01  0.10205521835E+01 0.  0.
     999903    2    3    3    0    0 -0.54113460844E-01 -0.94301242030E-01 -0.70391712995E-01  0.13105557213E+00  0.19989468134E-01 0.  0.
         14    1    1    2    0    0 -0.20237995469E-01  0.40592732844E-02  0.10406623704E-01  0.23116054532E-01  0.00000000000E+00 0.  1.
     999901    1    3    3    0    0  0.74351456313E-01  0.90241968746E-01  0.59985089291E-01  0.88975837333E+00  0.88000000000E+00 0. -1.
        -11    1    4    4    0    0 -0.38786534139E-01 -0.52713147945E-01 -0.49471854308E-01  0.82041432743E-01  0.51100000000E-03 0. -1.
         11    1    4    4    0    0 -0.15326926704E-01 -0.41588094085E-01 -0.20919858687E-01  0.49014139392E-01  0.51100000000E-03 0.  1.
</event>
<event>
 8    1  0.1063984E+005  0.1043930E+01  0.7957747E-01            NaN
         13   -1    0    0    0    0  0.00000000000E+00  0.00000000000E+00  0.74505805969E-08  0.10566000000E+00  0.10566000000E+00 0.  1.
     999900   -1    0    0    0    0 -0.00000000000E+00 -0.00000000000E+00 -0.74505805969E-08  0.93827000000E+00  0.93827000000E+00 0. -1.
     999902    2    1    2    0    0  0.32303991491E-02  0.28620417023E-03  0.24885524918E-01  0.10188340493E+01  0.10185249203E+01 0.  0.
     999903    2    3    3    0    0  0.98527136057E-01  0.80929454792E-01 -0.86942474658E-02  0.12938905209E+00  0.20217904665E-01 0.  0.
         14    1    1    2    0    0 -0.32303991491E-02 -0.28620417023E-03 -0.24885524918E-01  0.25095950708E-01  0.00000000000E+00 0. -1.
     999901    1    3    3    0    0 -0.95296736908E-01 -0.80643250621E-01  0.33579772383E-01  0.88944499720E+00  0.88000000000E+00 0. -1.
        -11    1    4    4    0    0  0.48186617553E-01  0.33396726434E-01  0.48813650572E-02  0.58833496357E-01  0.51100000000E-03 0.  1.
         11    1    4    4    0    0  0.50340518504E-01  0.47532728357E-01 -0.13575612523E-01  0.70555555733E-01  0.51100000000E-03 0. -1.
</event>
<event>
 8    1  0.1063984E+005  0.1043930E+01  0.7957747E-01            NaN
         13   -1    0    0    0    0  0.00000000000E+00  0.00000000000E+00  0.74505805969E-08  0.10566000000E+00  0.10566000000E+00 0.  1.
     999900   -1    0    0    0    0 -0.00000000000E+00 -0.00000000000E+00 -0.74505805969E-08  0.93827000000E+00  0.93827000000E+00 0. -1.
     999902    2    1    2    0    0  0.11906180107E-01  0.17899147058E-01 -0.67579885502E-02  0.10213954266E+01  0.10211468114E+01 0.  0.
     999903    2    3    3    0    0 -0.53251205216E-01  0.71316290036E-02 -0.11889613844E+00  0.13182452498E+00  0.18837798730E-01 0.  0.
         14    1    1    2    0    0 -0.11906180107E-01 -0.17899147058E-01  0.67579885502E-02  0.22534573423E-01  0.00000000000E+00 0.  1.
     999901    1    3    3    0    0  0.65157385322E-01  0.10767518054E-01  0.11213814989E+00  0.88957090160E+00  0.88000000000E+00 0.  1.
        -11    1    4    4    0    0 -0.65156311333E-02  0.19886240612E-02 -0.34906383952E-01  0.35568593398E-01  0.51100000000E-03 0.  1.
         11    1    4    4    0    0 -0.46735574083E-01  0.51430049424E-02 -0.83989754489E-01  0.96255931582E-01  0.51100000000E-03 0. -1.
</event>
<event>
 8    1  0.1063984E+005  0.1043930E+01  0.7957747E-01            NaN
         13   -1    0    0    0    0  0.00000000000E+00  0.00000000000E+00  0.74505805969E-08  0.10566000000E+00  0.10566000000E+00 0. -1.
     999900   -1    0    0    0    0 -0.00000000000E+00 -0.00000000000E+00 -0.74505805969E-08  0.93827000000E+00  0.93827000000E+00 0.  1.
     999902    2    1    2    0    0  0.36009242061E-02 -0.19511160506E-01 -0.13695098313E-01  0.10198217492E+01  0.10195367538E+01 0.  0.
     999903    2    3    3    0    0 -0.47532418556E-02  0.12599394742E+00  0.29765253191E-02  0.12767855914E+00  0.19896900918E-01 0.  0.
         14    1    1    2    0    0 -0.36009242061E-02  0.19511160506E-01  0.13695098313E-01  0.24108250812E-01  0.00000000000E+00 0. -1.
     999901    1    3    3    0    0  0.83541660617E-02 -0.14550510792E+00 -0.16671623632E-01  0.89214319005E+00  0.88000000000E+00 0.  1.
        -11    1    4    4    0    0 -0.10270173854E-01  0.47321005032E-01  0.57268998313E-02  0.48762818734E-01  0.51100000000E-03 0. -1.
         11    1    4    4    0    0  0.55169319979E-02  0.78672942385E-01 -0.27503745122E-02  0.78915740401E-01  0.51100000000E-03 0.  1.
</event>
<event>
 8    1  0.1063984E+005  0.1043930E+01  0.7957747E-01            NaN
         13   -1    0    0    0    0  0.00000000000E+00  0.00000000000E+00  0.74505805969E-08  0.10566000000E+00  0.10566000000E+00 0. -1.
     999900   -1    0    0    0    0 -0.00000000000E+00 -0.00000000000E+00 -0.74505805969E-08  0.93827000000E+00  0.93827000000E+00 0. -1.
     999902    2    1    2    0    0 -0.18352654113E-01  0.14343785779E-02  0.11130298279E-01  0.10224181220E+01  0.10221917899E+01 0.  0.
     999903    2    3    3    0    0 -0.93950521476E-01  0.24759030317E-01  0.91888116977E-01  0.13518596400E+00  0.19801736104E-01 0.  0.
         14    1    1    2    0    0  0.18352654113E-01 -0.14343785779E-02 -0.11130298279E-01  0.21511877990E-01  0.00000000000E+00 0.  1.
     999901    1    3    3    0    0  0.75597867363E-01 -0.23324651739E-01 -0.80757818698E-01  0.88723215801E+00  0.88000000000E+00 0. -1.
        -11    1    4    4    0    0 -0.14614840227E-01  0.48153464859E-02  0.58644579960E-02  0.16475257365E-01  0.51100000000E-03 0. -1.
         11    1    4    4    0    0 -0.79335681249E-01  0.19943683831E-01  0.86023658981E-01  0.11871070663E+00  0.51100000000E-03 0.  1.
</event>
<event>
 8    1  0.1063984E+005  0.1043930E+01  0.7957747E-01            NaN
         13   -1    0    0    0    0  0.00000000000E+00  0.00000000000E+00  0.74505805969E-08  0.10566000000E+00  0.10566000000E+00 0.  1.
     999900   -1    0    0    0    0 -0.00000000000E+00 -0.00000000000E+00 -0.74505805969E-08  0.93827000000E+00  0.93827000000E+00 0.  1.
     999902    2    1    2    0    0 -0.15775307342E-01  0.10024461655E-01  0.14146738489E-01  0.10204890025E+01  0.10202197429E+01 0.  0.
     999903    2    3    3    0    0  0.91402043229E-01 -0.88003773420E-01  0.14533509079E-02  0.12849256674E+00  0.20229429942E-01 0.  0.
         14    1    1    2    0    0  0.15775307342E-01 -0.10024461655E-01 -0.14146738489E-01  0.23440997485E-01  0.00000000000E+00 0. -1.
     999901    1    3    3    0    0 -0.10717735057E+00  0.98028235075E-01  0.12693387581E-01  0.89199643578E+00  0.88000000000E+00 0.  1.
        -11    1    4    4    0    0  0.46807984106E-01 -0.58702010307E-01 -0.75788320193E-03  0.75084944550E-01  0.51100000000E-03 0. -1.
         11    1    4    4    0    0  0.44594059124E-01 -0.29301763113E-01  0.22112341098E-02  0.53407622190E-01  0.51100000000E-03 0.  1.
</event>
<event>
 8    1  0.1063984E+005  0.1043930E+01  0.7957747E-01            NaN
         13   -1    0    0    0    0  0.00000000000E+00  0.00000000000E+00  0.74505805969E-08  0.10566000000E+00  0.10566000000E+00 0. -1.
     999900   -1    0    0    0    0 -0.00000000000E+00 -0.00000000000E+00 -0.74505805969E-08  0.93827000000E+00  0.93827000000E+00 0. -1.
     999902    2    1    2    0    0 -0.98128893333E-02 -0.21317572597E-01 -0.10958777002E-01  0.10180296816E+01  0.10177001553E+01 0.  0.
     999903    2    3    3    0    0  0.11367308685E-01  0.13110072944E-01 -0.12659193401E+00  0.12954507818E+00  0.21338224005E-01 0.  0.
         14    1    1    2    0    0  0.98128893333E-02  0.21317572597E-01  0.10958777002E-01  0.25900318374E-01  0.00000000000E+00 0. -1.
     999901    1    3    3    0    0 -0.21180198018E-01 -0.34427645542E-01  0.11563315701E+00  0.88848460345E+00  0.88000000000E+00 0.  1.
        -11    1    4    4    0    0 -0.18652491817E-02  0.51584595755E-02 -0.84986655218E-01  0.85165025367E-01  0.51100000000E-03 0.  1.
         11    1    4    4    0    0  0.13232557866E-01  0.79516133690E-02 -0.41605278794E-01  0.44380052810E-01  0.51100000000E-03 0. -1.
</event>
<event>
 8    1  0.1063984E+005  0.1043930E+01  0.7957747E-01            NaN
         13   -1    0    0    0    0  0.00000000000E+00  0.00000000000E+00  0.74505805969E-08  0.10566000000E+00  0.10566000000E+00 0.  1.
     999900   -1    0    0    0    0 -0.00000000000E+00 -0.00000000000E+00 -0.74505805969E-08  0.93827000000E+00  0.93827000000E+00 0. -1.
     999902    2    1    2    0    0  0.15010466396E-01 -0.31350981709E-02  0.14916904442E-01  0.10225370811E+01  0.10223132716E+01 0.  0.
     999903    2    3    3    0    0 -0.57682332196E-01 -0.73495635813E-01  0.93104342193E-01  0.13329688650E+00  0.19255687072E-01 0.  0.
         14    1    1    2    0    0 -0.15010466396E-01  0.31350981709E-02 -0.14916904442E-01  0.21392918925E-01  0.00000000000E+00 0. -1.
     999901    1    3    3    0    0  0.72692798592E-01  0.70360537642E-01 -0.78187437751E-01  0.88924019457E+00  0.88000000000E+00 0. -1.
        -11    1    4    4    0    0 -0.31721115961E-01 -0.54156720815E-01  0.65918917881E-01  0.91020571646E-01  0.51100000000E-03 0. -1.
         11    1    4    4    0    0 -0.25961216234E-01 -0.19338914998E-01  0.27185424313E-01  0.42276314855E-01  0.51100000000E-03 0.  1.
</event>
<event>
 8    1  0.1063984E+005  0.1043930E+01  0.7957747E-01            NaN
         13   -1    0    0    0    0  0.00000000000E+00  0.00000000000E+00  0.74505805969E-08  0.10566000000E+00  0.10566000000E+00 0.  1.
     999900   -1    0    0    0    0 -0.00000000000E+00 -0.00000000000E+00 -0.74505805969E-08  0.93827000000E+00  0.93827000000E+00 0. -1.
     999902    2    1    2    0    0  0.10549429282E-02  0.19638317454E-01  0.12108908256E-01  0.10208345010E+01  0.10205732097E+01 0.  0.
     999903    2    3    3    0    0  0.11004455434E+00  0.53896361883E-02 -0.66660032167E-01  0.13050517633E+00  0.21194080351E-01 0.  0.
         14    1    1    2    0    0 -0.10549429282E-02 -0.19638317454E-01 -0.12108908256E-01  0.23095499045E-01  0.00000000000E+00 0. -1.
     999901    1    3    3    0    0 -0.10898961141E+00  0.14248681265E-01  0.78768940423E-01  0.89032932463E+00  0.88000000000E+00 0.  1.
        -11    1    4    4    0    0  0.93415193132E-01 -0.30707851996E-02 -0.53888833422E-01  0.10788927434E+00  0.51100000000E-03 0.  1.
         11    1    4    4    0    0  0.16629361208E-01  0.84604213879E-02 -0.12771198744E-01  0.22615901985E-01  0.51100000000E-03 0. -1.
</event>
<event>
 8    1  0.1063984E+005  0.1043930E+01  0.7957747E-01            NaN
         13   -1    0    0    0    0  0.00000000000E+00  0.00000000000E+00  0.74505805969E-08  0.10566000000E+00  0.10566000000E+00 0.  1.
     999900   -1    0    0    0    0 -0.00000000000E+00 -0.00000000000E+00 -0.74505805969E-08  0.93827000000E+00  0.93827000000E+00 0. -1.
     999902    2    1    2    0    0 -0.68387279122E-02 -0.83925730710E-02 -0.20504646524E-01  0.10207428481E+01  0.10204794550E+01 0.  0.
     999903    2    3    3    0    0  0.52508552319E-02 -0.64360797435E-02 -0.13188476661E+00  0.13363771512E+00  0.19911118414E-01 0.  0.
         14    1    1    2    0    0  0.68387279122E-02  0.83925730710E-02  0.20504646524E-01  0.23187151858E-01  0.00000000000E+00 0.  1.
     999901    1    3    3    0    0 -0.12089583144E-01 -0.19564933275E-02  0.11138012008E+00  0.88710513302E+00  0.88000000000E+00 0.  1.
        -11    1    4    4    0    0  0.10955447915E-01 -0.24345658712E-02 -0.11198390141E+00  0.11254600947E+00  0.51100000000E-03 0. -1.
         11    1    4    4    0    0 -0.57045926827E-02 -0.40015138723E-02 -0.19900865191E-01  0.21091705652E-01  0.51100000000E-03 0.  1.
</event>
<event>
 8    1  0.1063984E+005  0.1043930E+01  0.7957747E-01            NaN
         13   -1    0    0    0    0  0.00000000000E+00  0.00000000000E+00  0.74505805969E-08  0.10566000000E+00  0.10566000000E+00 0. -1.
     999900   -1    0    0    0    0 -0.00000000000E+00 -0.00000000000E+00 -0.74505805969E-08  0.93827000000E+00  0.93827000000E+00 0.  1.
     999902    2    1    2    0    0  0.22825667600E-01 -0.90762070676E-03 -0.72034998189E-02  0.10199774367E+01  0.10196961539E+01 0.  0.
     999903    2    3    3    0    0 -0.68711976630E-01 -0.10272777815E+00 -0.31040087617E-01  0.12907078188E+00  0.20529188000E-01 0.  0.
         14    1    1    2    0    0 -0.22825667600E-01  0.90762070676E-03  0.72034998189E-02  0.23952563252E-01  0.00000000000E+00 0. -1.
     999901    1    3    3    0    0  0.91537644230E-01  0.10182015744E+00  0.23836587798E-01  0.89090665487E+00  0.88000000000E+00 0. -1.
        -11    1    4    4    0    0 -0.39811513956E-01 -0.72654830651E-01 -0.14051792302E-01  0.84032107247E-01  0.51100000000E-03 0. -1.
         11    1    4    4    0    0 -0.28900462674E-01 -0.30072947496E-01 -0.16988295315E-01  0.45038674632E-01  0.51100000000E-03 0.  1.
</event>
<event>
 8    1  0.1063984E+005  0.1043930E+01  0.7957747E-01            NaN
         13   -1    0    0    0    0  0.00000000000E+00  0.00000000000E+00  0.74505805969E-08  0.10566000000E+00  0.10566000000E+00 0. -1.
     999900   -1    0    0    0    0 -0.00000000000E+00 -0.00000000000E+00 -0.74505805969E-08  0.93827000000E+00  0.93827000000E+00 0. -1.
     999902    2    1    2    0    0 -0.73468087269E-02 -0.17979022572E-01  0.14012653794E-01  0.10199805675E+01  0.10196993590E+01 0.  0.
     999903    2    3    3    0    0 -0.10500438068E+00  0.15206620687E-01 -0.71995151230E-01  0.12979203083E+00  0.20137233973E-01 0.  0.
         14    1    1    2    0    0  0.73468087269E-02  0.17979022572E-01 -0.14012653794E-01  0.23949432508E-01  0.00000000000E+00 0.  1.
     999901    1    3    3    0    0  0.97657571952E-01 -0.33185643259E-01  0.86007805024E-01  0.89018853666E+00  0.88000000000E+00 0.  1.
        -11    1    4    4    0    0 -0.52267284121E-01  0.17560854331E-01 -0.38958567420E-01  0.67515062694E-01  0.51100000000E-03 0. -1.
         11    1    4    4    0    0 -0.52737096557E-01 -0.23542336442E-02 -0.33036583810E-01  0.62276968136E-01  0.51100000000E-03 0.  1.
</event>
<event>
 8    1  0.1063984E+005  0.1043930E+01  0.7957747E-01            NaN
         13   -1    0    0    0    0  0.00000000000E+00  0.00000000000E+00  0.74505805969E-08  0.10566000000E+00  0.10566000000E+00 0.  1.
     999900   -1    0    0    0    0 -0.00000000000E+00 -0.00000000000E+00 -0.74505805969E-08  0.93827000000E+00  0.93827000000E+00 0.  1.
     999902    2    1    2    0    0 -0.19714502655E-01  0.74793000280E-02  0.87124059946E-02  0.10211153652E+01  0.10208604613E+01 0.  0.
     999903    2    3    3    0    0 -0.32172728718E-02  0.37116795688E-03 -0.12865848698E+00  0.13027674547E+00  0.20212261829E-01 0.  0.
         14    1    1    2    0    0  0.19714502655E-01 -0.74793000280E-02 -0.87124059946E-02  0.22814634822E-01  0.00000000000E+00 0.  1.
     999901    1    3    3    0    0 -0.16497229783E-01  0.71081320711E-02  0.13737089297E+00  0.89083861971E+00  0.88000000000E+00 0. -1.
        -11    1    4    4    0    0 -0.87659743495E-02 -0.16419619224E-02 -0.26870616050E-01  0.28316593601E-01  0.51100000000E-03 0.  1.
         11    1    4    4    0    0  0.55487014777E-02  0.20131298793E-02 -0.10178787093E+00  0.10196015187E+00  0.51100000000E-03 0. -1.
</event>
<event>
 8    1  0.1063984E+005  0.1043930E+01  0.7957747E-01            NaN
         13   -1    0    0    0    0  0.00000000000E+00  0.00000000000E+00  0.74505805969E-08  0.10566000000E+00  0.10566000000E+00 0.  1.
     999900   -1    0    0    0    0 -0.00000000000E+00 -0.00000000000E+00 -0.74505805969E-08  0.93827000000E+00  0.93827000000E+00 0.  1.
     999902    2    1    2    0    0  0.15903049957E-01 -0.69887383749E-02  0.15855717304E-01  0.10204107901E+01  0.10201397097E+01 0.  0.
     999903    2    3    3    0    0 -0.16396886267E-01 -0.53920765126E-01 -0.11420484325E+00  0.12902891324E+00  0.20722148515E-01 0.  0.
         14    1    1    2    0    0 -0.15903049957E-01  0.69887383749E-02 -0.15855717304E-01  0.23519209877E-01  0.00000000000E+00 0. -1.
     999901    1    3    3    0    0  0.32299936225E-01  0.46932026751E-01  0.13006056056E+00  0.89138187688E+00  0.88000000000E+00 0. -1.
        -11    1    4    4    0    0  0.36495514375E-02 -0.81776595172E-02 -0.27986895826E-01  0.29389127238E-01  0.51100000000E-03 0.  1.
         11    1    4    4    0    0 -0.20046437705E-01 -0.45743105609E-01 -0.86217947429E-01  0.99639786006E-01  0.51100000000E-03 0. -1.
</event>
<event>
 8    1  0.1063984E+005  0.1043930E+01  0.7957747E-01            NaN
         13   -1    0    0    0    0  0.00000000000E+00  0.00000000000E+00  0.74505805969E-08  0.10566000000E+00  0.10566000000E+00 0.  1.
     999900   -1    0    0    0    0 -0.00000000000E+00 -0.00000000000E+00 -0.74505805969E-08  0.93827000000E+00  0.93827000000E+00 0. -1.
     999902    2    1    2    0    0  0.14191901185E-01 -0.11965204904E-01  0.16942352789E-01  0.10187979586E+01  0.10184879287E+01 0.  0.
     999903    2    3    3    0    0 -0.63281117910E-01 -0.38562829935E-01  0.10538130637E+00  0.13058010757E+00  0.21315558276E-01 0.  0.
         14    1    1    2    0    0 -0.14191901185E-01  0.11965204904E-01 -0.16942352789E-01  0.25132041415E-01  0.00000000000E+00 0. -1.
     999901    1    3    3    0    0  0.77473019095E-01  0.26597625031E-01 -0.88438953584E-01  0.88821785101E+00  0.88000000000E+00 0. -1.
        -11    1    4    4    0    0 -0.56519224158E-01 -0.25412767282E-01  0.89647297756E-01  0.10898224881E+00  0.51100000000E-03 0.  1.
         11    1    4    4    0    0 -0.67618937516E-02 -0.13150062653E-01  0.15734008616E-01  0.21597858760E-01  0.51100000000E-03 0. -1.
</event>
<event>
 8    1  0.1063984E+005  0.1043930E+01  0.7957747E-01            NaN
         13   -1    0    0    0    0  0.00000000000E+00  0.00000000000E+00  0.74505805969E-08  0.10566000000E+00  0.10566000000E+00 0.  1.
     999900   -1    0    0    0    0 -0.00000000000E+00 -0.00000000000E+00 -0.74505805969E-08  0.93827000000E+00  0.93827000000E+00 0.  1.
     999902    2    1    2    0    0  0.16394608067E-01 -0.17272127840E-01  0.77274616698E-02  0.10188935618E+01  0.10185859154E+01 0.  0.
     999903    2    3    3    0    0 -0.12162224331E+00 -0.29617619367E-01  0.21056159608E-01  0.12795096174E+00  0.16090783307E-01 0.  0.
         14    1    1    2    0    0 -0.16394608067E-01  0.17272127840E-01 -0.77274616698E-02  0.25036438198E-01  0.00000000000E+00 0.  1.
     999901    1    3    3    0    0  0.13801685137E+00  0.12345491527E-01 -0.13328697938E-01  0.89094260007E+00  0.88000000000E+00 0. -1.
        -11    1    4    4    0    0 -0.62636271603E-01 -0.16720410182E-01  0.28907248947E-02  0.64896009495E-01  0.51100000000E-03 0.  1.
         11    1    4    4    0    0 -0.58985971704E-01 -0.12897209185E-01  0.18165434713E-01  0.63054952240E-01  0.51100000000E-03 0. -1.
</event>
<event>
 8    1  0.1063984E+005  0.1043930E+01  0.7957747E-01            NaN
         13   -1    0    0    0    0  0.00000000000E+00  0.00000000000E+00  0.74505805969E-08  0.10566000000E+00  0.10566000000E+00 0. -1.
     999900   -1    0    0    0    0 -0.00000000000E+00 -0.00000000000E+00 -0.74505805969E-08  0.93827000000E+00  0.93827000000E+00 0.  1.
     999902    2    1    2    0    0  0.23066471366E-01  0.98492669816E-02  0.17855448006E-02  0.10187852524E+01  0.10184749050E+01 0.  0.
     999903    2    3    3    0    0  0.95287157736E-01  0.65095433433E-01 -0.61042570010E-01  0.13187187532E+00  0.18626278827E-01 0.  0.
         14    1    1    2    0    0 -0.23066471366E-01 -0.98492669816E-02 -0.17855448006E-02  0.25144747595E-01  0.00000000000E+00 0. -1.
     999901    1    3    3    0    0 -0.72220686370E-01 -0.55246166451E-01  0.62828114811E-01  0.88691337709E+00  0.88000000000E+00 0. -1.
        -11    1    4    4    0    0  0.22630032331E-01  0.15406464753E-01 -0.59253552396E-02  0.28015147246E-01  0.51100000000E-03 0.  1.
         11    1    4    4    0    0  0.72657125405E-01  0.49688968680E-01 -0.55117214770E-01  0.10385672807E+00  0.51100000000E-03 0. -1.
</event>
<event>
 8    1  0.1063984E+005  0.1043930E+01  0.7957747E-01            NaN
         13   -1    0    0    0    0  0.00000000000E+00  0.00000000000E+00  0.74505805969E-08  0.10566000000E+00  0.10566000000E+00 0.  1.
     999900   -1    0    0    0    0 -0.00000000000E+00 -0.00000000000E+00 -0.74505805969E-08  0.93827000000E+00  0.93827000000E+00 0.  1.
     999902    2    1    2    0    0  0.20257203293E-01  0.57751070735E-02 -0.96215665829E-02  0.10207722650E+01  0.10205095474E+01 0.  0.
     999903    2    3    3    0    0  0.87198863014E-01 -0.93923286837E-01 -0.26659018576E-01  0.13245293597E+00  0.20195332483E-01 0.  0.
         14    1    1    2    0    0 -0.20257203293E-01 -0.57751070735E-02  0.96215665829E-02  0.23157735003E-01  0.00000000000E+00 0.  1.
     999901    1    3    3    0    0 -0.66941659720E-01  0.99698393911E-01  0.17037451993E-01  0.88831932903E+00  0.88000000000E+00 0. -1.
        -11    1    4    4    0    0  0.53409794656E-01 -0.64009608845E-01 -0.25963833145E-01  0.87316767818E-01  0.51100000000E-03 0. -1.
         11    1    4    4    0    0  0.33789068358E-01 -0.29913677992E-01 -0.69518543108E-03  0.45136168150E-01  0.51100000000E-03 0.  1.
</event>
<event>
 8    1  0.1063984E+005  0.1043930E+01  0.7957747E-01            NaN
         13   -1    0    0    0    0  0.00000000000E+00  0.00000000000E+00  0.74505805969E-08  0.10566000000E+00  0.10566000000E+00 0.  1.
     999900   -1    0    0    0    0 -0.00000000000E+00 -0.00000000000E+00 -0.74505805969E-08  0.93827000000E+00  0.93827000000E+00 0. -1.
     999902    2    1    2    0    0 -0.26809130086E-02  0.78727654217E-02  0.23129494147E-01  0.10193507154E+01  0.10190543361E+01 0.  0.
     999903    2    3    3    0    0  0.84870831560E-01 -0.55151575513E-01 -0.75091121689E-01  0.12733913205E+00  0.18216027656E-01 0.  0.
         14    1    1    2    0    0  0.26809130086E-02 -0.78727654217E-02 -0.23129494147E-01  0.24579284559E-01  0.00000000000E+00 0. -1.
     999901    1    3    3    0    0 -0.87551744569E-01  0.63024340934E-01  0.98220615836E-01  0.89201158339E+00  0.88000000000E+00 0.  1.
        -11    1    4    4    0    0  0.16499165428E-01 -0.11211623125E-01 -0.24526117131E-01  0.31618262056E-01  0.51100000000E-03 0. -1.
         11    1    4    4    0    0  0.68371666132E-01 -0.43939952388E-01 -0.50565004558E-01  0.95720869994E-01  0.51100000000E-03 0.  1.
</event>
<event>
 8    1  0.1063984E+005  0.1043930E+01  0.7957747E-01            NaN
         13   -1    0    0    0    0  0.00000000000E+00  0.00000000000E+00  0.74505805969E-08  0.10566000000E+00  0.10566000000E+00 0.  1.
     999900   -1    0    0    0    0 -0.00000000000E+00 -0.00000000000E+00 -0.74505805969E-08  0.93827000000E+00  0.93827000000E+00 0.  1.
     999902    2    1    2    0    0 -0.17114165284E-01 -0.10713290900E-01 -0.54829340368E-02  0.10230079585E+01  0.10227939926E+01 0.  0.
     999903    2    3    3    0    0  0.98773937385E-01 -0.79239424674E-01 -0.32687618921E-01  0.13235315542E+00  0.20339621186E-01 0.  0.
         14    1    1    2    0    0  0.17114165284E-01  0.10713290900E-01  0.54829340368E-02  0.20922041509E-01  0.00000000000E+00 0.  1.
     999901    1    3    3    0    0 -0.11588810267E+00  0.68526133774E-01  0.27204684885E-01  0.89065480307E+00  0.88000000000E+00 0.  1.
        -11    1    4    4    0    0  0.64109719749E-01 -0.38868996748E-01 -0.21206050289E-01  0.77915420582E-01  0.51100000000E-03 0.  1.
         11    1    4    4    0    0  0.34664217636E-01 -0.40370427926E-01 -0.11481568632E-01  0.54437734840E-01  0.51100000000E-03 0. -1.
</event>
<event>
 8    1  0.1063984E+005  0.1043930E+01  0.7957747E-01            NaN
         13   -1    0    0    0    0  0.00000000000E+00  0.00000000000E+00  0.74505805969E-08  0.10566000000E+00  0.10566000000E+00 0. -1.
     999900   -1    0    0    0    0 -0.00000000000E+00 -0.00000000000E+00 -0.74505805969E-08  0.93827000000E+00  0.93827000000E+00 0.  1.
     999902    2    1    2    0    0  0.50215598059E-02  0.15150358034E-01  0.18326508442E-01  0.10196275243E+01  0.10193378626E+01 0.  0.
     999903    2    3    3    0    0 -0.48230868592E-01  0.90273546575E-01 -0.76956224459E-01  0.12970723927E+00  0.20644067933E-01 0.  0.
         14    1    1    2    0    0 -0.50215598059E-02 -0.15150358034E-01 -0.18326508442E-01  0.24302475658E-01  0.00000000000E+00 0.  1.
     999901    1    3    3    0    0  0.53252428398E-01 -0.75123188541E-01  0.95282732901E-01  0.88992028507E+00  0.88000000000E+00 0. -1.
        -11    1    4    4    0    0 -0.36838934294E-01  0.48001755341E-01 -0.47674715237E-01  0.77035155544E-01  0.51100000000E-03 0.  1.
         11    1    4    4    0    0 -0.11391934298E-01  0.42271791234E-01 -0.29281509221E-01  0.52672083730E-01  0.51100000000E-03 0. -1.
</event>
<event>
 8    1  0.1063984E+005  0.1043930E+01  0.7957747E-01            NaN
         13   -1    0    0    0    0  0.00000000000E+00  0.00000000000E+00  0.74505805969E-08  0.10566000000E+00  0.10566000000E+00 0. -1.
     999900   -1    0    0    0    0 -0.00000000000E+00 -0.00000000000E+00 -0.74505805969E-08  0.93827000000E+00  0.93827000000E+00 0.  1.
     999902    2    1    2    0    0 -0.22705228849E-01 -0.33504429531E-02  0.23914129193E-02  0.10208546508E+01  0.10205938204E+01 0.  0.
     999903    2    3    3    0    0  0.90243107662E-01  0.43717862110E-01  0.78892387371E-01  0.12910067623E+00  0.19695326105E-01 0.  0.
         14    1    1    2    0    0  0.22705228849E-01  0.33504429531E-02 -0.23914129193E-02  0.23075349203E-01  0.00000000000E+00 0.  1.
     999901    1    3    3    0    0 -0.11294833651E+00 -0.47068305063E-01 -0.76500974452E-01  0.89175397457E+00  0.88000000000E+00 0. -1.
        -11    1    4    4    0    0  0.64202418372E-01  0.24511566213E-01  0.62178738852E-01  0.92678066927E-01  0.51100000000E-03 0. -1.
         11    1    4    4    0    0  0.26040689289E-01  0.19206295897E-01  0.16713648519E-01  0.36422609305E-01  0.51100000000E-03 0.  1.
</event>
<event>
 8    1  0.1063984E+005  0.1043930E+01  0.7957747E-01            NaN
         13   -1    0    0    0    0  0.00000000000E+00  0.00000000000E+00  0.74505805969E-08  0.10566000000E+00  0.10566000000E+00 0. -1.
     999900   -1    0    0    0    0 -0.00000000000E+00 -0.00000000000E+00 -0.74505805969E-08  0.93827000000E+00  0.93827000000E+00 0. -1.
     999902    2    1    2    0    0 -0.46396923949E-02  0.16949843456E-01 -0.18332349579E-01  0.10185351387E+01  0.10182185079E+01 0.  0.
     999903    2    3    3    0    0  0.52661890954E-01 -0.11088895521E-01  0.11277735397E+00  0.12653771904E+00  0.19920452028E-01 0.  0.
         14    1    1    2    0    0  0.46396923949E-02 -0.16949843456E-01  0.18332349579E-01  0.25394861287E-01  0.00000000000E+00 0. -1.
     999901    1    3    3    0    0 -0.57301583349E-01  0.28038738976E-01 -0.13110970355E+00  0.89199741967E+00  0.88000000000E+00 0. -1.
        -11    1    4    4    0    0  0.43705655930E-01 -0.12438616854E-01  0.75061472416E-01  0.87746164086E-01  0.51100000000E-03 0.  1.
         11    1    4    4    0    0  0.89562350244E-02  0.13497213339E-02  0.37715881553E-01  0.38791554955E-01  0.51100000000E-03 0. -1.
</event>
<event>
 8    1  0.1063984E+005  0.1043930E+01  0.7957747E-01            NaN
         13   -1    0    0    0    0  0.00000000000E+00  0.00000000000E+00  0.74505805969E-08  0.10566000000E+00  0.10566000000E+00 0. -1.
     999900   -1    0    0    0    0 -0.00000000000E+00 -0.00000000000E+00 -0.74505805969E-08  0.93827000000E+00  0.93827000000E+00 0.  1.
     999902    2    1    2    0    0 -0.82210884053E-02  0.14986761554E-01 -0.13522230513E-01  0.10221345868E+01  0.10219021840E+01 0.  0.
     999903    2    3    3    0    0 -0.10342700399E+00 -0.77192381140E-01  0.93145405670E-02  0.13191962470E+00  0.25694704820E-01 0.  0.
         14    1    1    2    0    0  0.82210884053E-02 -0.14986761554E-01  0.13522230513E-01  0.21795413153E-01  0.00000000000E+00 0.  1.
     999901    1    3    3    0    0  0.95205915584E-01  0.92179142694E-01 -0.22836771081E-01  0.89021496214E+00  0.88000000000E+00 0.  1.
        -11    1    4    4    0    0 -0.20908748694E-01 -0.50970506351E-02 -0.26548132027E-02  0.21690201734E-01  0.51100000000E-03 0.  1.
         11    1    4    4    0    0 -0.82518255295E-01 -0.72095330505E-01  0.11969353770E-01  0.11022942297E+00  0.51100000000E-03 0. -1.
</event>
<event>
 8    1  0.1063984E+005  0.1043930E+01  0.7957747E-01            NaN
         13   -1    0    0    0    0  0.00000000000E+00  0.00000000000E+00  0.74505805969E-08  0.10566000000E+00  0.10566000000E+00 0. -1.
     999900   -1    0    0    0    0 -0.00000000000E+00 -0.00000000000E+00 -0.74505805969E-08  0.93827000000E+00  0.93827000000E+00 0. -1.
     999902    2    1    2    0    0  0.10254578975E-01 -0.13567367675E-01 -0.16880371868E-01  0.10199680132E+01  0.10196865063E+01 0.  0.
     999903    2    3    3    0    0  0.35454177858E-01  0.75362411278E-01 -0.99904483164E-01  0.13124053620E+00  0.17512304961E-01 0.  0.
         14    1    1    2    0    0 -0.10254578975E-01  0.13567367675E-01  0.16880371868E-01  0.23961986770E-01  0.00000000000E+00 0. -1.
     999901    1    3    3    0    0 -0.25199598884E-01 -0.88929778953E-01  0.83024111296E-01  0.88872747703E+00  0.88000000000E+00 0.  1.
        -11    1    4    4    0    0  0.15569434580E-01  0.48193285900E-01 -0.68543494454E-01  0.85226004552E-01  0.51100000000E-03 0. -1.
         11    1    4    4    0    0  0.19884743279E-01  0.27169125378E-01 -0.31360988710E-01  0.46014531650E-01  0.51100000000E-03 0.  1.
</event>
<event>
 8    1  0.1063984E+005  0.1043930E+01  0.7957747E-01            NaN
         13   -1    0    0    0    0  0.00000000000E+00  0.00000000000E+00  0.74505805969E-08  0.10566000000E+00  0.10566000000E+00 0.  1.
     999900   -1    0    0    0    0 -0.00000000000E+00 -0.00000000000E+00 -0.74505805969E-08  0.93827000000E+00  0.93827000000E+00 0.  1.
     999902    2    1    2    0    0  0.18127299333E-01 -0.32258838160E-02  0.95973999938E-02  0.10231666815E+01  0.10229559828E+01 0.  0.
     999903    2    3    3    0    0 -0.57121282996E-01 -0.43531409960E-01  0.11043127119E+00  0.13330469551E+00  0.20426736495E-01 0.  0.
         14    1    1    2    0    0 -0.18127299333E-01  0.32258838160E-02 -0.95973999938E-02  0.20763318476E-01  0.00000000000E+00 0. -1.
     999901    1    3    3    0    0  0.75248582329E-01  0.40305526144E-01 -0.10083387119E+00  0.88986198602E+00  0.88000000000E+00 0.  1.
        -11    1    4    4    0    0 -0.20412308203E-01 -0.45069153075E-02  0.26988398736E-01  0.34141022233E-01  0.51100000000E-03 0.  1.
         11    1    4    4    0    0 -0.36708974793E-01 -0.39024494653E-01  0.83442872450E-01  0.99163673272E-01  0.51100000000E-03 0. -1.
</event>
<event>
 8    1  0.1063984E+005  0.1043930E+01  0.7957747E-01            NaN
         13   -1    0    0    0    0  0.00000000000E+00  0.00000000000E+00  0.74505805969E-08  0.10566000000E+00  0.10566000000E+00 0. -1.
     999900   -1    0    0    0    0 -0.00000000000E+00 -0.00000000000E+00 -0.74505805969E-08  0.93827000000E+00  0.93827000000E+00 0. -1.
     999902    2    1    2    0    0 -0.18869203546E-02 -0.51059344656E-02 -0.22628658892E-01  0.10206558246E+01  0.10203904278E+01 0.  0.
     999903    2    3    3    0    0  0.17354166619E-01 -0.11621196859E+00 -0.58304060702E-01  0.13274394583E+00  0.20376528585E-01 0.  0.
         14    1    1    2    0    0  0.18869203546E-02  0.51059344656E-02  0.22628658892E-01  0.23274175354E-01  0.00000000000E+00 0.  1.
     999901    1    3    3    0    0 -0.19241086974E-01  0.11110603413E+00  0.35675401811E-01  0.88791187882E+00  0.88000000000E+00 0.  1.
        -11    1    4    4    0    0  0.37285889145E-02 -0.62461470215E-01 -0.40353041489E-01  0.74457818361E-01  0.51100000000E-03 0.  1.
         11    1    4    4    0    0  0.13625577705E-01 -0.53750498377E-01 -0.17951019213E-01  0.58286127469E-01  0.51100000000E-03 0. -1.
</event>
<event>
 8    1  0.1106134E+005  0.1043930E+01  0.7957747E-01            NaN
         13   -1    0    0    0    0  0.00000000000E+00  0.00000000000E+00  0.74505805969E-08  0.10566000000E+00  0.10566000000E+00 0. -1.
     999900   -1    0    0    0    0 -0.00000000000E+00 -0.00000000000E+00 -0.74505805969E-08  0.93827000000E+00  0.93827000000E+00 0.  1.
     999902    2    1    2    0    0 -0.61812828652E-02  0.13740202600E-02  0.23878416531E-01  0.10192262560E+01  0.10189268306E+01 0.  0.
     999903    2    3    3    0    0  0.50219941062E-01  0.87566307442E-01  0.81467038336E-01  0.13134864184E+00  0.20632176325E-01 0.  0.
         14    1    1    2    0    0  0.61812828652E-02 -0.13740202600E-02 -0.23878416531E-01  0.24703743959E-01  0.00000000000E+00 0.  1.
     999901    1    3    3    0    0 -0.56401223927E-01 -0.86192287182E-01 -0.57588621805E-01  0.88787761420E+00  0.88000000000E+00 0.  1.
        -11    1    4    4    0    0  0.32614627835E-01  0.36302080047E-01  0.37222329870E-01  0.61378480972E-01  0.51100000000E-03 0.  1.
         11    1    4    4    0    0  0.17605313227E-01  0.51264227395E-01  0.44244708466E-01  0.69970160872E-01  0.51100000000E-03 0. -1.
</event>
<event>
 8    1  0.1063984E+005  0.1043930E+01  0.7957747E-01            NaN
         13   -1    0    0    0    0  0.00000000000E+00  0.00000000000E+00  0.74505805969E-08  0.10566000000E+00  0.10566000000E+00 0. -1.
     999900   -1    0    0    0    0 -0.00000000000E+00 -0.00000000000E+00 -0.74505805969E-08  0.93827000000E+00  0.93827000000E+00 0.  1.
     999902    2    1    2    0    0 -0.14837821047E-01  0.16096157923E-01 -0.82103570040E-02  0.10205492987E+01  0.10202814385E+01 0.  0.
     999903    2    3    3    0    0 -0.51307814709E-01  0.31133377179E-02 -0.12063144919E+00  0.13255317477E+00  0.19396208065E-01 0.  0.
         14    1    1    2    0    0  0.14837821047E-01 -0.16096157923E-01  0.82103570040E-02  0.23380701346E-01  0.00000000000E+00 0. -1.
     999901    1    3    3    0    0  0.36469993662E-01  0.12982820205E-01  0.11242109219E+00  0.88799612388E+00  0.88000000000E+00 0. -1.
        -11    1    4    4    0    0 -0.48696288114E-01  0.13601330356E-02 -0.95382972620E-01  0.10710439312E+00  0.51100000000E-03 0.  1.
         11    1    4    4    0    0 -0.26115265948E-02  0.17532046823E-02 -0.25248476569E-01  0.25448781658E-01  0.51100000000E-03 0. -1.
</event>
<event>
 8    1  0.1063984E+005  0.1043930E+01  0.7957747E-01            NaN
         13   -1    0    0    0    0  0.00000000000E+00  0.00000000000E+00  0.74505805969E-08  0.10566000000E+00  0.10566000000E+00 0.  1.
     999900   -1    0    0    0    0 -0.00000000000E+00 -0.00000000000E+00 -0.74505805969E-08  0.93827000000E+00  0.93827000000E+00 0.  1.
     999902    2    1    2    0    0 -0.46752574553E-02  0.53582236824E-02  0.21952505689E-01  0.10208544480E+01  0.10205936130E+01 0.  0.
     999903    2    3    3    0    0  0.24783800079E-02 -0.99359274227E-01  0.84777246151E-01  0.13239292555E+00  0.21501105255E-01 0.  0.
         14    1    1    2    0    0  0.46752574553E-02 -0.53582236824E-02 -0.21952505689E-01  0.23075551983E-01  0.00000000000E+00 0. -1.
     999901    1    3    3    0    0 -0.71536374633E-02  0.10471749791E+00 -0.62824740462E-01  0.88846152247E+00  0.88000000000E+00 0.  1.
        -11    1    4    4    0    0  0.30353075840E-02 -0.79749855812E-01  0.55742987683E-01  0.97348828401E-01  0.51100000000E-03 0. -1.
         11    1    4    4    0    0 -0.55692757606E-03 -0.19609418415E-01  0.29034258469E-01  0.35044097145E-01  0.51100000000E-03 0.  1.
</event>
<event>
 8    1  0.1063984E+005  0.1043930E+01  0.7957747E-01            NaN
         13   -1    0    0    0    0  0.00000000000E+00  0.00000000000E+00  0.74505805969E-08  0.10566000000E+00  0.10566000000E+00 0.  1.
     999900   -1    0    0    0    0 -0.00000000000E+00 -0.00000000000E+00 -0.74505805969E-08  0.93827000000E+00  0.93827000000E+00 0.  1.
     999902    2    1    2    0    0  0.18010196501E-01  0.60771213726E-02  0.13039960907E-01  0.10208792047E+01  0.10206189355E+01 0.  0.
     999903    2    3    3    0    0 -0.68366154615E-01 -0.10715926319E+00 -0.10090290622E-01  0.12912903716E+00  0.20382725266E-01 0.  0.
         14    1    1    2    0    0 -0.18010196501E-01 -0.60771213726E-02 -0.13039960907E-01  0.23050795271E-01  0.00000000000E+00 0.  1.
     999901    1    3    3    0    0  0.86376351116E-01  0.11323638456E+00  0.23130251529E-01  0.89175016757E+00  0.88000000000E+00 0.  1.
        -11    1    4    4    0    0 -0.32630483577E-01 -0.60852190616E-01  0.32691696190E-02  0.69128041721E-01  0.51100000000E-03 0. -1.
         11    1    4    4    0    0 -0.35735671039E-01 -0.46307072573E-01 -0.13359460241E-01  0.60000995440E-01  0.51100000000E-03 0.  1.
</event>
<event>
 8    1  0.1063984E+005  0.1043930E+01  0.7957747E-01            NaN
         13   -1    0    0    0    0  0.00000000000E+00  0.00000000000E+00  0.74505805969E-08  0.10566000000E+00  0.10566000000E+00 0.  1.
     999900   -1    0    0    0    0 -0.00000000000E+00 -0.00000000000E+00 -0.74505805969E-08  0.93827000000E+00  0.93827000000E+00 0. -1.
     999902    2    1    2    0    0 -0.60663572305E-02  0.27077718147E-03 -0.22394766201E-01  0.10207265614E+01  0.10204627938E+01 0.  0.
     999903    2    3    3    0    0  0.31855358256E-01  0.12201953725E+00 -0.31241362836E-01  0.13149145223E+00  0.20259514747E-01 0.  0.
         14    1    1    2    0    0  0.60663572305E-02 -0.27077718147E-03  0.22394766201E-01  0.23203438615E-01  0.00000000000E+00 0.  1.
     999901    1    3    3    0    0 -0.37921715486E-01 -0.12174876007E+00  0.88465966344E-02  0.88923510916E+00  0.88000000000E+00 0.  1.
        -11    1    4    4    0    0  0.23825360663E-01  0.51555603529E-01 -0.13188399141E-01  0.58308001670E-01  0.51100000000E-03 0. -1.
         11    1    4    4    0    0  0.80299975926E-02  0.70463933719E-01 -0.18052963695E-01  0.73183450559E-01  0.51100000000E-03 0.  1.
</event>
<event>
 8    1  0.1063984E+005  0.1043930E+01  0.7957747E-01            NaN
         13   -1    0    0    0    0  0.00000000000E+00  0.00000000000E+00  0.74505805969E-08  0.10566000000E+00  0.10566000000E+00 0.  1.
     999900   -1    0    0    0    0 -0.00000000000E+00 -0.00000000000E+00 -0.74505805969E-08  0.93827000000E+00  0.93827000000E+00 0.  1.
     999902    2    1    2    0    0 -0.20281336175E-01  0.11485715821E-01 -0.78060407943E-03  0.10206091165E+01  0.10203426410E+01 0.  0.
     999903    2    3    3    0    0  0.72130796983E-01  0.10071230512E+00 -0.36706949705E-01  0.13055738265E+00  0.18761922400E-01 0.  0.
         14    1    1    2    0    0  0.20281336175E-01 -0.11485715821E-01  0.78060407943E-03  0.23320883510E-01  0.00000000000E+00 0. -1.
     999901    1    3    3    0    0 -0.92412133157E-01 -0.89226589304E-01  0.35926345626E-01  0.89005173384E+00  0.88000000000E+00 0. -1.
        -11    1    4    4    0    0  0.63663213914E-01  0.85470157164E-01 -0.37796692171E-01  0.11307963403E+00  0.51100000000E-03 0. -1.
         11    1    4    4    0    0  0.84675830685E-02  0.15242147961E-01  0.10897424652E-02  0.17477748628E-01  0.51100000000E-03 0.  1.
</event>
<event>
 8    1  0.1063984E+005  0.1043930E+01  0.7957747E-01            NaN
         13   -1    0    0    0    0  0.00000000000E+00  0.00000000000E+00  0.74505805969E-08  0.10566000000E+00  0.10566000000E+00 0.  1.
     999900   -1    0    0    0    0 -0.00000000000E+00 -0.00000000000E+00 -0.74505805969E-08  0.93827000000E+00  0.93827000000E+00 0.  1.
     999902    2    1    2    0    0 -0.17103873587E-01  0.12524391282E-01  0.98725463597E-02  0.10205447474E+01  0.10202767817E+01 0.  0.
     999903    2    3    3    0    0 -0.77338657607E-01  0.10497799128E+00 -0.19122128966E-01  0.13317977818E+00  0.19223706387E-01 0.  0.
         14    1    1    2    0    0  0.17103873587E-01 -0.12524391282E-01 -0.98725463597E-02  0.23385252624E-01  0.00000000000E+00 0.  1.
     999901    1    3    3    0    0  0.60234784021E-01 -0.92453599994E-01  0.28994675325E-01  0.88736496920E+00  0.88000000000E+00 0. -1.
        -11    1    4    4    0    0 -0.59627382312E-01  0.91377730631E-01 -0.19493139382E-01  0.11084023629E+00  0.51100000000E-03 0.  1.
         11    1    4    4    0    0 -0.17711275296E-01  0.13600260645E-01  0.37101041602E-03  0.22339541892E-01  0.51100000000E-03 0. -1.
</event>
<event>
 8    1  0.1063984E+005  0.1043930E+01  0.7957747E-01            NaN
         13   -1    0    0    0    0  0.00000000000E+00  0.00000000000E+00  0.74505805969E-08  0.10566000000E+00  0.10566000000E+00 0.  1.
     999900   -1    0    0    0    0 -0.00000000000E+00 -0.00000000000E+00 -0.74505805969E-08  0.93827000000E+00  0.93827000000E+00 0.  1.
     999902    2    1    2    0    0  0.19135073628E-01 -0.13154428065E-01  0.43897537863E-02  0.10202982426E+01  0.10200245310E+01 0.  0.
     999903    2    3    3    0    0 -0.93747949098E-01  0.62359928690E-01 -0.56961137529E-01  0.12776873228E+00  0.20070851819E-01 0.  0.
         14    1    1    2    0    0 -0.19135073628E-01  0.13154428065E-01 -0.43897537863E-02  0.23631757420E-01  0.00000000000E+00 0.  1.
     999901    1    3    3    0    0  0.11288302273E+00 -0.75514356756E-01  0.61350891315E-01  0.89252951030E+00  0.88000000000E+00 0. -1.
        -11    1    4    4    0    0 -0.98110313293E-02  0.48474879007E-02  0.40045683459E-03  0.10962479709E-01  0.51100000000E-03 0. -1.
         11    1    4    4    0    0 -0.83936917769E-01  0.57512440790E-01 -0.57361594363E-01  0.11680625257E+00  0.51100000000E-03 0.  1.
</event>
<event>
 8    1  0.1063984E+005  0.1043930E+01  0.7957747E-01            NaN
         13   -1    0    0    0    0  0.00000000000E+00  0.00000000000E+00  0.74505805969E-08  0.10566000000E+00  0.10566000000E+00 0. -1.
     999900   -1    0    0    0    0 -0.00000000000E+00 -0.00000000000E+00 -0.74505805969E-08  0.93827000000E+00  0.93827000000E+00 0.  1.
     999902    2    1    2    0    0  0.17622078298E-01 -0.36825505109E-02 -0.83376699846E-02  0.10240902530E+01  0.10238980568E+01 0.  0.
     999903    2    3    3    0    0 -0.98539098759E-01 -0.56613833423E-01 -0.66652153062E-01  0.13296976801E+00  0.17982479732E-01 0.  0.
         14    1    1    2    0    0 -0.17622078298E-01  0.36825505109E-02  0.83376699846E-02  0.19839747039E-01  0.00000000000E+00 0. -1.
     999901    1    3    3    0    0  0.11616117706E+00  0.52931282912E-01  0.58314483077E-01  0.89112048495E+00  0.88000000000E+00 0. -1.
        -11    1    4    4    0    0 -0.45087129178E-01 -0.33701902207E-01 -0.25967194498E-01  0.61993739531E-01  0.51100000000E-03 0. -1.
         11    1    4    4    0    0 -0.53451969581E-01 -0.22911931216E-01 -0.40684958564E-01  0.70976028478E-01  0.51100000000E-03 0.  1.
</event>
<event>
 8    1  0.1063984E+005  0.1043930E+01  0.7957747E-01            NaN
         13   -1    0    0    0    0  0.00000000000E+00  0.00000000000E+00  0.74505805969E-08  0.10566000000E+00  0.10566000000E+00 0. -1.
     999900   -1    0    0    0    0 -0.00000000000E+00 -0.00000000000E+00 -0.74505805969E-08  0.93827000000E+00  0.93827000000E+00 0. -1.
     999902    2    1    2    0    0 -0.28819224680E-01 -0.15896852946E-01 -0.11839861104E-02  0.10109958313E+01  0.10104592577E+01 0.  0.
     999903    2    3    3    0    0 -0.96792260903E-01 -0.78638845921E-01 -0.46799964097E-03  0.12614702841E+00  0.18974822671E-01 0.  0.
         14    1    1    2    0    0  0.28819224680E-01  0.15896852946E-01  0.11839861104E-02  0.32934168698E-01  0.00000000000E+00 0.  1.
     999901    1    3    3    0    0  0.67973036223E-01  0.62741992975E-01 -0.71598646942E-03  0.88484880289E+00  0.88000000000E+00 0. -1.
        -11    1    4    4    0    0 -0.20123626725E-01 -0.21977542213E-01  0.66844659840E-02  0.30543672353E-01  0.51100000000E-03 0. -1.
         11    1    4    4    0    0 -0.76668634178E-01 -0.56661303708E-01 -0.71524656250E-02  0.95603356061E-01  0.51100000000E-03 0.  1.
</event>
<event>
 8    1  0.1063984E+005  0.1043930E+01  0.7957747E-01            NaN
         13   -1    0    0    0    0  0.00000000000E+00  0.00000000000E+00  0.74505805969E-08  0.10566000000E+00  0.10566000000E+00 0. -1.
     999900   -1    0    0    0    0 -0.00000000000E+00 -0.00000000000E+00 -0.74505805969E-08  0.93827000000E+00  0.93827000000E+00 0.  1.
     999902    2    1    2    0    0  0.19753605105E-01 -0.11775511389E-01 -0.60583080107E-02  0.10201482701E+01  0.10198710322E+01 0.  0.
     999903    2    3    3    0    0  0.12704082734E-02  0.33792788941E-01  0.12323466595E+00  0.12934258324E+00  0.19978849439E-01 0.  0.
         14    1    1    2    0    0 -0.19753605105E-01  0.11775511389E-01  0.60583080107E-02  0.23781729942E-01  0.00000000000E+00 0.  1.
     999901    1    3    3    0    0  0.18483196831E-01 -0.45568300330E-01 -0.12929297396E+00  0.89080568682E+00  0.88000000000E+00 0. -1.
        -11    1    4    4    0    0  0.42018269792E-02  0.20744710078E-02  0.49189154172E-02  0.68129017171E-02  0.51100000000E-03 0. -1.
         11    1    4    4    0    0 -0.29314187058E-02  0.31718317933E-01  0.11831575053E+00  0.12252968152E+00  0.51100000000E-03 0.  1.
</event>
<event>
 7    1  0.1063984E+005  0.1043930E+01  0.7957747E-01            NaN
         13   -1    0    0    0    0  0.00000000000E+00  0.00000000000E+00  0.74505805969E-08  0.10566000000E+00  0.10566000000E+00 0. -1.
     999900   -1    0    0    0    0 -0.00000000000E+00 -0.00000000000E+00 -0.74505805969E-08  0.93827000000E+00  0.93827000000E+00 0. -1.
     999903    2    1    2    0    0 -0.51341155399E-01  0.31713608341E-01 -0.89702222403E-01  0.10989236665E+00  0.19702191560E-01 0.  0.
         14    1    1    2    0    0  0.46614045861E-01  0.32504704724E-03  0.19882718320E-01  0.50678372260E-01  0.00000000000E+00 0.  1.
     999901    1    1    2    0    0  0.47271095389E-02 -0.32038655388E-01  0.69819504082E-01  0.88335926109E+00  0.88000000000E+00 0.  1.
        -11    1    3    3    0    0 -0.40292361776E-01  0.15563936922E-01 -0.68960705997E-01  0.81372910988E-01  0.51100000000E-03 0.  1.
         11    1    3    3    0    0 -0.11048793623E-01  0.16149671419E-01 -0.20741516405E-01  0.28519455662E-01  0.51100000000E-03 0. -1.
</event>
<event>
 8    1  0.1063984E+005  0.1043930E+01  0.7957747E-01            NaN
         13   -1    0    0    0    0  0.00000000000E+00  0.00000000000E+00  0.74505805969E-08  0.10566000000E+00  0.10566000000E+00 0.  1.
     999900   -1    0    0    0    0 -0.00000000000E+00 -0.00000000000E+00 -0.74505805969E-08  0.93827000000E+00  0.93827000000E+00 0. -1.
     999902    2    1    2    0    0 -0.69671645342E-02  0.80439185085E-02  0.23712661311E-01  0.10179389186E+01  0.10176070487E+01 0.  0.
     999903    2    3    3    0    0  0.57151881560E-01 -0.10226243430E+00  0.48493165758E-01  0.12839250780E+00  0.20226366417E-01 0.  0.
         14    1    1    2    0    0  0.69671645342E-02 -0.80439185085E-02 -0.23712661311E-01  0.25991081414E-01  0.00000000000E+00 0. -1.
     999901    1    3    3    0    0 -0.64119046094E-01  0.11030635281E+00 -0.24780504446E-01  0.88954641079E+00  0.88000000000E+00 0.  1.
        -11    1    4    4    0    0  0.35919193170E-01 -0.57364660497E-01  0.17724850253E-01  0.69966593096E-01  0.51100000000E-03 0.  1.
         11    1    4    4    0    0  0.21232688390E-01 -0.44897773805E-01  0.30768315504E-01  0.58425914703E-01  0.51100000000E-03 0. -1.
</event>
<event>
 8    1  0.1063984E+005  0.1043930E+01  0.7957747E-01            NaN
         13   -1    0    0    0    0  0.00000000000E+00  0.00000000000E+00  0.74505805969E-08  0.10566000000E+00  0.10566000000E+00 0. -1.
     999900   -1    0    0    0    0 -0.00000000000E+00 -0.00000000000E+00 -0.74505805969E-08  0.93827000000E+00  0.93827000000E+00 0. -1.
     999902    2    1    2    0    0  0.17725430585E-01 -0.14804704101E-01  0.59462274418E-02  0.10200819860E+01  0.10198031821E+01 0.  0.
     999903    2    3    3    0    0 -0.86029180626E-02  0.12617818635E+00  0.10462588215E-01  0.12846000616E+00  0.19938969932E-01 0.  0.
         14    1    1    2    0    0 -0.17725430585E-01  0.14804704101E-01 -0.59462274418E-02  0.23848014042E-01  0.00000000000E+00 0.  1.
     999901    1    3    3    0    0  0.26328348648E-01 -0.14098289045E+00 -0.45163607729E-02  0.89162197980E+00  0.88000000000E+00 0.  1.
        -11    1    4    4    0    0 -0.58936016680E-02  0.31620521614E-01 -0.51614827238E-02  0.32580576310E-01  0.51100000000E-03 0.  1.
         11    1    4    4    0    0 -0.27093163947E-02  0.94557664733E-01  0.15624070939E-01  0.95879429852E-01  0.51100000000E-03 0. -1.
</event>
<event>
 8    1  0.1063984E+005  0.1043930E+01  0.7957747E-01            NaN
         13   -1    0    0    0    0  0.00000000000E+00  0.00000000000E+00  0.74505805969E-08  0.10566000000E+00  0.10566000000E+00 0.  1.
     999900   -1    0    0    0    0 -0.00000000000E+00 -0.00000000000E+00 -0.74505805969E-08  0.93827000000E+00  0.93827000000E+00 0.  1.
     999902    2    1    2    0    0  0.11502534261E-01  0.11327882935E-01  0.17416524291E-01  0.10201820623E+01  0.10199056210E+01 0.  0.
     999903    2    3    3    0    0 -0.65600908772E-02  0.11727525894E+00  0.59061941155E-01  0.13266561421E+00  0.17757565955E-01 0.  0.
         14    1    1    2    0    0 -0.11502534261E-01 -0.11327882935E-01 -0.17416524291E-01  0.23747937691E-01  0.00000000000E+00 0.  1.
     999901    1    3    3    0    0  0.18062625138E-01 -0.10594737600E+00 -0.41645416864E-01  0.88751644810E+00  0.88000000000E+00 0. -1.
        -11    1    4    4    0    0 -0.12427189718E-01  0.90687388778E-01  0.44376177729E-01  0.10172582661E+00  0.51100000000E-03 0.  1.
         11    1    4    4    0    0  0.58670988405E-02  0.26587870157E-01  0.14685763427E-01  0.30939787600E-01  0.51100000000E-03 0. -1.
</event>
<event>
 8    1  0.1063984E+005  0.1043930E+01  0.7957747E-01            NaN
         13   -1    0    0    0    0  0.00000000000E+00  0.00000000000E+00  0.74505805969E-08  0.10566000000E+00  0.10566000000E+00 0. -1.
     999900   -1    0    0    0    0 -0.00000000000E+00 -0.00000000000E+00 -0.74505805969E-08  0.93827000000E+00  0.93827000000E+00 0. -1.
     999902    2    1    2    0    0 -0.13398779373E-01 -0.10555155369E-01 -0.15437273146E-01  0.10209246094E+01  0.10206653762E+01 0.  0.
     999903    2    3    3    0    0  0.11765214100E+00 -0.50161229909E-01  0.11313943777E-01  0.12993717265E+00  0.19937107213E-01 0.  0.
         14    1    1    2    0    0  0.13398779373E-01  0.10555155369E-01  0.15437273146E-01  0.23005390580E-01  0.00000000000E+00 0. -1.
     999901    1    3    3    0    0 -0.13105092038E+00  0.39606074539E-01 -0.26751216923E-01  0.89098743677E+00  0.88000000000E+00 0. -1.
        -11    1    4    4    0    0  0.71274992740E-01 -0.38475747050E-01  0.98182613497E-03  0.81004523360E-01  0.51100000000E-03 0.  1.
         11    1    4    4    0    0  0.46377148264E-01 -0.11685482859E-01  0.10332117642E-01  0.48932649292E-01  0.51100000000E-03 0. -1.
</event>
<event>
 8    1  0.1063984E+005  0.1043930E+01  0.7957747E-01            NaN
         13   -1    0    0    0    0  0.00000000000E+00  0.00000000000E+00  0.74505805969E-08  0.10566000000E+00  0.10566000000E+00 0.  1.
     999900   -1    0    0    0    0 -0.00000000000E+00 -0.00000000000E+00 -0.74505805969E-08  0.93827000000E+00  0.93827000000E+00 0.  1.
     999902    2    1    2    0    0 -0.84022662018E-02  0.18124287394E-01  0.14667054734E-01  0.10191467321E+01  0.10188453520E+01 0.  0.
     999903    2    3    3    0    0 -0.97414664887E-01  0.36317313542E-01 -0.75737619917E-01  0.12986207664E+00  0.17871980332E-01 0.  0.
         14    1    1    2    0    0  0.84022662018E-02 -0.18124287394E-01 -0.14667054734E-01  0.24783267852E-01  0.00000000000E+00 0. -1.
     999901    1    3    3    0    0  0.89012398685E-01 -0.18193026148E-01  0.90404674651E-01  0.88928465551E+00  0.88000000000E+00 0. -1.
        -11    1    4    4    0    0 -0.36978847726E-01  0.13626615764E-01 -0.18309098092E-01  0.43458072096E-01  0.51100000000E-03 0. -1.
         11    1    4    4    0    0 -0.60435817161E-01  0.22690697779E-01 -0.57428521825E-01  0.86404004546E-01  0.51100000000E-03 0.  1.
</event>
<event>
 8    1  0.1063984E+005  0.1043930E+01  0.7957747E-01            NaN
         13   -1    0    0    0    0  0.00000000000E+00  0.00000000000E+00  0.74505805969E-08  0.10566000000E+00  0.10566000000E+00 0. -1.
     999900   -1    0    0    0    0 -0.00000000000E+00 -0.00000000000E+00 -0.74505805969E-08  0.93827000000E+00  0.93827000000E+00 0.  1.
     999902    2    1    2    0    0 -0.33361855260E-02  0.20535503590E-01 -0.10728131025E-01  0.10205220988E+01  0.10202536079E+01 0.  0.
     999903    2    3    3    0    0  0.79765549821E-01  0.10301369153E+00  0.12814464865E-01  0.13245520737E+00  0.20144673446E-01 0.  0.
         14    1    1    2    0    0  0.33361855260E-02 -0.20535503590E-01  0.10728131025E-01  0.23407901163E-01  0.00000000000E+00 0.  1.
     999901    1    3    3    0    0 -0.83101735347E-01 -0.82478187939E-01 -0.23542595890E-01  0.88806689147E+00  0.88000000000E+00 0. -1.
        -11    1    4    4    0    0  0.34463247694E-01  0.55053399718E-01 -0.13920683517E-02  0.64967616837E-01  0.51100000000E-03 0. -1.
         11    1    4    4    0    0  0.45302302127E-01  0.47960291811E-01  0.14206533217E-01  0.67487590531E-01  0.51100000000E-03 0.  1.
</event>
<event>
 8    1  0.1063984E+005  0.1043930E+01  0.7957747E-01            NaN
         13   -1    0    0    0    0  0.00000000000E+00  0.00000000000E+00  0.74505805969E-08  0.10566000000E+00  0.10566000000E+00 0.  1.
     999900   -1    0    0    0    0 -0.00000000000E+00 -0.00000000000E+00 -0.74505805969E-08  0.93827000000E+00  0.93827000000E+00 0.  1.
     999902    2    1    2    0    0 -0.92563241196E-02  0.20210189227E-01  0.11016557699E-01  0.10191208116E+01  0.10188187929E+01 0.  0.
     999903    2    3    3    0    0  0.75581465038E-01  0.45039099136E-02 -0.10113372414E+00  0.12781737092E+00  0.19401213569E-01 0.  0.
         14    1    1    2    0    0  0.92563241196E-02 -0.20210189227E-01 -0.11016557699E-01  0.24809188386E-01  0.00000000000E+00 0. -1.
     999901    1    3    3    0    0 -0.84837789158E-01  0.15706279314E-01  0.11215028184E+00  0.89130344070E+00  0.88000000000E+00 0. -1.
        -11    1    4    4    0    0  0.24141399833E-01  0.58917155869E-02 -0.46740381662E-01  0.52938113844E-01  0.51100000000E-03 0. -1.
         11    1    4    4    0    0  0.51440065206E-01 -0.13878056732E-02 -0.54393342480E-01  0.74879257075E-01  0.51100000000E-03 0.  1.
</event>
<event>
 7    1  0.1638140E+005  0.1043930E+01  0.7957747E-01            NaN
         13   -1    0    0    0    0  0.00000000000E+00  0.00000000000E+00  0.74505805969E-08  0.10566000000E+00  0.10566000000E+00 0.  1.
     999900   -1    0    0    0    0 -0.00000000000E+00 -0.00000000000E+00 -0.74505805969E-08  0.93827000000E+00  0.93827000000E+00 0. -1.
     999903    2    1    2    0    0  0.43917108073E-01 -0.81900043035E-02 -0.73522505811E-01  0.88484954622E-01  0.20693955199E-01 0.  0.
         14    1    1    2    0    0 -0.14848306313E-01  0.64560634344E-01  0.28201630104E-01  0.71999164216E-01  0.00000000000E+00 0. -1.
     999901    1    1    2    0    0 -0.29068801760E-01 -0.56370630041E-01  0.45320875707E-01  0.88344588116E+00  0.88000000000E+00 0.  1.
        -11    1    3    3    0    0  0.29962703336E-01  0.38385413510E-02 -0.38809059059E-01  0.49182336026E-01  0.51100000000E-03 0. -1.
         11    1    3    3    0    0  0.13954404737E-01 -0.12028545654E-01 -0.34713446752E-01  0.39302618596E-01  0.51100000000E-03 0.  1.
</event>
<event>
 8    1  0.1063984E+005  0.1043930E+01  0.7957747E-01            NaN
         13   -1    0    0    0    0  0.00000000000E+00  0.00000000000E+00  0.74505805969E-08  0.10566000000E+00  0.10566000000E+00 0.  1.
     999900   -1    0    0    0    0 -0.00000000000E+00 -0.00000000000E+00 -0.74505805969E-08  0.93827000000E+00  0.93827000000E+00 0.  1.
     999902    2    1    2    0    0 -0.11391931650E-01 -0.13963322038E-02 -0.16330653434E-01  0.10239696370E+01  0.10237750736E+01 0.  0.
     999903    2    3    3    0    0 -0.28238306355E-01 -0.12023956694E+00 -0.51233159442E-01  0.13513573815E+00  0.19541640062E-01 0.  0.
         14    1    1    2    0    0  0.11391931650E-01  0.13963322038E-02  0.16330653434E-01  0.19960363021E-01  0.00000000000E+00 0.  1.
     999901    1    3    3    0    0  0.16846374705E-01  0.11884323473E+00  0.34902506007E-01  0.88883389883E+00  0.88000000000E+00 0.  1.
        -11    1    4    4    0    0 -0.78313885075E-02 -0.75071422464E-01 -0.30959140038E-01  0.81582955264E-01  0.51100000000E-03 0.  1.
         11    1    4    4    0    0 -0.20406917848E-01 -0.45168144472E-01 -0.20274019403E-01  0.53552782886E-01  0.51100000000E-03 0. -1.
</event>
<event>
 8    1  0.1063984E+005  0.1043930E+01  0.7957747E-01            NaN
         13   -1    0    0    0    0  0.00000000000E+00  0.00000000000E+00  0.74505805969E-08  0.10566000000E+00  0.10566000000E+00 0. -1.
     999900   -1    0    0    0    0 -0.00000000000E+00 -0.00000000000E+00 -0.74505805969E-08  0.93827000000E+00  0.93827000000E+00 0.  1.
     999902    2    1    2    0    0  0.14672421681E-01  0.10937999944E-01 -0.14954549823E-01  0.10202961607E+01  0.10200224003E+01 0.  0.
     999903    2    3    3    0    0 -0.32423171927E-01 -0.12284267136E+00  0.54468727268E-02  0.12870686005E+00  0.19854556551E-01 0.  0.
         14    1    1    2    0    0 -0.14672421681E-01 -0.10937999944E-01  0.14954549823E-01  0.23633839323E-01  0.00000000000E+00 0. -1.
     999901    1    3    3    0    0  0.47095593609E-01  0.13378067131E+00 -0.20401422550E-01  0.89158930063E+00  0.88000000000E+00 0. -1.
        -11    1    4    4    0    0 -0.28638551683E-01 -0.99140687853E-01 -0.30483142357E-02  0.10324047642E+00  0.51100000000E-03 0.  1.
         11    1    4    4    0    0 -0.37846202447E-02 -0.23701983509E-01  0.84951869626E-02  0.25466383630E-01  0.51100000000E-03 0. -1.
</event>
<event>
 8    1  0.1063984E+005  0.1043930E+01  0.7957747E-01            NaN
         13   -1    0    0    0    0  0.00000000000E+00  0.00000000000E+00  0.74505805969E-08  0.10566000000E+00  0.10566000000E+00 0. -1.
     999900   -1    0    0    0    0 -0.00000000000E+00 -0.00000000000E+00 -0.74505805969E-08  0.93827000000E+00  0.93827000000E+00 0. -1.
     999902    2    1    2    0    0  0.17640511101E-01  0.55359743129E-02 -0.14166155742E-01  0.10206380569E+01  0.10203722500E+01 0.  0.
     999903    2    3    3    0    0 -0.72318897594E-01  0.96839732039E-01 -0.46611534785E-01  0.13076066425E+00  0.17825809612E-01 0.  0.
         14    1    1    2    0    0 -0.17640511101E-01 -0.55359743129E-02  0.14166155742E-01  0.23291943071E-01  0.00000000000E+00 0. -1.
     999901    1    3    3    0    0  0.89959408695E-01 -0.91303757726E-01  0.32445379043E-01  0.88987739268E+00  0.88000000000E+00 0.  1.
        -11    1    4    4    0    0 -0.18888446279E-01  0.19182964075E-01 -0.17462444709E-01  0.32092952649E-01  0.51100000000E-03 0.  1.
         11    1    4    4    0    0 -0.53430451315E-01  0.77656767965E-01 -0.29149090076E-01  0.98667711597E-01  0.51100000000E-03 0. -1.
</event>
<event>
 8    1  0.1063984E+005  0.1043930E+01  0.7957747E-01            NaN
         13   -1    0    0    0    0  0.00000000000E+00  0.00000000000E+00  0.74505805969E-08  0.10566000000E+00  0.10566000000E+00 0.  1.
     999900   -1    0    0    0    0 -0.00000000000E+00 -0.00000000000E+00 -0.74505805969E-08  0.93827000000E+00  0.93827000000E+00 0.  1.
     999902    2    1    2    0    0 -0.23084650276E-02  0.23371035291E-01 -0.28003492160E-02  0.10202788635E+01  0.10200046976E+01 0.  0.
     999903    2    3    3    0    0  0.84343871769E-01 -0.50411667966E-01 -0.81612800388E-01  0.12945681774E+00  0.21052161426E-01 0.  0.
         14    1    1    2    0    0  0.23084650276E-02 -0.23371035291E-01  0.28003492160E-02  0.23651136486E-01  0.00000000000E+00 0. -1.
     999901    1    3    3    0    0 -0.86652336796E-01  0.73782703257E-01  0.78812451172E-01  0.89082204577E+00  0.88000000000E+00 0. -1.
        -11    1    4    4    0    0  0.39943018610E-01 -0.12137970857E-01 -0.30859735640E-01  0.51916851570E-01  0.51100000000E-03 0. -1.
         11    1    4    4    0    0  0.44400853159E-01 -0.38273697109E-01 -0.50753064749E-01  0.77539966172E-01  0.51100000000E-03 0.  1.
</event>
<event>
 8    1  0.1063984E+005  0.1043930E+01  0.7957747E-01            NaN
         13   -1    0    0    0    0  0.00000000000E+00  0.00000000000E+00  0.74505805969E-08  0.10566000000E+00  0.10566000000E+00 0. -1.
     999900   -1    0    0    0    0 -0.00000000000E+00 -0.00000000000E+00 -0.74505805969E-08  0.93827000000E+00  0.93827000000E+00 0.  1.
     999902    2    1    2    0    0 -0.42504743508E-02  0.11560320363E-01  0.20225347941E-01  0.10202493700E+01  0.10199745118E+01 0.  0.
     999903    2    3    3    0    0  0.12400309780E+00  0.14872525551E-01  0.33745330819E-01  0.13084353493E+00  0.19578636355E-01 0.  0.
         14    1    1    2    0    0  0.42504743508E-02 -0.11560320363E-01 -0.20225347941E-01  0.23680630026E-01  0.00000000000E+00 0.  1.
     999901    1    3    3    0    0 -0.12825357215E+00 -0.33122051884E-02 -0.13519982879E-01  0.88940583504E+00  0.88000000000E+00 0. -1.
        -11    1    4    4    0    0  0.11167261389E-01  0.14638070247E-02  0.92948548719E-02  0.14611841295E-01  0.51100000000E-03 0.  1.
         11    1    4    4    0    0  0.11283583641E+00  0.13408718527E-01  0.24450475947E-01  0.11623169364E+00  0.51100000000E-03 0. -1.
</event>
<event>
 8    1  0.1063984E+005  0.1043930E+01  0.7957747E-01            NaN
         13   -1    0    0    0    0  0.00000000000E+00  0.00000000000E+00  0.74505805969E-08  0.10566000000E+00  0.10566000000E+00 0.  1.
     999900   -1    0    0    0    0 -0.00000000000E+00 -0.00000000000E+00 -0.74505805969E-08  0.93827000000E+00  0.93827000000E+00 0.  1.
     999902    2    1    2    0    0 -0.17557226578E-02 -0.30301322798E-02 -0.23532659224E-01  0.10201381881E+01  0.10198607123E+01 0.  0.
     999903    2    3    3    0    0 -0.67850861881E-01 -0.10843370677E+00  0.16407151287E-01  0.13049012880E+00  0.19921618375E-01 0.  0.
         14    1    1    2    0    0  0.17557226578E-02  0.30301322798E-02  0.23532659224E-01  0.23791811907E-01  0.00000000000E+00 0.  1.
     999901    1    3    3    0    0  0.66095139223E-01  0.10540357449E+00 -0.39939810511E-01  0.88964805930E+00  0.88000000000E+00 0. -1.
        -11    1    4    4    0    0 -0.32239139277E-01 -0.61109843778E-01  0.23988932219E-03  0.69094817286E-01  0.51100000000E-03 0.  1.
         11    1    4    4    0    0 -0.35611722604E-01 -0.47323862991E-01  0.16167261965E-01  0.61395311512E-01  0.51100000000E-03 0. -1.
</event>
<event>
 8    1  0.1063984E+005  0.1043930E+01  0.7957747E-01            NaN
         13   -1    0    0    0    0  0.00000000000E+00  0.00000000000E+00  0.74505805969E-08  0.10566000000E+00  0.10566000000E+00 0. -1.
     999900   -1    0    0    0    0 -0.00000000000E+00 -0.00000000000E+00 -0.74505805969E-08  0.93827000000E+00  0.93827000000E+00 0.  1.
     999902    2    1    2    0    0 -0.60219274282E-02 -0.17288644700E-01  0.15571011470E-01  0.10198963310E+01  0.10196131172E+01 0.  0.
     999903    2    3    3    0    0  0.12358986708E+00  0.73550853583E-02  0.32800607866E-01  0.12989442672E+00  0.21636304905E-01 0.  0.
         14    1    1    2    0    0  0.60219274282E-02  0.17288644700E-01 -0.15571011470E-01  0.24033668961E-01  0.00000000000E+00 0.  1.
     999901    1    3    3    0    0 -0.12961179451E+00 -0.24643730059E-01 -0.17229596396E-01  0.89000190432E+00  0.88000000000E+00 0.  1.
        -11    1    4    4    0    0  0.89207559954E-01  0.65668934136E-05  0.31833290887E-01  0.94718574344E-01  0.51100000000E-03 0.  1.
         11    1    4    4    0    0  0.34382307126E-01  0.73485184649E-02  0.96731697900E-03  0.35175852372E-01  0.51100000000E-03 0. -1.
</event>
<event>
 8    1  0.1063984E+005  0.1043930E+01  0.7957747E-01            NaN
         13   -1    0    0    0    0  0.00000000000E+00  0.00000000000E+00  0.74505805969E-08  0.10566000000E+00  0.10566000000E+00 0. -1.
     999900   -1    0    0    0    0 -0.00000000000E+00 -0.00000000000E+00 -0.74505805969E-08  0.93827000000E+00  0.93827000000E+00 0.  1.
     999902    2    1    2    0    0  0.21087291500E-01 -0.78113356352E-02  0.71188122001E-02  0.10203425390E+01  0.10200698646E+01 0.  0.
     999903    2    3    3    0    0 -0.79221956227E-01 -0.92840049477E-03 -0.98957398875E-01  0.12828789804E+00  0.19703748794E-01 0.  0.
         14    1    1    2    0    0 -0.21087291500E-01  0.78113356352E-02 -0.71188122001E-02  0.23587460956E-01  0.00000000000E+00 0.  1.
     999901    1    3    3    0    0  0.10030924773E+00 -0.68829351404E-02  0.10607621107E+00  0.89205464100E+00  0.88000000000E+00 0. -1.
        -11    1    4    4    0    0 -0.37204736573E-01  0.93280908480E-02 -0.44862635125E-01  0.59026458929E-01  0.51100000000E-03 0.  1.
         11    1    4    4    0    0 -0.42017219654E-01 -0.10256491343E-01 -0.54094763749E-01  0.69261439114E-01  0.51100000000E-03 0. -1.
</event>
<event>
 8    1  0.1063984E+005  0.1043930E+01  0.7957747E-01            NaN
         13   -1    0    0    0    0  0.00000000000E+00  0.00000000000E+00  0.74505805969E-08  0.10566000000E+00  0.10566000000E+00 0.  1.
     999900   -1    0    0    0    0 -0.00000000000E+00 -0.00000000000E+00 -0.74505805969E-08  0.93827000000E+00  0.93827000000E+00 0. -1.
     999902    2    1    2    0    0 -0.23746395104E-01 -0.30410650237E-02  0.44123542859E-02  0.10195864541E+01  0.10192958006E+01 0.  0.
     999903    2    3    3    0    0 -0.20851414924E-01 -0.86258801150E-01 -0.93884829223E-01  0.13020694635E+00  0.16251936453E-01 0.  0.
         14    1    1    2    0    0  0.23746395104E-01  0.30410650237E-02 -0.44123542859E-02  0.24343545905E-01  0.00000000000E+00 0.  1.
     999901    1    3    3    0    0 -0.28949801795E-02  0.83217736127E-01  0.98297183509E-01  0.88937950775E+00  0.88000000000E+00 0. -1.
        -11    1    4    4    0    0 -0.31895356700E-02 -0.33870456059E-01 -0.27040165904E-01  0.43460471978E-01  0.51100000000E-03 0.  1.
         11    1    4    4    0    0 -0.17661879254E-01 -0.52388345091E-01 -0.66844663319E-01  0.86746474369E-01  0.51100000000E-03 0. -1.
</event>
<event>
 8    1  0.1063984E+005  0.1043930E+01  0.7957747E-01            NaN
         13   -1    0    0    0    0  0.00000000000E+00  0.00000000000E+00  0.74505805969E-08  0.10566000000E+00  0.10566000000E+00 0. -1.
     999900   -1    0    0    0    0 -0.00000000000E+00 -0.00000000000E+00 -0.74505805969E-08  0.93827000000E+00  0.93827000000E+00 0. -1.
     999902    2    1    2    0    0 -0.18772312215E-01 -0.14849843556E-01 -0.37609880089E-02  0.10197006255E+01  0.10194127246E+01 0.  0.
     999903    2    3    3    0    0 -0.84927290900E-02 -0.11143416741E+00  0.66556349032E-01  0.13156846788E+00  0.19769016961E-01 0.  0.
         14    1    1    2    0    0  0.18772312215E-01  0.14849843556E-01  0.37609880089E-02  0.24229374535E-01  0.00000000000E+00 0. -1.
     999901    1    3    3    0    0 -0.10279583125E-01  0.96584323851E-01 -0.70317337041E-01  0.88813215758E+00  0.88000000000E+00 0. -1.
        -11    1    4    4    0    0 -0.28756526639E-02 -0.86632806884E-01  0.42422419287E-01  0.96506141701E-01  0.51100000000E-03 0.  1.
         11    1    4    4    0    0 -0.56170764261E-02 -0.24801360523E-01  0.24133929745E-01  0.35062326182E-01  0.51100000000E-03 0. -1.
</event>
<event>
 8    1  0.1063984E+005  0.1043930E+01  0.7957747E-01            NaN
         13   -1    0    0    0    0  0.00000000000E+00  0.00000000000E+00  0.74505805969E-08  0.10566000000E+00  0.10566000000E+00 0.  1.
     999900   -1    0    0    0    0 -0.00000000000E+00 -0.00000000000E+00 -0.74505805969E-08  0.93827000000E+00  0.93827000000E+00 0.  1.
     999902    2    1    2    0    0  0.64615486265E-02  0.20540762589E-01  0.74352564420E-02  0.10211493596E+01  0.10208952233E+01 0.  0.
     999903    2    3    3    0    0  0.36400340707E-01  0.31721014493E-01 -0.12054706635E+00  0.13131746298E+00  0.19531341819E-01 0.  0.
         14    1    1    2    0    0 -0.64615486265E-02 -0.20540762589E-01 -0.74352564420E-02  0.22780640394E-01  0.00000000000E+00 0. -1.
     999901    1    3    3    0    0 -0.29938792081E-01 -0.11180251904E-01  0.12798232280E+00  0.88983189663E+00  0.88000000000E+00 0. -1.
        -11    1    4    4    0    0  0.61525545180E-02  0.17616044428E-01 -0.45669647543E-01  0.49337174383E-01  0.51100000000E-03 0.  1.
         11    1    4    4    0    0  0.30247786189E-01  0.14104970065E-01 -0.74877418810E-01  0.81980288598E-01  0.51100000000E-03 0. -1.
</event>
<event>
 8    1  0.1063984E+005  0.1043930E+01  0.7957747E-01            NaN
         13   -1    0    0    0    0  0.00000000000E+00  0.00000000000E+00  0.74505805969E-08  0.10566000000E+00  0.10566000000E+00 0.  1.
     999900   -1    0    0    0    0 -0.00000000000E+00 -0.00000000000E+00 -0.74505805969E-08  0.93827000000E+00  0.93827000000E+00 0. -1.
     999902    2    1    2    0    0 -0.12157238442E-01 -0.37547464692E-02 -0.19969411350E-01  0.10202514452E+01  0.10199766358E+01 0.  0.
     999903    2    3    3    0    0 -0.25377210856E-01  0.55893299446E-01 -0.11610017098E+00  0.13291059750E+00  0.20442932084E-01 0.  0.
         14    1    1    2    0    0  0.12157238442E-01  0.37547464692E-02  0.19969411350E-01  0.23678554796E-01  0.00000000000E+00 0.  1.
     999901    1    3    3    0    0  0.13219972414E-01 -0.59648045915E-01  0.96130759634E-01  0.88734084770E+00  0.88000000000E+00 0.  1.
        -11    1    4    4    0    0 -0.20315108719E-01  0.24785834334E-01 -0.46169892030E-01  0.56204637504E-01  0.51100000000E-03 0.  1.
         11    1    4    4    0    0 -0.50621021374E-02  0.31107465112E-01 -0.69930278953E-01  0.76705959998E-01  0.51100000000E-03 0. -1.
</event>
<event>
 8    1  0.1063984E+005  0.1043930E+01  0.7957747E-01            NaN
         13   -1    0    0    0    0  0.00000000000E+00  0.00000000000E+00  0.74505805969E-08  0.10566000000E+00  0.10566000000E+00 0.  1.
     999900   -1    0    0    0    0 -0.00000000000E+00 -0.00000000000E+00 -0.74505805969E-08  0.93827000000E+00  0.93827000000E+00 0.  1.
     999902    2    1    2    0    0  0.20219617529E-01 -0.14750967770E-01 -0.57537424280E-02  0.10182486929E+01  0.10179247865E+01 0.  0.
     999903    2    3    3    0    0  0.91156463658E-01  0.85983327244E-01  0.23139459254E-01  0.12919624706E+00  0.21297940007E-01 0.  0.
         14    1    1    2    0    0 -0.20219617529E-01  0.14750967770E-01  0.57537424280E-02  0.25681307114E-01  0.00000000000E+00 0.  1.
     999901    1    3    3    0    0 -0.70936846129E-01 -0.10073429501E+00 -0.28893201682E-01  0.88905244583E+00  0.88000000000E+00 0.  1.
        -11    1    4    4    0    0  0.20043332544E-01  0.29824719824E-01  0.12054786735E-01  0.37905515381E-01  0.51100000000E-03 0. -1.
         11    1    4    4    0    0  0.71113131114E-01  0.56158607420E-01  0.11084672519E-01  0.91290731677E-01  0.51100000000E-03 0.  1.
</event>
<event>
 8    1  0.1063984E+005  0.1043930E+01  0.7957747E-01            NaN
         13   -1    0    0    0    0  0.00000000000E+00  0.00000000000E+00  0.74505805969E-08  0.10566000000E+00  0.10566000000E+00 0.  1.
     999900   -1    0    0    0    0 -0.00000000000E+00 -0.00000000000E+00 -0.74505805969E-08  0.93827000000E+00  0.93827000000E+00 0. -1.
     999902    2    1    2    0    0 -0.10368986308E-02 -0.22785510843E-01 -0.31657808306E-02  0.10209022595E+01  0.10206425166E+01 0.  0.
     999903    2    3    3    0    0 -0.91537824948E-01  0.25754814444E-01 -0.87895216440E-01  0.13088784498E+00  0.19067643450E-01 0.  0.
         14    1    1    2    0    0  0.10368986308E-02  0.22785510843E-01  0.31657808306E-02  0.23027740475E-01  0.00000000000E+00 0.  1.
     999901    1    3    3    0    0  0.90500926317E-01 -0.48540325286E-01  0.84729435609E-01  0.89001441455E+00  0.88000000000E+00 0.  1.
        -11    1    4    4    0    0 -0.72781443366E-01  0.27818408306E-01 -0.67400610112E-01  0.10302478199E+00  0.51100000000E-03 0.  1.
         11    1    4    4    0    0 -0.18756381581E-01 -0.20635938620E-02 -0.20494606327E-01  0.27863062990E-01  0.51100000000E-03 0. -1.
</event>
<event>
 8    1  0.1063984E+005  0.1043930E+01  0.7957747E-01            NaN
         13   -1    0    0    0    0  0.00000000000E+00  0.00000000000E+00  0.74505805969E-08  0.10566000000E+00  0.10566000000E+00 0.  1.
     999900   -1    0    0    0    0 -0.00000000000E+00 -0.00000000000E+00 -0.74505805969E-08  0.93827000000E+00  0.93827000000E+00 0. -1.
     999902    2    1    2    0    0 -0.44826515588E-02 -0.22365590767E-01 -0.11086203795E-01  0.10185682625E+01  0.10182524675E+01 0.  0.
     999903    2    3    3    0    0  0.64887943063E-01  0.10664964875E+00 -0.20227536036E-03  0.12639357593E+00  0.19766193049E-01 0.  0.
         14    1    1    2    0    0  0.44826515588E-02  0.22365590767E-01  0.11086203795E-01  0.25361737519E-01  0.00000000000E+00 0.  1.
     999901    1    3    3    0    0 -0.69370594622E-01 -0.12901523952E+00 -0.10883928435E-01  0.89217468655E+00  0.88000000000E+00 0. -1.
        -11    1    4    4    0    0  0.19820759605E-01  0.50713818870E-01  0.24929852402E-02  0.54508990379E-01  0.51100000000E-03 0.  1.
         11    1    4    4    0    0  0.45067183457E-01  0.55935829879E-01 -0.26952606005E-02  0.71884585550E-01  0.51100000000E-03 0. -1.
</event>
<event>
 8    1  0.1063984E+005  0.1043930E+01  0.7957747E-01            NaN
         13   -1    0    0    0    0  0.00000000000E+00  0.00000000000E+00  0.74505805969E-08  0.10566000000E+00  0.10566000000E+00 0.  1.
     999900   -1    0    0    0    0 -0.00000000000E+00 -0.00000000000E+00 -0.74505805969E-08  0.93827000000E+00  0.93827000000E+00 0.  1.
     999902    2    1    2    0    0 -0.28712713397E-01 -0.18686379588E-02  0.79825851662E-02  0.10140697692E+01  0.10136300427E+01 0.  0.
     999903    2    3    3    0    0 -0.99721931824E-01 -0.77651501722E-01  0.11157771451E-02  0.12793631163E+00  0.19804935462E-01 0.  0.
         14    1    1    2    0    0  0.28712713397E-01  0.18686379588E-02 -0.79825851662E-02  0.29860230816E-01  0.00000000000E+00 0. -1.
     999901    1    3    3    0    0  0.71009218427E-01  0.75782863764E-01  0.68668080211E-02  0.88613345755E+00  0.88000000000E+00 0. -1.
        -11    1    4    4    0    0 -0.42048992643E-01 -0.25477403292E-01  0.81798761026E-02  0.49843629030E-01  0.51100000000E-03 0.  1.
         11    1    4    4    0    0 -0.57672939181E-01 -0.52174098430E-01 -0.70640989575E-02  0.78092682601E-01  0.51100000000E-03 0. -1.
</event>
<event>
 8    1  0.1063984E+005  0.1043930E+01  0.7957747E-01            NaN
         13   -1    0    0    0    0  0.00000000000E+00  0.00000000000E+00  0.74505805969E-08  0.10566000000E+00  0.10566000000E+00 0.  1.
     999900   -1    0    0    0    0 -0.00000000000E+00 -0.00000000000E+00 -0.74505805969E-08  0.93827000000E+00  0.93827000000E+00 0. -1.
     999902    2    1    2    0    0 -0.18588573127E-01  0.77085096673E-02  0.12778973865E-01  0.10200918301E+01  0.10198132591E+01 0.  0.
     999903    2    3    3    0    0 -0.10206169841E+00 -0.76010870271E-01  0.28910676293E-01  0.13203950671E+00  0.20108740551E-01 0.  0.
         14    1    1    2    0    0  0.18588573127E-01 -0.77085096673E-02 -0.12778973865E-01  0.23838169922E-01  0.00000000000E+00 0.  1.
     999901    1    3    3    0    0  0.83473125280E-01  0.83719379938E-01 -0.16131702428E-01  0.88805232337E+00  0.88000000000E+00 0. -1.
        -11    1    4    4    0    0 -0.75877828970E-01 -0.54400946450E-01  0.12082016648E-01  0.94144273066E-01  0.51100000000E-03 0.  1.
         11    1    4    4    0    0 -0.26183869437E-01 -0.21609923821E-01  0.16828659644E-01  0.37895233640E-01  0.51100000000E-03 0. -1.
</event>
<event>
 8    1  0.1063984E+005  0.1043930E+01  0.7957747E-01            NaN
         13   -1    0    0    0    0  0.00000000000E+00  0.00000000000E+00  0.74505805969E-08  0.10566000000E+00  0.10566000000E+00 0. -1.
     999900   -1    0    0    0    0 -0.00000000000E+00 -0.00000000000E+00 -0.74505805969E-08  0.93827000000E+00  0.93827000000E+00 0.  1.
     999902    2    1    2    0    0 -0.17333317783E-01 -0.13375829131E-01  0.41612997515E-02  0.10216438355E+01  0.10214007311E+01 0.  0.
     999903    2    3    3    0    0 -0.91473003987E-01 -0.94870321500E-01  0.19335647662E-01  0.13464422665E+00  0.19685328018E-01 0.  0.
         14    1    1    2    0    0  0.17333317783E-01  0.13375829131E-01 -0.41612997515E-02  0.22286164451E-01  0.00000000000E+00 0. -1.
     999901    1    3    3    0    0  0.74139686204E-01  0.81494492369E-01 -0.15174347911E-01  0.88699960890E+00  0.88000000000E+00 0.  1.
        -11    1    4    4    0    0 -0.77864048856E-01 -0.69774774541E-01  0.17726563771E-01  0.10604631748E+00  0.51100000000E-03 0. -1.
         11    1    4    4    0    0 -0.13608955131E-01 -0.25095546959E-01  0.16090838915E-02  0.28597909170E-01  0.51100000000E-03 0.  1.
</event>
<event>
 8    1  0.1063984E+005  0.1043930E+01  0.7957747E-01            NaN
         13   -1    0    0    0    0  0.00000000000E+00  0.00000000000E+00  0.74505805969E-08  0.10566000000E+00  0.10566000000E+00 0.  1.
     999900   -1    0    0    0    0 -0.00000000000E+00 -0.00000000000E+00 -0.74505805969E-08  0.93827000000E+00  0.93827000000E+00 0. -1.
     999902    2    1    2    0    0  0.91118778375E-02 -0.52011129836E-02  0.21430609198E-01  0.10200689668E+01  0.10197898549E+01 0.  0.
     999903    2    3    3    0    0  0.89682879967E-03 -0.11832321101E+00 -0.49890953832E-01  0.12992804458E+00  0.19773793965E-01 0.  0.
         14    1    1    2    0    0 -0.91118778375E-02  0.52011129836E-02 -0.21430609198E-01  0.23861033184E-01  0.00000000000E+00 0. -1.
     999901    1    3    3    0    0  0.82150490378E-02  0.11312209803E+00  0.71321563030E-01  0.89014092224E+00  0.88000000000E+00 0.  1.
        -11    1    4    4    0    0 -0.63441148509E-02 -0.68308880294E-01 -0.21160405027E-01  0.71793974553E-01  0.51100000000E-03 0.  1.
         11    1    4    4    0    0  0.72409436505E-02 -0.50014330716E-01 -0.28730548804E-01  0.58134070024E-01  0.51100000000E-03 0. -1.
</event>
<event>
 8    1  0.1063984E+005  0.1043930E+01  0.7957747E-01            NaN
         13   -1    0    0    0    0  0.00000000000E+00  0.00000000000E+00  0.74505805969E-08  0.10566000000E+00  0.10566000000E+00 0. -1.
     999900   -1    0    0    0    0 -0.00000000000E+00 -0.00000000000E+00 -0.74505805969E-08  0.93827000000E+00  0.93827000000E+00 0. -1.
     999902    2    1    2    0    0 -0.19720411791E-01 -0.15380731189E-01  0.35485273897E-02  0.10186702775E+01  0.10183570497E+01 0.  0.
     999903    2    3    3    0    0 -0.11688131212E+00  0.72808955437E-02 -0.55452927607E-01  0.13106960066E+00  0.19747416894E-01 0.  0.
         14    1    1    2    0    0  0.19720411791E-01  0.15380731189E-01 -0.35485273897E-02  0.25259722480E-01  0.00000000000E+00 0. -1.
     999901    1    3    3    0    0  0.97160900325E-01 -0.22661626733E-01  0.59001454997E-01  0.88760067686E+00  0.88000000000E+00 0. -1.
        -11    1    4    4    0    0 -0.40522874283E-01 -0.60772790960E-02 -0.23355359856E-01  0.47167474136E-01  0.51100000000E-03 0.  1.
         11    1    4    4    0    0 -0.76358437833E-01  0.13358174640E-01 -0.32097567752E-01  0.83902126520E-01  0.51100000000E-03 0. -1.
</event>
<event>
 8    1  0.1063984E+005  0.1043930E+01  0.7957747E-01            NaN
         13   -1    0    0    0    0  0.00000000000E+00  0.00000000000E+00  0.74505805969E-08  0.10566000000E+00  0.10566000000E+00 0.  1.
     999900   -1    0    0    0    0 -0.00000000000E+00 -0.00000000000E+00 -0.74505805969E-08  0.93827000000E+00  0.93827000000E+00 0. -1.
     999902    2    1    2    0    0 -0.10620535412E-01 -0.58477899055E-02 -0.19598848336E-01  0.10208842352E+01  0.10206240808E+01 0.  0.
     999903    2    3    3    0    0  0.67505228669E-01 -0.90314088422E-01 -0.66157383377E-01  0.13217399683E+00  0.19482699945E-01 0.  0.
         14    1    1    2    0    0  0.10620535412E-01  0.58477899055E-02  0.19598848336E-01  0.23045764802E-01  0.00000000000E+00 0. -1.
     999901    1    3    3    0    0 -0.78125764080E-01  0.84466298516E-01  0.46558535041E-01  0.88871023837E+00  0.88000000000E+00 0.  1.
        -11    1    4    4    0    0  0.25157919627E-01 -0.39363666398E-01 -0.37847204239E-01  0.60125627997E-01  0.51100000000E-03 0. -1.
         11    1    4    4    0    0  0.42347309041E-01 -0.50950422024E-01 -0.28310179138E-01  0.72048368831E-01  0.51100000000E-03 0.  1.
</event>
<event>
 8    1  0.1063984E+005  0.1043930E+01  0.7957747E-01            NaN
         13   -1    0    0    0    0  0.00000000000E+00  0.00000000000E+00  0.74505805969E-08  0.10566000000E+00  0.10566000000E+00 0. -1.
     999900   -1    0    0    0    0 -0.00000000000E+00 -0.00000000000E+00 -0.74505805969E-08  0.93827000000E+00  0.93827000000E+00 0. -1.
     999902    2    1    2    0    0  0.52618370901E-02 -0.13808614967E-01 -0.18287047997E-01  0.10204187069E+01  0.10201478111E+01 0.  0.
     999903    2    3    3    0    0  0.88507864047E-01 -0.71675067686E-01 -0.66481556441E-01  0.13328786090E+00  0.19362313663E-01 0.  0.
         14    1    1    2    0    0 -0.52618370901E-02  0.13808614967E-01  0.18287047997E-01  0.23511293059E-01  0.00000000000E+00 0.  1.
     999901    1    3    3    0    0 -0.83246026957E-01  0.57866452719E-01  0.48194508444E-01  0.88713084604E+00  0.88000000000E+00 0.  1.
        -11    1    4    4    0    0  0.61684332621E-01 -0.55676611260E-01 -0.56537985207E-01  0.10050694914E+00  0.51100000000E-03 0. -1.
         11    1    4    4    0    0  0.26823531426E-01 -0.15998456426E-01 -0.99435712338E-02  0.32780911764E-01  0.51100000000E-03 0.  1.
</event>
<event>
 8    1  0.1063984E+005  0.1043930E+01  0.7957747E-01            NaN
         13   -1    0    0    0    0  0.00000000000E+00  0.00000000000E+00  0.74505805969E-08  0.10566000000E+00  0.10566000000E+00 0.  1.
     999900   -1    0    0    0    0 -0.00000000000E+00 -0.00000000000E+00 -0.74505805969E-08  0.93827000000E+00  0.93827000000E+00 0.  1.
     999902    2    1    2    0    0 -0.30485368276E-02  0.12963133415E-01 -0.19679679548E-01  0.10201681358E+01  0.10198913663E+01 0.  0.
     999903    2    3    3    0    0  0.57146462676E-01 -0.11047300126E+00 -0.29538267258E-01  0.12946217471E+00  0.20443660247E-01 0.  0.
         14    1    1    2    0    0  0.30485368276E-02 -0.12963133415E-01  0.19679679548E-01  0.23761864234E-01  0.00000000000E+00 0.  1.
     999901    1    3    3    0    0 -0.60194999504E-01  0.12343613468E+00  0.98585877097E-02  0.89070596106E+00  0.88000000000E+00 0. -1.
        -11    1    4    4    0    0  0.50070085345E-01 -0.81520347803E-01 -0.27683456900E-01  0.99595258217E-01  0.51100000000E-03 0.  1.
         11    1    4    4    0    0  0.70763773308E-02 -0.28952653457E-01 -0.18548103576E-02  0.29866916493E-01  0.51100000000E-03 0. -1.
</event>
<event>
 8    1  0.1063984E+005  0.1043930E+01  0.7957747E-01            NaN
         13   -1    0    0    0    0  0.00000000000E+00  0.00000000000E+00  0.74505805969E-08  0.10566000000E+00  0.10566000000E+00 0. -1.
     999900   -1    0    0    0    0 -0.00000000000E+00 -0.00000000000E+00 -0.74505805969E-08  0.93827000000E+00  0.93827000000E+00 0. -1.
     999902    2    1    2    0    0  0.10290664675E-01 -0.20882539495E-01 -0.45819826797E-02  0.10202029521E+01  0.10199270027E+01 0.  0.
     999903    2    3    3    0    0 -0.61564136688E-01  0.10065594389E+00  0.44243471739E-01  0.12761198174E+00  0.20138796565E-01 0.  0.
         14    1    1    2    0    0 -0.10290664675E-01  0.20882539495E-01  0.45819826797E-02  0.23727047867E-01  0.00000000000E+00 0.  1.
     999901    1    3    3    0    0  0.71854801363E-01 -0.12153848338E+00 -0.48825454419E-01  0.89259097039E+00  0.88000000000E+00 0.  1.
        -11    1    4    4    0    0 -0.31714615681E-01  0.44490925283E-01  0.10609012023E-01  0.55660322829E-01  0.51100000000E-03 0.  1.
         11    1    4    4    0    0 -0.29849521007E-01  0.56165018603E-01  0.33634459717E-01  0.71951658914E-01  0.51100000000E-03 0. -1.
</event>
<event>
 8    1  0.1063984E+005  0.1043930E+01  0.7957747E-01            NaN
         13   -1    0    0    0    0  0.00000000000E+00  0.00000000000E+00  0.74505805969E-08  0.10566000000E+00  0.10566000000E+00 0. -1.
     999900   -1    0    0    0    0 -0.00000000000E+00 -0.00000000000E+00 -0.74505805969E-08  0.93827000000E+00  0.93827000000E+00 0.  1.
     999902    2    1    2    0    0  0.17253947866E-01 -0.11469090889E-01  0.96246624592E-02  0.10210854626E+01  0.10208298825E+01 0.  0.
     999903    2    3    3    0    0 -0.56113776211E-01 -0.69611982273E-01 -0.92442039794E-01  0.13025381155E+00  0.20638331946E-01 0.  0.
         14    1    1    2    0    0 -0.17253947866E-01  0.11469090889E-01 -0.96246624592E-02  0.22844537427E-01  0.00000000000E+00 0.  1.
     999901    1    3    3    0    0  0.73367724078E-01  0.58142891384E-01  0.10206670225E+00  0.89083165102E+00  0.88000000000E+00 0. -1.
        -11    1    4    4    0    0 -0.14634994174E-01 -0.30363229825E-01 -0.43578079867E-01  0.55094636270E-01  0.51100000000E-03 0. -1.
         11    1    4    4    0    0 -0.41478782038E-01 -0.39248752448E-01 -0.48863959927E-01  0.75159175280E-01  0.51100000000E-03 0.  1.
</event>
<event>
 8    1  0.1063984E+005  0.1043930E+01  0.7957747E-01            NaN
         13   -1    0    0    0    0  0.00000000000E+00  0.00000000000E+00  0.74505805969E-08  0.10566000000E+00  0.10566000000E+00 0. -1.
     999900   -1    0    0    0    0 -0.00000000000E+00 -0.00000000000E+00 -0.74505805969E-08  0.93827000000E+00  0.93827000000E+00 0. -1.
     999902    2    1    2    0    0 -0.18269255240E-01  0.12898408103E-01  0.64803367658E-02  0.10206463280E+01  0.10203807120E+01 0.  0.
     999903    2    3    3    0    0 -0.11163168449E+00  0.63278296613E-01  0.32524243317E-01  0.13389215604E+00  0.20087489712E-01 0.  0.
         14    1    1    2    0    0  0.18269255240E-01 -0.12898408103E-01 -0.64803367658E-02  0.23283672030E-01  0.00000000000E+00 0. -1.
     999901    1    3    3    0    0  0.93362429247E-01 -0.50379888511E-01 -0.26043906551E-01  0.88675417193E+00  0.88000000000E+00 0. -1.
        -11    1    4    4    0    0 -0.96465594388E-01  0.57035537658E-01  0.34755974505E-01  0.11733244369E+00  0.51100000000E-03 0. -1.
         11    1    4    4    0    0 -0.15166090099E-01  0.62427589551E-02 -0.22317311876E-02  0.16559712357E-01  0.51100000000E-03 0.  1.
</event>
<event>
 8    1  0.1063984E+005  0.1043930E+01  0.7957747E-01            NaN
         13   -1    0    0    0    0  0.00000000000E+00  0.00000000000E+00  0.74505805969E-08  0.10566000000E+00  0.10566000000E+00 0. -1.
     999900   -1    0    0    0    0 -0.00000000000E+00 -0.00000000000E+00 -0.74505805969E-08  0.93827000000E+00  0.93827000000E+00 0. -1.
     999902    2    1    2    0    0 -0.12913580448E-01 -0.17035136380E-01 -0.11549035299E-01  0.10196331556E+01  0.10193436297E+01 0.  0.
     999903    2    3    3    0    0 -0.10708249727E+00  0.25132152354E-01 -0.70008834345E-01  0.13167853219E+00  0.18431295363E-01 0.  0.
         14    1    1    2    0    0  0.12913580448E-01  0.17035136380E-01  0.11549035299E-01  0.24296844400E-01  0.00000000000E+00 0. -1.
     999901    1    3    3    0    0  0.94168916824E-01 -0.42167288734E-01  0.58459799046E-01  0.88795462341E+00  0.88000000000E+00 0.  1.
        -11    1    4    4    0    0 -0.21928446106E-01  0.70626079117E-02 -0.23780602757E-01  0.33113673424E-01  0.51100000000E-03 0.  1.
         11    1    4    4    0    0 -0.85154051165E-01  0.18069544443E-01 -0.46228231588E-01  0.98564858763E-01  0.51100000000E-03 0. -1.
</event>
<event>
 8    1  0.1063984E+005  0.1043930E+01  0.7957747E-01            NaN
         13   -1    0    0    0    0  0.00000000000E+00  0.00000000000E+00  0.74505805969E-08  0.10566000000E+00  0.10566000000E+00 0.  1.
     999900   -1    0    0    0    0 -0.00000000000E+00 -0.00000000000E+00 -0.74505805969E-08  0.93827000000E+00  0.93827000000E+00 0.  1.
     999902    2    1    2    0    0 -0.14606575258E-01 -0.94026102310E-02  0.15338355486E-01  0.10207561728E+01  0.10204930857E+01 0.  0.
     999903    2    3    3    0    0 -0.33175664647E-01 -0.10492563004E-01 -0.12331080706E+00  0.12970646071E+00  0.20186436207E-01 0.  0.
         14    1    1    2    0    0  0.14606575258E-01  0.94026102310E-02 -0.15338355486E-01  0.23173827240E-01  0.00000000000E+00 0. -1.
     999901    1    3    3    0    0  0.18569089389E-01  0.10899527726E-02  0.13864916255E+00  0.89104971206E+00  0.88000000000E+00 0. -1.
        -11    1    4    4    0    0 -0.22087786716E-01  0.13158617480E-02 -0.89733268801E-01  0.92422521416E-01  0.51100000000E-03 0. -1.
         11    1    4    4    0    0 -0.11087877931E-01 -0.11808424752E-01 -0.33577538263E-01  0.37283939289E-01  0.51100000000E-03 0.  1.
</event>
<event>
 8    1  0.1063984E+005  0.1043930E+01  0.7957747E-01            NaN
         13   -1    0    0    0    0  0.00000000000E+00  0.00000000000E+00  0.74505805969E-08  0.10566000000E+00  0.10566000000E+00 0. -1.
     999900   -1    0    0    0    0 -0.00000000000E+00 -0.00000000000E+00 -0.74505805969E-08  0.93827000000E+00  0.93827000000E+00 0.  1.
     999902    2    1    2    0    0  0.28155607908E-02 -0.12295888025E-01  0.22098778348E-01  0.10184845240E+01  0.10181666138E+01 0.  0.
     999903    2    3    3    0    0 -0.81164165789E-01 -0.87211958185E-01 -0.44290370014E-01  0.12883710447E+00  0.21066920820E-01 0.  0.
         14    1    1    2    0    0 -0.28155607908E-02  0.12295888025E-01 -0.22098778348E-01  0.25445476009E-01  0.00000000000E+00 0.  1.
     999901    1    3    3    0    0  0.83979726579E-01  0.74916070160E-01  0.66389148361E-01  0.88964741952E+00  0.88000000000E+00 0.  1.
        -11    1    4    4    0    0 -0.39921227917E-01 -0.55612255641E-01 -0.31317723455E-01  0.75282722715E-01  0.51100000000E-03 0. -1.
         11    1    4    4    0    0 -0.41242937872E-01 -0.31599702544E-01 -0.12972646558E-01  0.53554381752E-01  0.51100000000E-03 0.  1.
</event>
<event>
 8    1  0.1063984E+005  0.1043930E+01  0.7957747E-01            NaN
         13   -1    0    0    0    0  0.00000000000E+00  0.00000000000E+00  0.74505805969E-08  0.10566000000E+00  0.10566000000E+00 0. -1.
     999900   -1    0    0    0    0 -0.00000000000E+00 -0.00000000000E+00 -0.74505805969E-08  0.93827000000E+00  0.93827000000E+00 0.  1.
     999902    2    1    2    0    0 -0.59530466450E-02 -0.44628782730E-02 -0.17111711409E-01  0.10252707740E+01  0.10251009674E+01 0.  0.
     999903    2    3    3    0    0  0.11825747125E+00 -0.53969080386E-01  0.26302683588E-01  0.13411201909E+00  0.19917614176E-01 0.  0.
         14    1    1    2    0    0  0.59530466450E-02  0.44628782730E-02  0.17111711409E-01  0.18659225980E-01  0.00000000000E+00 0. -1.
     999901    1    3    3    0    0 -0.12421051790E+00  0.49506202113E-01 -0.43414394996E-01  0.89115875493E+00  0.88000000000E+00 0.  1.
        -11    1    4    4    0    0  0.93774511229E-01 -0.34305737178E-01  0.23496328604E-01  0.10258109542E+00  0.51100000000E-03 0.  1.
         11    1    4    4    0    0  0.24482960023E-01 -0.19663343208E-01  0.28063549840E-02  0.31530923661E-01  0.51100000000E-03 0. -1.
</event>
<event>
 8    1  0.1063984E+005  0.1043930E+01  0.7957747E-01            NaN
         13   -1    0    0    0    0  0.00000000000E+00  0.00000000000E+00  0.74505805969E-08  0.10566000000E+00  0.10566000000E+00 0. -1.
     999900   -1    0    0    0    0 -0.00000000000E+00 -0.00000000000E+00 -0.74505805969E-08  0.93827000000E+00  0.93827000000E+00 0.  1.
     999902    2    1    2    0    0 -0.36825656416E-02  0.10797940011E-01 -0.12482370866E-01  0.10270194595E+01  0.10268802285E+01 0.  0.
     999903    2    3    3    0    0  0.27426723406E-01  0.93753941220E-01 -0.96250080307E-01  0.13861273104E+00  0.20183770590E-01 0.  0.
         14    1    1    2    0    0  0.36825656416E-02 -0.10797940011E-01  0.12482370866E-01  0.16910540518E-01  0.00000000000E+00 0. -1.
     999901    1    3    3    0    0 -0.31109289047E-01 -0.82956001209E-01  0.83767709441E-01  0.88840672845E+00  0.88000000000E+00 0. -1.
        -11    1    4    4    0    0  0.33768907917E-02  0.47079420826E-01 -0.47395940508E-01  0.66891789887E-01  0.51100000000E-03 0.  1.
         11    1    4    4    0    0  0.24049832614E-01  0.46674520395E-01 -0.48854139799E-01  0.71720941149E-01  0.51100000000E-03 0. -1.
</event>
<event>
 8    1  0.1063984E+005  0.1043930E+01  0.7957747E-01            NaN
         13   -1    0    0    0    0  0.00000000000E+00  0.00000000000E+00  0.74505805969E-08  0.10566000000E+00  0.10566000000E+00 0. -1.
     999900   -1    0    0    0    0 -0.00000000000E+00 -0.00000000000E+00 -0.74505805969E-08  0.93827000000E+00  0.93827000000E+00 0.  1.
     999902    2    1    2    0    0  0.23335693436E-01 -0.51531725136E-02  0.48654519935E-02  0.10195418390E+01  0.10192501062E+01 0.  0.
     999903    2    3    3    0    0  0.10339616348E+00  0.58542791311E-01  0.54242691698E-01  0.13223976726E+00  0.20665464078E-01 0.  0.
         14    1    1    2    0    0 -0.23335693436E-01  0.51531725136E-02 -0.48654519935E-02  0.24388161025E-01  0.00000000000E+00 0.  1.
     999901    1    3    3    0    0 -0.80060470041E-01 -0.63695963824E-01 -0.49377239705E-01  0.88730207172E+00  0.88000000000E+00 0.  1.
        -11    1    4    4    0    0  0.23940317440E-01  0.14890000971E-01  0.36880689482E-02  0.28437895520E-01  0.51100000000E-03 0. -1.
         11    1    4    4    0    0  0.79455846037E-01  0.43652790340E-01  0.50554622750E-01  0.10380187174E+00  0.51100000000E-03 0.  1.
</event>
<event>
 8    1  0.1063984E+005  0.1043930E+01  0.7957747E-01            NaN
         13   -1    0    0    0    0  0.00000000000E+00  0.00000000000E+00  0.74505805969E-08  0.10566000000E+00  0.10566000000E+00 0.  1.
     999900   -1    0    0    0    0 -0.00000000000E+00 -0.00000000000E+00 -0.74505805969E-08  0.93827000000E+00  0.93827000000E+00 0. -1.
     999902    2    1    2    0    0 -0.22752175632E-01  0.11047958181E-01  0.14823113405E-02  0.10185939363E+01  0.10182787884E+01 0.  0.
     999903    2    3    3    0    0 -0.11150141955E+00  0.67929167009E-01 -0.29382242991E-02  0.13229182002E+00  0.21108154615E-01 0.  0.
         14    1    1    2    0    0  0.22752175632E-01 -0.11047958181E-01 -0.14823113405E-02  0.25336063681E-01  0.00000000000E+00 0.  1.
     999901    1    3    3    0    0  0.88749243917E-01 -0.56881208828E-01  0.44205356396E-02  0.88630211630E+00  0.88000000000E+00 0. -1.
        -11    1    4    4    0    0 -0.50663021123E-01  0.19091286752E-01  0.13084828019E-02  0.54158952976E-01  0.51100000000E-03 0.  1.
         11    1    4    4    0    0 -0.60838398426E-01  0.48837880257E-01 -0.42467071010E-02  0.78132867048E-01  0.51100000000E-03 0. -1.
</event>
<event>
 8    1  0.1063984E+005  0.1043930E+01  0.7957747E-01            NaN
         13   -1    0    0    0    0  0.00000000000E+00  0.00000000000E+00  0.74505805969E-08  0.10566000000E+00  0.10566000000E+00 0.  1.
     999900   -1    0    0    0    0 -0.00000000000E+00 -0.00000000000E+00 -0.74505805969E-08  0.93827000000E+00  0.93827000000E+00 0. -1.
     999902    2    1    2    0    0 -0.10737196096E-01  0.20298351741E-01 -0.42562235834E-02  0.10205756449E+01  0.10203083951E+01 0.  0.
     999903    2    3    3    0    0  0.11875108389E+00  0.22799290301E-01  0.43151031525E-01  0.12983386571E+00  0.19318219393E-01 0.  0.
         14    1    1    2    0    0  0.10737196096E-01 -0.20298351741E-01  0.42562235834E-02  0.23354355110E-01  0.00000000000E+00 0.  1.
     999901    1    3    3    0    0 -0.12948827998E+00 -0.25009385602E-02 -0.47407255109E-01  0.89074177918E+00  0.88000000000E+00 0.  1.
        -11    1    4    4    0    0  0.84540722554E-01  0.10291073963E-01  0.23064561594E-01  0.88234205928E-01  0.51100000000E-03 0.  1.
         11    1    4    4    0    0  0.34210361331E-01  0.12508216338E-01  0.20086469932E-01  0.41599659779E-01  0.51100000000E-03 0. -1.
</event>
<event>
 8    1  0.1063984E+005  0.1043930E+01  0.7957747E-01            NaN
         13   -1    0    0    0    0  0.00000000000E+00  0.00000000000E+00  0.74505805969E-08  0.10566000000E+00  0.10566000000E+00 0.  1.
     999900   -1    0    0    0    0 -0.00000000000E+00 -0.00000000000E+00 -0.74505805969E-08  0.93827000000E+00  0.93827000000E+00 0.  1.
     999902    2    1    2    0    0 -0.21311383400E-01  0.24339228521E-02 -0.95869471184E-02  0.10204351368E+01  0.10201646239E+01 0.  0.
     999903    2    3    3    0    0 -0.99760006202E-01 -0.72416900775E-01 -0.45311294816E-01  0.13306088583E+00  0.21349930809E-01 0.  0.
         14    1    1    2    0    0  0.21311383400E-01 -0.24339228521E-02  0.95869471184E-02  0.23494863224E-01  0.00000000000E+00 0.  1.
     999901    1    3    3    0    0  0.78448622802E-01  0.74850823627E-01  0.35724347697E-01  0.88737425094E+00  0.88000000000E+00 0.  1.
        -11    1    4    4    0    0 -0.21437808475E-01 -0.21686302886E-01 -0.19645543248E-01  0.36277870053E-01  0.51100000000E-03 0.  1.
         11    1    4    4    0    0 -0.78322197727E-01 -0.50730597888E-01 -0.25665751568E-01  0.96783015780E-01  0.51100000000E-03 0. -1.
</event>
<event>
 8    1  0.1063984E+005  0.1043930E+01  0.7957747E-01            NaN
         13   -1    0    0    0    0  0.00000000000E+00  0.00000000000E+00  0.74505805969E-08  0.10566000000E+00  0.10566000000E+00 0.  1.
     999900   -1    0    0    0    0 -0.00000000000E+00 -0.00000000000E+00 -0.74505805969E-08  0.93827000000E+00  0.93827000000E+00 0.  1.
     999902    2    1    2    0    0  0.15165603690E-01  0.10461906009E-01 -0.15015416137E-01  0.10201621702E+01  0.10198852601E+01 0.  0.
     999903    2    3    3    0    0  0.27009297679E-01  0.88233446745E-01 -0.93716024583E-01  0.13315457641E+00  0.20803958024E-01 0.  0.
         14    1    1    2    0    0 -0.15165603690E-01 -0.10461906009E-01  0.15015416137E-01  0.23767829821E-01  0.00000000000E+00 0.  1.
     999901    1    3    3    0    0 -0.11843693989E-01 -0.77771540736E-01  0.78700608446E-01  0.88700759377E+00  0.88000000000E+00 0. -1.
        -11    1    4    4    0    0  0.19724409040E-01  0.31900481228E-01 -0.42314092192E-01  0.56545879899E-01  0.51100000000E-03 0. -1.
         11    1    4    4    0    0  0.72848886395E-02  0.56332965518E-01 -0.51401932391E-01  0.76608696510E-01  0.51100000000E-03 0.  1.
</event>
<event>
 8    1  0.1063984E+005  0.1043930E+01  0.7957747E-01            NaN
         13   -1    0    0    0    0  0.00000000000E+00  0.00000000000E+00  0.74505805969E-08  0.10566000000E+00  0.10566000000E+00 0. -1.
     999900   -1    0    0    0    0 -0.00000000000E+00 -0.00000000000E+00 -0.74505805969E-08  0.93827000000E+00  0.93827000000E+00 0. -1.
     999902    2    1    2    0    0 -0.25260962631E-01  0.12799067911E-02  0.72380804663E-02  0.10176213664E+01  0.10172812301E+01 0.  0.
     999903    2    3    3    0    0 -0.70826732743E-02 -0.85892726683E-01  0.93789971514E-01  0.12890276745E+00  0.19789894939E-01 0.  0.
         14    1    1    2    0    0  0.25260962631E-01 -0.12799067911E-02 -0.72380804663E-02  0.26308633626E-01  0.00000000000E+00 0. -1.
     999901    1    3    3    0    0 -0.18178289357E-01  0.87172633474E-01 -0.86551891047E-01  0.88871859892E+00  0.88000000000E+00 0. -1.
        -11    1    4    4    0    0 -0.12857452556E-01 -0.62322849622E-01  0.61414681723E-01  0.88439108563E-01  0.51100000000E-03 0.  1.
         11    1    4    4    0    0  0.57747792816E-02 -0.23569877061E-01  0.32375289791E-01  0.40463658886E-01  0.51100000000E-03 0. -1.
</event>
<event>
 8    1  0.1063984E+005  0.1043930E+01  0.7957747E-01            NaN
         13   -1    0    0    0    0  0.00000000000E+00  0.00000000000E+00  0.74505805969E-08  0.10566000000E+00  0.10566000000E+00 0. -1.
     999900   -1    0    0    0    0 -0.00000000000E+00 -0.00000000000E+00 -0.74505805969E-08  0.93827000000E+00  0.93827000000E+00 0.  1.
     999902    2    1    2    0    0  0.11131557025E-01 -0.14984994740E-01  0.46690426159E-02  0.10246878175E+01  0.10245071311E+01 0.  0.
     999903    2    3    3    0    0 -0.81436195887E-01  0.10191164098E+00 -0.10287013647E-02  0.13212629209E+00  0.20939490593E-01 0.  0.
         14    1    1    2    0    0 -0.11131557025E-01  0.14984994740E-01 -0.46690426159E-02  0.19242182520E-01  0.00000000000E+00 0.  1.
     999901    1    3    3    0    0  0.92567752912E-01 -0.11689663572E+00  0.56977439807E-02  0.89256152539E+00  0.88000000000E+00 0.  1.
        -11    1    4    4    0    0 -0.12115990339E-01  0.10928348876E-01 -0.65984811640E-02  0.17607586596E-01  0.51100000000E-03 0. -1.
         11    1    4    4    0    0 -0.69320205547E-01  0.90983292108E-01  0.55697797992E-02  0.11451870549E+00  0.51100000000E-03 0.  1.
</event>
<event>
 8    1  0.1063984E+005  0.1043930E+01  0.7957747E-01            NaN
         13   -1    0    0    0    0  0.00000000000E+00  0.00000000000E+00  0.74505805969E-08  0.10566000000E+00  0.10566000000E+00 0.  1.
     999900   -1    0    0    0    0 -0.00000000000E+00 -0.00000000000E+00 -0.74505805969E-08  0.93827000000E+00  0.93827000000E+00 0. -1.
     999902    2    1    2    0    0  0.72678386095E-02 -0.16495755674E-01 -0.15055207001E-01  0.10204440320E+01  0.10201737263E+01 0.  0.
     999903    2    3    3    0    0  0.11044630509E-01 -0.68831031931E-02 -0.13068232947E+00  0.13282006960E+00  0.19847888553E-01 0.  0.
         14    1    1    2    0    0 -0.72678386095E-02  0.16495755674E-01  0.15055207001E-01  0.23485967963E-01  0.00000000000E+00 0.  1.
     999901    1    3    3    0    0 -0.37767918993E-02 -0.96126524806E-02  0.11562712247E+00  0.88762396244E+00  0.88000000000E+00 0.  1.
        -11    1    4    4    0    0  0.11202690635E-01 -0.42576841976E-02 -0.33193758381E-01  0.35294686124E-01  0.51100000000E-03 0.  1.
         11    1    4    4    0    0 -0.15806012572E-03 -0.26254189955E-02 -0.97488571089E-01  0.97525383474E-01  0.51100000000E-03 0. -1.
</event>
<event>
 8    1  0.1106649E+005  0.1043930E+01  0.7957747E-01            NaN
         13   -1    0    0    0    0  0.00000000000E+00  0.00000000000E+00  0.74505805969E-08  0.10566000000E+00  0.10566000000E+00 0. -1.
     999900   -1    0    0    0    0 -0.00000000000E+00 -0.00000000000E+00 -0.74505805969E-08  0.93827000000E+00  0.93827000000E+00 0.  1.
     999902    2    1    2    0    0 -0.16513528217E-01  0.12219725332E-01 -0.10572236170E-01  0.10208260939E+01  0.10205646101E+01 0.  0.
     999903    2    3    3    0    0 -0.11516077414E-01  0.11374868475E+00  0.62908834025E-01  0.13193207780E+00  0.19420824661E-01 0.  0.
         14    1    1    2    0    0  0.16513528217E-01 -0.12219725332E-01  0.10572236170E-01  0.23103906142E-01  0.00000000000E+00 0. -1.
     999901    1    3    3    0    0 -0.49974508024E-02 -0.10152895942E+00 -0.73481070195E-01  0.88889401606E+00  0.88000000000E+00 0. -1.
        -11    1    4    4    0    0 -0.15170213763E-01  0.54378784428E-01  0.29238521489E-01  0.63579397932E-01  0.51100000000E-03 0.  1.
         11    1    4    4    0    0  0.36541363485E-02  0.59369900326E-01  0.33670312536E-01  0.68352679863E-01  0.51100000000E-03 0. -1.
</event>
<event>
 8    1  0.1063984E+005  0.1043930E+01  0.7957747E-01            NaN
         13   -1    0    0    0    0  0.00000000000E+00  0.00000000000E+00  0.74505805969E-08  0.10566000000E+00  0.10566000000E+00 0. -1.
     999900   -1    0    0    0    0 -0.00000000000E+00 -0.00000000000E+00 -0.74505805969E-08  0.93827000000E+00  0.93827000000E+00 0. -1.
     999902    2    1    2    0    0  0.19499818368E-02  0.60699648571E-02 -0.21432502065E-01  0.10215693415E+01  0.10213245912E+01 0.  0.
     999903    2    3    3    0    0 -0.26149583363E-02 -0.66123294560E-01  0.10886398928E+00  0.12903929663E+00  0.20509603202E-01 0.  0.
         14    1    1    2    0    0 -0.19499818368E-02 -0.60699648571E-02  0.21432502065E-01  0.22360658472E-01  0.00000000000E+00 0. -1.
     999901    1    3    3    0    0  0.45649401731E-02  0.72193259417E-01 -0.13029649134E+00  0.89253004490E+00  0.88000000000E+00 0. -1.
        -11    1    4    4    0    0  0.47112887443E-02 -0.40450408517E-01  0.50649850857E-01  0.64993078891E-01  0.51100000000E-03 0. -1.
         11    1    4    4    0    0 -0.73262470806E-02 -0.25672886043E-01  0.58214138420E-01  0.64046217742E-01  0.51100000000E-03 0.  1.
</event>
<event>
 8    1  0.1063984E+005  0.1043930E+01  0.7957747E-01            NaN
         13   -1    0    0    0    0  0.00000000000E+00  0.00000000000E+00  0.74505805969E-08  0.10566000000E+00  0.10566000000E+00 0.  1.
     999900   -1    0    0    0    0 -0.00000000000E+00 -0.00000000000E+00 -0.74505805969E-08  0.93827000000E+00  0.93827000000E+00 0.  1.
     999902    2    1    2    0    0  0.15519033597E-01  0.16422319549E-01 -0.81553775444E-02  0.10199082772E+01  0.10196253482E+01 0.  0.
     999903    2    3    3    0    0 -0.79103478661E-01 -0.97700864526E-01 -0.55883878187E-02  0.12750471916E+00  0.20576784618E-01 0.  0.
         14    1    1    2    0    0 -0.15519033597E-01 -0.16422319549E-01  0.81553775444E-02  0.24021722795E-01  0.00000000000E+00 0.  1.
     999901    1    3    3    0    0  0.94622512257E-01  0.11412318407E+00 -0.25669897257E-02  0.89240355804E+00  0.88000000000E+00 0.  1.
        -11    1    4    4    0    0 -0.25116895678E-01 -0.25132684581E-01  0.68964315218E-02  0.36198510626E-01  0.51100000000E-03 0. -1.
         11    1    4    4    0    0 -0.53986582982E-01 -0.72568179945E-01 -0.12484819341E-01  0.91306208538E-01  0.51100000000E-03 0.  1.
</event>
<event>
 8    1  0.1063984E+005  0.1043930E+01  0.7957747E-01            NaN
         13   -1    0    0    0    0  0.00000000000E+00  0.00000000000E+00  0.74505805969E-08  0.10566000000E+00  0.10566000000E+00 0. -1.
     999900   -1    0    0    0    0 -0.00000000000E+00 -0.00000000000E+00 -0.74505805969E-08  0.93827000000E+00  0.93827000000E+00 0. -1.
     999902    2    1    2    0    0 -0.17627499251E-01  0.42480302116E-02  0.19060008853E-01  0.10176229966E+01  0.10172829030E+01 0.  0.
     999903    2    3    3    0    0  0.38010338445E-01  0.11703342974E+00 -0.26618872945E-01  0.12750914120E+00  0.20209086736E-01 0.  0.
         14    1    1    2    0    0  0.17627499251E-01 -0.42480302116E-02 -0.19060008853E-01  0.26307003402E-01  0.00000000000E+00 0.  1.
     999901    1    3    3    0    0 -0.55637837696E-01 -0.11278539953E+00  0.45678881798E-01  0.89011385540E+00  0.88000000000E+00 0.  1.
        -11    1    4    4    0    0  0.16109767235E-01  0.22990769609E-01 -0.76768594360E-02  0.29108338657E-01  0.51100000000E-03 0.  1.
         11    1    4    4    0    0  0.21900571211E-01  0.94042660133E-01 -0.18942013509E-01  0.98400802543E-01  0.51100000000E-03 0. -1.
</event>
<event>
 8    1  0.1063984E+005  0.1043930E+01  0.7957747E-01            NaN
         13   -1    0    0    0    0  0.00000000000E+00  0.00000000000E+00  0.74505805969E-08  0.10566000000E+00  0.10566000000E+00 0. -1.
     999900   -1    0    0    0    0 -0.00000000000E+00 -0.00000000000E+00 -0.74505805969E-08  0.93827000000E+00  0.93827000000E+00 0. -1.
     999902    2    1    2    0    0  0.17897909015E-01  0.80781424241E-02  0.81264140637E-02  0.10226784086E+01  0.10224575772E+01 0.  0.
     999903    2    3    3    0    0 -0.60073334320E-01  0.26409466544E-01 -0.11159300349E+00  0.13096752990E+00  0.19830028740E-01 0.  0.
         14    1    1    2    0    0 -0.17897909015E-01 -0.80781424241E-02 -0.81264140637E-02  0.21251591415E-01  0.00000000000E+00 0.  1.
     999901    1    3    3    0    0  0.77971243335E-01 -0.18331324120E-01  0.11971941755E+00  0.89171087869E+00  0.88000000000E+00 0.  1.
        -11    1    4    4    0    0 -0.26776972718E-01  0.49618143103E-02 -0.60256083724E-01  0.66126262680E-01  0.51100000000E-03 0.  1.
         11    1    4    4    0    0 -0.33296361602E-01  0.21447652233E-01 -0.51336919766E-01  0.64841267217E-01  0.51100000000E-03 0. -1.
</event>
<event>
 8    1  0.1063984E+005  0.1043930E+01  0.7957747E-01            NaN
         13   -1    0    0    0    0  0.00000000000E+00  0.00000000000E+00  0.74505805969E-08  0.10566000000E+00  0.10566000000E+00 0. -1.
     999900   -1    0    0    0    0 -0.00000000000E+00 -0.00000000000E+00 -0.74505805969E-08  0.93827000000E+00  0.93827000000E+00 0.  1.
     999902    2    1    2    0    0  0.10149528564E-01 -0.74658875869E-03  0.21335119700E-01  0.10202919447E+01  0.10200180855E+01 0.  0.
     999903    2    3    3    0    0  0.28404209811E-01  0.10199353426E+00 -0.71555951100E-01  0.12927145264E+00  0.19528803486E-01 0.  0.
         14    1    1    2    0    0 -0.10149528564E-01  0.74658875869E-03 -0.21335119700E-01  0.23638055281E-01  0.00000000000E+00 0. -1.
     999901    1    3    3    0    0 -0.18254681247E-01 -0.10274012302E+00  0.92891070800E-01  0.89102049208E+00  0.88000000000E+00 0. -1.
        -11    1    4    4    0    0  0.12904009484E-01  0.77488636054E-01 -0.49717882255E-01  0.92968441502E-01  0.51100000000E-03 0.  1.
         11    1    4    4    0    0  0.15500200328E-01  0.24504898202E-01 -0.21838068844E-01  0.36303011142E-01  0.51100000000E-03 0. -1.
</event>
<event>
 7    1  0.1755822E+005  0.1043930E+01  0.7957747E-01            NaN
         13   -1    0    0    0    0  0.00000000000E+00  0.00000000000E+00  0.74505805969E-08  0.10566000000E+00  0.10566000000E+00 0. -1.
     999900   -1    0    0    0    0 -0.00000000000E+00 -0.00000000000E+00 -0.74505805969E-08  0.93827000000E+00  0.93827000000E+00 0. -1.
     999903    2    1    2    0    0  0.16092751238E-01  0.68876630564E-01 -0.65019233116E-01  0.98146788887E-01  0.20058031147E-01 0.  0.
         14    1    1    2    0    0 -0.33675616856E-01  0.26287011745E-01 -0.34486758835E-01  0.54903467031E-01  0.00000000000E+00 0.  1.
     999901    1    1    2    0    0  0.17582865618E-01 -0.95163642310E-01  0.99505991951E-01  0.89087974408E+00  0.88000000000E+00 0.  1.
        -11    1    3    3    0    0  0.14786532415E-01  0.25372817458E-01 -0.32558314270E-01  0.43848903700E-01  0.51100000000E-03 0. -1.
         11    1    3    3    0    0  0.13062188238E-02  0.43503813107E-01 -0.32460918846E-01  0.54297885187E-01  0.51100000000E-03 0.  1.
</event>
<event>
 8    1  0.1063984E+005  0.1043930E+01  0.7957747E-01            NaN
         13   -1    0    0    0    0  0.00000000000E+00  0.00000000000E+00  0.74505805969E-08  0.10566000000E+00  0.10566000000E+00 0.  1.
     999900   -1    0    0    0    0 -0.00000000000E+00 -0.00000000000E+00 -0.74505805969E-08  0.93827000000E+00  0.93827000000E+00 0. -1.
     999902    2    1    2    0    0  0.60189349552E-02  0.93833411151E-02 -0.20631239145E-01  0.10204795694E+01  0.10202100905E+01 0.  0.
     999903    2    3    3    0    0 -0.62160764691E-01 -0.46736646569E-01  0.99619316618E-01  0.12792250081E+00  0.19796039260E-01 0.  0.
         14    1    1    2    0    0 -0.60189349552E-02 -0.93833411151E-02  0.20631239145E-01  0.23450430638E-01  0.00000000000E+00 0.  1.
     999901    1    3    3    0    0  0.68179699646E-01  0.56119987684E-01 -0.12025055576E+00  0.89255706855E+00  0.88000000000E+00 0. -1.
        -11    1    4    4    0    0 -0.14112100429E-01 -0.85710750322E-02  0.10007362550E-01  0.19313806770E-01  0.51100000000E-03 0.  1.
         11    1    4    4    0    0 -0.48048664261E-01 -0.38165571537E-01  0.89611954068E-01  0.10860869404E+00  0.51100000000E-03 0. -1.
</event>
<event>
 8    1  0.1063984E+005  0.1043930E+01  0.7957747E-01            NaN
         13   -1    0    0    0    0  0.00000000000E+00  0.00000000000E+00  0.74505805969E-08  0.10566000000E+00  0.10566000000E+00 0.  1.
     999900   -1    0    0    0    0 -0.00000000000E+00 -0.00000000000E+00 -0.74505805969E-08  0.93827000000E+00  0.93827000000E+00 0. -1.
     999902    2    1    2    0    0 -0.68863855359E-02 -0.20540977687E-01  0.63687079354E-02  0.10213487133E+01  0.10210990547E+01 0.  0.
     999903    2    3    3    0    0 -0.15595474347E-01  0.10796048542E+00 -0.65850093341E-01  0.12904605748E+00  0.20444190514E-01 0.  0.
         14    1    1    2    0    0  0.68863855359E-02  0.20540977687E-01 -0.63687079354E-02  0.22581286740E-01  0.00000000000E+00 0.  1.
     999901    1    3    3    0    0  0.87090888106E-02 -0.12850146311E+00  0.72218801276E-01  0.89230265578E+00  0.88000000000E+00 0.  1.
        -11    1    4    4    0    0 -0.16416238538E-01  0.51713222520E-01 -0.38241402141E-01  0.66380842341E-01  0.51100000000E-03 0.  1.
         11    1    4    4    0    0  0.82076419154E-03  0.56247262904E-01 -0.27608691200E-01  0.62665215142E-01  0.51100000000E-03 0. -1.
</event>
<event>
 8    1  0.1063984E+005  0.1043930E+01  0.7957747E-01            NaN
         13   -1    0    0    0    0  0.00000000000E+00  0.00000000000E+00  0.74505805969E-08  0.10566000000E+00  0.10566000000E+00 0. -1.
     999900   -1    0    0    0    0 -0.00000000000E+00 -0.00000000000E+00 -0.74505805969E-08  0.93827000000E+00  0.93827000000E+00 0.  1.
     999902    2    1    2    0    0  0.13215257768E-01 -0.10470695085E-01 -0.16482183187E-01  0.10203516019E+01  0.10200791394E+01 0.  0.
     999903    2    3    3    0    0 -0.98281696517E-01  0.19555969554E-01 -0.81264371728E-01  0.13044716696E+00  0.19257139989E-01 0.  0.
         14    1    1    2    0    0 -0.13215257768E-01  0.10470695085E-01  0.16482183187E-01  0.23578398081E-01  0.00000000000E+00 0. -1.
     999901    1    3    3    0    0  0.11149695429E+00 -0.30026664638E-01  0.64782188541E-01  0.88990443496E+00  0.88000000000E+00 0.  1.
        -11    1    4    4    0    0 -0.71675386187E-01  0.99644509645E-02 -0.48274509028E-01  0.86990462759E-01  0.51100000000E-03 0. -1.
         11    1    4    4    0    0 -0.26606310330E-01  0.95915185892E-02 -0.32989862700E-01  0.43456704203E-01  0.51100000000E-03 0.  1.
</event>
<event>
 8    1  0.1063984E+005  0.1043930E+01  0.7957747E-01            NaN
         13   -1    0    0    0    0  0.00000000000E+00  0.00000000000E+00  0.74505805969E-08  0.10566000000E+00  0.10566000000E+00 0.  1.
     999900   -1    0    0    0    0 -0.00000000000E+00 -0.00000000000E+00 -0.74505805969E-08  0.93827000000E+00  0.93827000000E+00 0. -1.
     999902    2    1    2    0    0  0.11090754635E-02  0.15267600384E-01  0.18537339032E-01  0.10198891471E+01  0.10196057619E+01 0.  0.
     999903    2    3    3    0    0  0.11379255332E+00  0.74225495222E-02 -0.57733491039E-01  0.12939695144E+00  0.20163720470E-01 0.  0.
         14    1    1    2    0    0 -0.11090754635E-02 -0.15267600384E-01 -0.18537339032E-01  0.24040852903E-01  0.00000000000E+00 0. -1.
     999901    1    3    3    0    0 -0.11268347785E+00  0.78450508620E-02  0.76270830072E-01  0.89049219566E+00  0.88000000000E+00 0.  1.
        -11    1    4    4    0    0  0.13416869588E-01 -0.47849746755E-02 -0.10991789219E-01  0.17999692315E-01  0.51100000000E-03 0.  1.
         11    1    4    4    0    0  0.10037568373E+00  0.12207524198E-01 -0.46741701820E-01  0.11139725913E+00  0.51100000000E-03 0. -1.
</event>
<event>
 8    1  0.1063984E+005  0.1043930E+01  0.7957747E-01            NaN
         13   -1    0    0    0    0  0.00000000000E+00  0.00000000000E+00  0.74505805969E-08  0.10566000000E+00  0.10566000000E+00 0. -1.
     999900   -1    0    0    0    0 -0.00000000000E+00 -0.00000000000E+00 -0.74505805969E-08  0.93827000000E+00  0.93827000000E+00 0.  1.
     999902    2    1    2    0    0 -0.54160359558E-02  0.12522421069E-01 -0.15562372621E-01  0.10232338188E+01  0.10230244943E+01 0.  0.
     999903    2    3    3    0    0  0.11638453622E+00 -0.50457983138E-01 -0.32551589427E-01  0.13245295675E+00  0.19819471371E-01 0.  0.
         14    1    1    2    0    0  0.54160359558E-02 -0.12522421069E-01  0.15562372621E-01  0.20696181206E-01  0.00000000000E+00 0. -1.
     999901    1    3    3    0    0 -0.12180057217E+00  0.62980404207E-01  0.16989216806E-01  0.89078086204E+00  0.88000000000E+00 0.  1.
        -11    1    4    4    0    0  0.10680893167E+00 -0.49738957403E-01 -0.34222052878E-01  0.12269279438E+00  0.51100000000E-03 0. -1.
         11    1    4    4    0    0  0.95756045433E-02 -0.71902573479E-03  0.16704634506E-02  0.97601623715E-02  0.51100000000E-03 0.  1.
</event>
<event>
 8    1  0.1063984E+005  0.1043930E+01  0.7957747E-01            NaN
         13   -1    0    0    0    0  0.00000000000E+00  0.00000000000E+00  0.74505805969E-08  0.10566000000E+00  0.10566000000E+00 0. -1.
     999900   -1    0    0    0    0 -0.00000000000E+00 -0.00000000000E+00 -0.74505805969E-08  0.93827000000E+00  0.93827000000E+00 0.  1.
     999902    2    1    2    0    0  0.21753889579E-01 -0.14901441220E-02 -0.83043574559E-02  0.10205973063E+01  0.10203305578E+01 0.  0.
     999903    2    3    3    0    0  0.41987768712E-01 -0.16220431166E-01  0.12116863799E+00  0.13077167859E+00  0.19832245959E-01 0.  0.
         14    1    1    2    0    0 -0.21753889579E-01  0.14901441220E-02  0.83043574559E-02  0.23332693674E-01  0.00000000000E+00 0. -1.
     999901    1    3    3    0    0 -0.20233879133E-01  0.14730287044E-01 -0.12947299545E+00  0.88982562773E+00  0.88000000000E+00 0.  1.
        -11    1    4    4    0    0  0.40792973073E-01 -0.12517830204E-01  0.92903229153E-01  0.10223518882E+00  0.51100000000E-03 0. -1.
         11    1    4    4    0    0  0.11947956388E-02 -0.37026009622E-02  0.28265408842E-01  0.28536489772E-01  0.51100000000E-03 0.  1.
</event>
<event>
 8    1  0.1063984E+005  0.1043930E+01  0.7957747E-01            NaN
         13   -1    0    0    0    0  0.00000000000E+00  0.00000000000E+00  0.74505805969E-08  0.10566000000E+00  0.10566000000E+00 0. -1.
     999900   -1    0    0    0    0 -0.00000000000E+00 -0.00000000000E+00 -0.74505805969E-08  0.93827000000E+00  0.93827000000E+00 0.  1.
     999902    2    1    2    0    0 -0.76530061932E-02 -0.20280438696E-01  0.86307077967E-02  0.10205986088E+01  0.10203318904E+01 0.  0.
     999903    2    3    3    0    0  0.68607727900E-01  0.86679874685E-01  0.63720052918E-01  0.12914415448E+00  0.19938567919E-01 0.  0.
         14    1    1    2    0    0  0.76530061932E-02  0.20280438696E-01 -0.86307077967E-02  0.23331391184E-01  0.00000000000E+00 0.  1.
     999901    1    3    3    0    0 -0.76260734093E-01 -0.10696031338E+00 -0.55089345121E-01  0.89145445433E+00  0.88000000000E+00 0. -1.
        -11    1    4    4    0    0  0.48541775222E-01  0.52899657856E-01  0.50128769734E-01  0.87566160239E-01  0.51100000000E-03 0. -1.
         11    1    4    4    0    0  0.20065952678E-01  0.33780216828E-01  0.13591283184E-01  0.41577994245E-01  0.51100000000E-03 0.  1.
</event>
<event>
 8    1  0.1063984E+005  0.1043930E+01  0.7957747E-01            NaN
         13   -1    0    0    0    0  0.00000000000E+00  0.00000000000E+00  0.74505805969E-08  0.10566000000E+00  0.10566000000E+00 0. -1.
     999900   -1    0    0    0    0 -0.00000000000E+00 -0.00000000000E+00 -0.74505805969E-08  0.93827000000E+00  0.93827000000E+00 0.  1.
     999902    2    1    2    0    0  0.12774680138E-01 -0.49291536061E-02  0.18458764368E-01  0.10209470718E+01  0.10206883503E+01 0.  0.
     999903    2    3    3    0    0 -0.28513483296E-01  0.95202325242E-01 -0.79626574744E-01  0.12889788073E+00  0.19944191877E-01 0.  0.
         14    1    1    2    0    0 -0.12774680138E-01  0.49291536061E-02 -0.18458764368E-01  0.22982928227E-01  0.00000000000E+00 0.  1.
     999901    1    3    3    0    0  0.41288163433E-01 -0.10013147885E+00  0.98085339112E-01  0.89204919105E+00  0.88000000000E+00 0. -1.
        -11    1    4    4    0    0 -0.26969874231E-01  0.60969315140E-01 -0.46929569341E-01  0.81530835297E-01  0.51100000000E-03 0. -1.
         11    1    4    4    0    0 -0.15436090649E-02  0.34233010102E-01 -0.32697005402E-01  0.47367045431E-01  0.51100000000E-03 0.  1.
</event>
<event>
 8    1  0.1063984E+005  0.1043930E+01  0.7957747E-01            NaN
         13   -1    0    0    0    0  0.00000000000E+00  0.00000000000E+00  0.74505805969E-08  0.10566000000E+00  0.10566000000E+00 0. -1.
     999900   -1    0    0    0    0 -0.00000000000E+00 -0.00000000000E+00 -0.74505805969E-08  0.93827000000E+00  0.93827000000E+00 0. -1.
     999902    2    1    2    0    0 -0.14222995299E-01  0.11198945804E-01  0.16710726864E-01  0.10192934748E+01  0.10189956964E+01 0.  0.
     999903    2    3    3    0    0 -0.11747933345E+00 -0.36257711209E-01  0.42757964583E-01  0.13160407851E+00  0.19374584798E-01 0.  0.
         14    1    1    2    0    0  0.14222995299E-01 -0.11198945804E-01 -0.16710726864E-01  0.24636525216E-01  0.00000000000E+00 0.  1.
     999901    1    3    3    0    0  0.10325633815E+00  0.47456657013E-01 -0.26047237719E-01  0.88768939627E+00  0.88000000000E+00 0.  1.
        -11    1    4    4    0    0 -0.84907175872E-01 -0.29289643807E-01  0.22423750589E-01  0.92575360978E-01  0.51100000000E-03 0. -1.
         11    1    4    4    0    0 -0.32572157576E-01 -0.69680674016E-02  0.20334213994E-01  0.39028717532E-01  0.51100000000E-03 0.  1.
</event>
<event>
 8    1  0.1063984E+005  0.1043930E+01  0.7957747E-01            NaN
         13   -1    0    0    0    0  0.00000000000E+00  0.00000000000E+00  0.74505805969E-08  0.10566000000E+00  0.10566000000E+00 0. -1.
     999900   -1    0    0    0    0 -0.00000000000E+00 -0.00000000000E+00 -0.74505805969E-08  0.93827000000E+00  0.93827000000E+00 0.  1.
     999902    2    1    2    0    0  0.22230527731E-01  0.40966547951E-02 -0.76890098309E-02  0.10200532369E+01  0.10197737525E+01 0.  0.
     999903    2    3    3    0    0 -0.11147147736E+00 -0.39689678968E-01  0.43076192147E-01  0.12743317500E+00  0.19557476273E-01 0.  0.
         14    1    1    2    0    0 -0.22230527731E-01 -0.40966547951E-02  0.76890098309E-02  0.23876763095E-01  0.00000000000E+00 0.  1.
     999901    1    3    3    0    0  0.13370200509E+00  0.43786333763E-01 -0.50765201978E-01  0.89262006191E+00  0.88000000000E+00 0.  1.
        -11    1    4    4    0    0 -0.21692254137E-01 -0.11956624232E-03  0.10017933833E-01  0.23899546124E-01  0.51100000000E-03 0. -1.
         11    1    4    4    0    0 -0.89779223224E-01 -0.39570112726E-01  0.33058258314E-01  0.10353362887E+00  0.51100000000E-03 0.  1.
</event>
<event>
 8    1  0.1063984E+005  0.1043930E+01  0.7957747E-01            NaN
         13   -1    0    0    0    0  0.00000000000E+00  0.00000000000E+00  0.74505805969E-08  0.10566000000E+00  0.10566000000E+00 0. -1.
     999900   -1    0    0    0    0 -0.00000000000E+00 -0.00000000000E+00 -0.74505805969E-08  0.93827000000E+00  0.93827000000E+00 0.  1.
     999902    2    1    2    0    0 -0.31877680153E-02  0.17308816784E-01  0.17492285598E-01  0.10191159504E+01  0.10188138119E+01 0.  0.
     999903    2    3    3    0    0  0.12313224766E+00  0.15478270507E-01 -0.28636597944E-01  0.12889801573E+00  0.19837248925E-01 0.  0.
         14    1    1    2    0    0  0.31877680153E-02 -0.17308816784E-01 -0.17492285598E-01  0.24814049626E-01  0.00000000000E+00 0. -1.
     999901    1    3    3    0    0 -0.12632001568E+00  0.18305462775E-02  0.46128883542E-01  0.89021793464E+00  0.88000000000E+00 0. -1.
        -11    1    4    4    0    0  0.52857433334E-01 -0.21562360109E-03 -0.49365273446E-02  0.53090349174E-01  0.51100000000E-03 0. -1.
         11    1    4    4    0    0  0.70274814331E-01  0.15693894108E-01 -0.23700070599E-01  0.75807666557E-01  0.51100000000E-03 0.  1.
</event>
<event>
 8    1  0.1063984E+005  0.1043930E+01  0.7957747E-01            NaN
         13   -1    0    0    0    0  0.00000000000E+00  0.00000000000E+00  0.74505805969E-08  0.10566000000E+00  0.10566000000E+00 0.  1.
     999900   -1    0    0    0    0 -0.00000000000E+00 -0.00000000000E+00 -0.74505805969E-08  0.93827000000E+00  0.93827000000E+00 0.  1.
     999902    2    1    2    0    0 -0.40467820614E-02 -0.22613299962E-01 -0.57897288486E-02  0.10202391001E+01  0.10199640006E+01 0.  0.
     999903    2    3    3    0    0 -0.37542547163E-01  0.14591966044E-01 -0.12311087101E+00  0.13104258156E+00  0.19836917620E-01 0.  0.
         14    1    1    2    0    0  0.40467820614E-02  0.22613299962E-01  0.57897288486E-02  0.23690899949E-01  0.00000000000E+00 0.  1.
     999901    1    3    3    0    0  0.33495765101E-01 -0.37205266006E-01  0.11732114216E+00  0.88919651849E+00  0.88000000000E+00 0. -1.
        -11    1    4    4    0    0 -0.32700147053E-01  0.36372643971E-02 -0.91054920780E-01  0.96818330025E-01  0.51100000000E-03 0. -1.
         11    1    4    4    0    0 -0.48424001094E-02  0.10954701647E-01 -0.32055950230E-01  0.34224251535E-01  0.51100000000E-03 0.  1.
</event>
<event>
 8    1  0.1063984E+005  0.1043930E+01  0.7957747E-01            NaN
         13   -1    0    0    0    0  0.00000000000E+00  0.00000000000E+00  0.74505805969E-08  0.10566000000E+00  0.10566000000E+00 0. -1.
     999900   -1    0    0    0    0 -0.00000000000E+00 -0.00000000000E+00 -0.74505805969E-08  0.93827000000E+00  0.93827000000E+00 0.  1.
     999902    2    1    2    0    0  0.16933530669E-01 -0.48311620878E-02  0.16247774293E-01  0.10199701428E+01  0.10196886865E+01 0.  0.
     999903    2    3    3    0    0 -0.92892706083E-01  0.83383256027E-01  0.22905587151E-01  0.12874182619E+00  0.21632606372E-01 0.  0.
         14    1    1    2    0    0 -0.16933530669E-01  0.48311620878E-02 -0.16247774293E-01  0.23959857210E-01  0.00000000000E+00 0.  1.
     999901    1    3    3    0    0  0.10982623675E+00 -0.88214418114E-01 -0.66578128581E-02  0.89122831660E+00  0.88000000000E+00 0.  1.
        -11    1    4    4    0    0 -0.46709461057E-01  0.38262976343E-01  0.46203120162E-03  0.60384631361E-01  0.51100000000E-03 0.  1.
         11    1    4    4    0    0 -0.46183245026E-01  0.45120279683E-01  0.22443555949E-01  0.68357194826E-01  0.51100000000E-03 0. -1.
</event>
<event>
 8    1  0.1063984E+005  0.1043930E+01  0.7957747E-01            NaN
         13   -1    0    0    0    0  0.00000000000E+00  0.00000000000E+00  0.74505805969E-08  0.10566000000E+00  0.10566000000E+00 0.  1.
     999900   -1    0    0    0    0 -0.00000000000E+00 -0.00000000000E+00 -0.74505805969E-08  0.93827000000E+00  0.93827000000E+00 0.  1.
     999902    2    1    2    0    0  0.18134494144E-01 -0.14452627882E-01  0.48551968198E-02  0.10202379915E+01  0.10199628660E+01 0.  0.
     999903    2    3    3    0    0 -0.62927329882E-01  0.94130279789E-01  0.56970844723E-01  0.12834264567E+00  0.20144456574E-01 0.  0.
         14    1    1    2    0    0 -0.18134494144E-01  0.14452627882E-01 -0.48551968198E-02  0.23692008499E-01  0.00000000000E+00 0. -1.
     999901    1    3    3    0    0  0.81061824026E-01 -0.10858290767E+00 -0.52115647903E-01  0.89189534583E+00  0.88000000000E+00 0. -1.
        -11    1    4    4    0    0 -0.31441298438E-01  0.38896689350E-01  0.15227809175E-01  0.52284366527E-01  0.51100000000E-03 0.  1.
         11    1    4    4    0    0 -0.31486031444E-01  0.55233590439E-01  0.41743035549E-01  0.76058279146E-01  0.51100000000E-03 0. -1.
</event>
<event>
 8    1  0.1063984E+005  0.1043930E+01  0.7957747E-01            NaN
         13   -1    0    0    0    0  0.00000000000E+00  0.00000000000E+00  0.74505805969E-08  0.10566000000E+00  0.10566000000E+00 0.  1.
     999900   -1    0    0    0    0 -0.00000000000E+00 -0.00000000000E+00 -0.74505805969E-08  0.93827000000E+00  0.93827000000E+00 0.  1.
     999902    2    1    2    0    0  0.16621260719E-01 -0.15424127656E-01  0.54712192294E-02  0.10206039574E+01  0.10203373627E+01 0.  0.
     999903    2    3    3    0    0 -0.38843826009E-01  0.12034680359E+00  0.98981155873E-02  0.12845502423E+00  0.20261406757E-01 0.  0.
         14    1    1    2    0    0 -0.16621260719E-01  0.15424127656E-01 -0.54712192294E-02  0.23326042564E-01  0.00000000000E+00 0.  1.
     999901    1    3    3    0    0  0.55465086728E-01 -0.13577093124E+00 -0.44268963578E-02  0.89214893321E+00  0.88000000000E+00 0. -1.
        -11    1    4    4    0    0 -0.38421756698E-01  0.95763823773E-01  0.45337736457E-02  0.10328483701E+00  0.51100000000E-03 0.  1.
         11    1    4    4    0    0 -0.42206931139E-03  0.24582979815E-01  0.53643419415E-02  0.25170187217E-01  0.51100000000E-03 0. -1.
</event>
<event>
 8    1  0.1063984E+005  0.1043930E+01  0.7957747E-01            NaN
         13   -1    0    0    0    0  0.00000000000E+00  0.00000000000E+00  0.74505805969E-08  0.10566000000E+00  0.10566000000E+00 0.  1.
     999900   -1    0    0    0    0 -0.00000000000E+00 -0.00000000000E+00 -0.74505805969E-08  0.93827000000E+00  0.93827000000E+00 0. -1.
     999902    2    1    2    0    0 -0.62579799377E-02 -0.19549368606E-01 -0.11639656476E-01  0.10203329297E+01  0.10200600304E+01 0.  0.
     999903    2    3    3    0    0 -0.46643394910E-01 -0.12218464052E+00 -0.16459715445E-01  0.13343484433E+00  0.20718175155E-01 0.  0.
         14    1    1    2    0    0  0.62579799377E-02  0.19549368606E-01  0.11639656476E-01  0.23597070341E-01  0.00000000000E+00 0.  1.
     999901    1    3    3    0    0  0.40385414972E-01  0.10263527192E+00  0.48200589691E-02  0.88689808532E+00  0.88000000000E+00 0. -1.
        -11    1    4    4    0    0 -0.45801507879E-01 -0.97628272498E-01 -0.13287328997E-01  0.10865482938E+00  0.51100000000E-03 0. -1.
         11    1    4    4    0    0 -0.84188703092E-03 -0.24556368024E-01 -0.31723864488E-02  0.24780014953E-01  0.51100000000E-03 0.  1.
</event>
<event>
 8    1  0.1063984E+005  0.1043930E+01  0.7957747E-01            NaN
         13   -1    0    0    0    0  0.00000000000E+00  0.00000000000E+00  0.74505805969E-08  0.10566000000E+00  0.10566000000E+00 0. -1.
     999900   -1    0    0    0    0 -0.00000000000E+00 -0.00000000000E+00 -0.74505805969E-08  0.93827000000E+00  0.93827000000E+00 0.  1.
     999902    2    1    2    0    0  0.79138463957E-02 -0.92096214310E-02  0.13041337061E-01  0.10261108372E+01  0.10259561041E+01 0.  0.
     999903    2    3    3    0    0 -0.67165108150E-01  0.10169119039E+00 -0.51157918381E-01  0.13366622607E+00  0.19931819372E-01 0.  0.
         14    1    1    2    0    0 -0.79138463957E-02  0.92096214310E-02 -0.13041337061E-01  0.17819162831E-01  0.00000000000E+00 0.  1.
     999901    1    3    3    0    0  0.75078954545E-01 -0.11090081182E+00  0.64199255441E-01  0.89244461110E+00  0.88000000000E+00 0. -1.
        -11    1    4    4    0    0 -0.22368189221E-01  0.30232742911E-01 -0.62900565872E-02  0.38133719538E-01  0.51100000000E-03 0. -1.
         11    1    4    4    0    0 -0.44796918928E-01  0.71458447479E-01 -0.44867861793E-01  0.95532506533E-01  0.51100000000E-03 0.  1.
</event>
<event>
 8    1  0.1063984E+005  0.1043930E+01  0.7957747E-01            NaN
         13   -1    0    0    0    0  0.00000000000E+00  0.00000000000E+00  0.74505805969E-08  0.10566000000E+00  0.10566000000E+00 0. -1.
     999900   -1    0    0    0    0 -0.00000000000E+00 -0.00000000000E+00 -0.74505805969E-08  0.93827000000E+00  0.93827000000E+00 0. -1.
     999902    2    1    2    0    0  0.18361884116E-01  0.74751634580E-02  0.13949822046E-01  0.10196888286E+01  0.10194006439E+01 0.  0.
     999903    2    3    3    0    0  0.48191810739E-01  0.38016756689E-01 -0.11209554718E+00  0.12968318334E+00  0.22013448916E-01 0.  0.
         14    1    1    2    0    0 -0.18361884116E-01 -0.74751634580E-02 -0.13949822046E-01  0.24241171427E-01  0.00000000000E+00 0. -1.
     999901    1    3    3    0    0 -0.29829926623E-01 -0.30541593231E-01  0.12604536922E+00  0.89000564523E+00  0.88000000000E+00 0.  1.
        -11    1    4    4    0    0  0.33672068972E-01  0.14521511098E-01 -0.53015502340E-01  0.64463843531E-01  0.51100000000E-03 0. -1.
         11    1    4    4    0    0  0.14519741768E-01  0.23495245591E-01 -0.59080044838E-01  0.65219339812E-01  0.51100000000E-03 0.  1.
</event>
<event>
 8    1  0.1063984E+005  0.1043930E+01  0.7957747E-01            NaN
         13   -1    0    0    0    0  0.00000000000E+00  0.00000000000E+00  0.74505805969E-08  0.10566000000E+00  0.10566000000E+00 0. -1.
     999900   -1    0    0    0    0 -0.00000000000E+00 -0.00000000000E+00 -0.74505805969E-08  0.93827000000E+00  0.93827000000E+00 0. -1.
     999902    2    1    2    0    0  0.14854984547E-01 -0.14589393115E-01 -0.64508731741E-02  0.10221324148E+01  0.10218999651E+01 0.  0.
     999903    2    3    3    0    0 -0.15788615558E-01  0.12667464904E+00  0.16034493329E-01  0.13005609990E+00  0.19019386293E-01 0.  0.
         14    1    1    2    0    0 -0.14854984547E-01  0.14589393115E-01  0.64508731741E-02  0.21797585235E-01  0.00000000000E+00 0. -1.
     999901    1    3    3    0    0  0.30643600105E-01 -0.14126404215E+00 -0.22485366503E-01  0.89207631486E+00  0.88000000000E+00 0. -1.
        -11    1    4    4    0    0 -0.19958412636E-01  0.10117016862E+00  0.10821809894E-01  0.10368757854E+00  0.51100000000E-03 0.  1.
         11    1    4    4    0    0  0.41697970776E-02  0.25504480422E-01  0.52126834343E-02  0.26368521363E-01  0.51100000000E-03 0. -1.
</event>
<event>
 8    1  0.1063984E+005  0.1043930E+01  0.7957747E-01            NaN
         13   -1    0    0    0    0  0.00000000000E+00  0.00000000000E+00  0.74505805969E-08  0.10566000000E+00  0.10566000000E+00 0. -1.
     999900   -1    0    0    0    0 -0.00000000000E+00 -0.00000000000E+00 -0.74505805969E-08  0.93827000000E+00  0.93827000000E+00 0. -1.
     999902    2    1    2    0    0  0.23320020533E-01 -0.71522189337E-02 -0.19641121279E-02  0.10194588879E+01  0.10191651430E+01 0.  0.
     999903    2    3    3    0    0 -0.22548990000E-02  0.61223863450E-01 -0.11226328314E+00  0.12957391086E+00  0.20806431907E-01 0.  0.
         14    1    1    2    0    0 -0.23320020533E-01  0.71522189337E-02  0.19641121279E-02  0.24471112149E-01  0.00000000000E+00 0. -1.
     999901    1    3    3    0    0  0.25574919533E-01 -0.68376082383E-01  0.11029917101E+00  0.88988497699E+00  0.88000000000E+00 0.  1.
        -11    1    4    4    0    0 -0.11486588937E-02  0.37485640241E-01 -0.87745788575E-01  0.95425767878E-01  0.51100000000E-03 0. -1.
         11    1    4    4    0    0 -0.11062401063E-02  0.23738223209E-01 -0.24517494565E-01  0.34148142981E-01  0.51100000000E-03 0.  1.
</event>
<event>
 8    1  0.1063984E+005  0.1043930E+01  0.7957747E-01            NaN
         13   -1    0    0    0    0  0.00000000000E+00  0.00000000000E+00  0.74505805969E-08  0.10566000000E+00  0.10566000000E+00 0.  1.
     999900   -1    0    0    0    0 -0.00000000000E+00 -0.00000000000E+00 -0.74505805969E-08  0.93827000000E+00  0.93827000000E+00 0. -1.
     999902    2    1    2    0    0 -0.10089066442E-02  0.23826765300E-01 -0.38132675391E-02  0.10197789411E+01  0.10194929205E+01 0.  0.
     999903    2    3    3    0    0  0.21234808600E-01  0.92977692958E-01  0.88856593087E-01  0.13193642311E+00  0.20395026926E-01 0.  0.
         14    1    1    2    0    0  0.10089066442E-02 -0.23826765300E-01  0.38132675391E-02  0.24151058913E-01  0.00000000000E+00 0.  1.
     999901    1    3    3    0    0 -0.22243715245E-01 -0.69150927659E-01 -0.92669860626E-01  0.88784251798E+00  0.88000000000E+00 0. -1.
        -11    1    4    4    0    0  0.14892946992E-01  0.41451944321E-01  0.29181023918E-01  0.52838024528E-01  0.51100000000E-03 0.  1.
         11    1    4    4    0    0  0.63418616079E-02  0.51525748638E-01  0.59675569169E-01  0.79098398580E-01  0.51100000000E-03 0. -1.
</event>
<event>
 8    1  0.1063984E+005  0.1043930E+01  0.7957747E-01            NaN
         13   -1    0    0    0    0  0.00000000000E+00  0.00000000000E+00  0.74505805969E-08  0.10566000000E+00  0.10566000000E+00 0.  1.
     999900   -1    0    0    0    0 -0.00000000000E+00 -0.00000000000E+00 -0.74505805969E-08  0.93827000000E+00  0.93827000000E+00 0.  1.
     999902    2    1    2    0    0 -0.10766878697E-01 -0.15624908210E-01 -0.14075981548E-01  0.10203038135E+01  0.10200302324E+01 0.  0.
     999903    2    3    3    0    0  0.10977566507E+00  0.63458730886E-01 -0.70490280934E-02  0.12854481861E+00  0.19909154378E-01 0.  0.
         14    1    1    2    0    0  0.10766878697E-01  0.15624908210E-01  0.14075981548E-01  0.23626186531E-01  0.00000000000E+00 0. -1.
     999901    1    3    3    0    0 -0.12054254377E+00 -0.79083639097E-01 -0.70269534545E-02  0.89175899486E+00  0.88000000000E+00 0. -1.
        -11    1    4    4    0    0  0.42494876299E-01  0.14050149064E-01 -0.50618277840E-02  0.45045581602E-01  0.51100000000E-03 0.  1.
         11    1    4    4    0    0  0.67280788771E-01  0.49408581822E-01 -0.19872003094E-02  0.83499237011E-01  0.51100000000E-03 0. -1.
</event>
<event>
 8    1  0.1063984E+005  0.1043930E+01  0.7957747E-01            NaN
         13   -1    0    0    0    0  0.00000000000E+00  0.00000000000E+00  0.74505805969E-08  0.10566000000E+00  0.10566000000E+00 0.  1.
     999900   -1    0    0    0    0 -0.00000000000E+00 -0.00000000000E+00 -0.74505805969E-08  0.93827000000E+00  0.93827000000E+00 0.  1.
     999902    2    1    2    0    0  0.13754885537E-01  0.18639697744E-01  0.53922142598E-02  0.10201453162E+01  0.10198680086E+01 0.  0.
     999903    2    3    3    0    0 -0.75174301301E-01  0.69494726543E-01 -0.78056621246E-01  0.13028108928E+00  0.19990835679E-01 0.  0.
         14    1    1    2    0    0 -0.13754885537E-01 -0.18639697744E-01 -0.53922142598E-02  0.23784683785E-01  0.00000000000E+00 0.  1.
     999901    1    3    3    0    0  0.88929186838E-01 -0.50855028800E-01  0.83448835505E-01  0.88986422693E+00  0.88000000000E+00 0. -1.
        -11    1    4    4    0    0 -0.59492778831E-01  0.49126352619E-01 -0.48620995202E-01  0.91197870316E-01  0.51100000000E-03 0. -1.
         11    1    4    4    0    0 -0.15681522470E-01  0.20368373924E-01 -0.29435626044E-01  0.39083218968E-01  0.51100000000E-03 0.  1.
</event>
<event>
 8    1  0.1063984E+005  0.1043930E+01  0.7957747E-01            NaN
         13   -1    0    0    0    0  0.00000000000E+00  0.00000000000E+00  0.74505805969E-08  0.10566000000E+00  0.10566000000E+00 0. -1.
     999900   -1    0    0    0    0 -0.00000000000E+00 -0.00000000000E+00 -0.74505805969E-08  0.93827000000E+00  0.93827000000E+00 0.  1.
     999902    2    1    2    0    0 -0.34786414666E-02 -0.54170139086E-03  0.22696355564E-01  0.10209622195E+01  0.10207038428E+01 0.  0.
     999903    2    3    3    0    0  0.28859197534E-01  0.90525580782E-01  0.90939296161E-01  0.13304550904E+00  0.20085264015E-01 0.  0.
         14    1    1    2    0    0  0.34786414666E-02  0.54170139086E-03 -0.22696355564E-01  0.22967780536E-01  0.00000000000E+00 0.  1.
     999901    1    3    3    0    0 -0.32337839001E-01 -0.91067282173E-01 -0.68242940597E-01  0.88791671043E+00  0.88000000000E+00 0. -1.
        -11    1    4    4    0    0  0.18594392540E-01  0.80931322285E-01  0.77001715547E-01  0.11324820387E+00  0.51100000000E-03 0. -1.
         11    1    4    4    0    0  0.10264804994E-01  0.95942584966E-02  0.13937580614E-01  0.19797305171E-01  0.51100000000E-03 0.  1.
</event>
<event>
 8    1  0.1063984E+005  0.1043930E+01  0.7957747E-01            NaN
         13   -1    0    0    0    0  0.00000000000E+00  0.00000000000E+00  0.74505805969E-08  0.10566000000E+00  0.10566000000E+00 0. -1.
     999900   -1    0    0    0    0 -0.00000000000E+00 -0.00000000000E+00 -0.74505805969E-08  0.93827000000E+00  0.93827000000E+00 0. -1.
     999902    2    1    2    0    0 -0.72580501559E-02 -0.12539440406E-01  0.22672235880E-01  0.10170237342E+01  0.10166677574E+01 0.  0.
     999903    2    3    3    0    0  0.10634953641E+00  0.22166682231E-01 -0.59084215825E-01  0.12528648814E+00  0.20104075586E-01 0.  0.
         14    1    1    2    0    0  0.72580501559E-02  0.12539440406E-01 -0.22672235880E-01  0.26906265768E-01  0.00000000000E+00 0.  1.
     999901    1    3    3    0    0 -0.11360758656E+00 -0.34706122637E-01  0.81756451706E-01  0.89173724609E+00  0.88000000000E+00 0.  1.
        -11    1    4    4    0    0  0.45201039071E-01  0.29217061493E-03 -0.19522644046E-01  0.49240370107E-01  0.51100000000E-03 0. -1.
         11    1    4    4    0    0  0.61148497338E-01  0.21874511617E-01 -0.39561571780E-01  0.76046118033E-01  0.51100000000E-03 0.  1.
</event>
<event>
 8    1  0.1063984E+005  0.1043930E+01  0.7957747E-01            NaN
         13   -1    0    0    0    0  0.00000000000E+00  0.00000000000E+00  0.74505805969E-08  0.10566000000E+00  0.10566000000E+00 0. -1.
     999900   -1    0    0    0    0 -0.00000000000E+00 -0.00000000000E+00 -0.74505805969E-08  0.93827000000E+00  0.93827000000E+00 0.  1.
     999902    2    1    2    0    0  0.51742329778E-02  0.23807995602E-01  0.27952487691E-02  0.10194064041E+01  0.10191113825E+01 0.  0.
     999903    2    3    3    0    0  0.96721643577E-01 -0.21632825790E-01 -0.80855070534E-01  0.12955070085E+00  0.20561764811E-01 0.  0.
         14    1    1    2    0    0 -0.51742329778E-02 -0.23807995602E-01 -0.27952487691E-02  0.24523595927E-01  0.00000000000E+00 0. -1.
     999901    1    3    3    0    0 -0.91547410599E-01  0.45440821392E-01  0.83650319303E-01  0.88985570322E+00  0.88000000000E+00 0. -1.
        -11    1    4    4    0    0  0.77039330469E-01 -0.20702169653E-01 -0.54387862683E-01  0.96550188999E-01  0.51100000000E-03 0.  1.
         11    1    4    4    0    0  0.19682313108E-01 -0.93065613748E-03 -0.26467207851E-01  0.33000511853E-01  0.51100000000E-03 0. -1.
</event>
<event>
 8    1  0.1063984E+005  0.1043930E+01  0.7957747E-01            NaN
         13   -1    0    0    0    0  0.00000000000E+00  0.00000000000E+00  0.74505805969E-08  0.10566000000E+00  0.10566000000E+00 0.  1.
     999900   -1    0    0    0    0 -0.00000000000E+00 -0.00000000000E+00 -0.74505805969E-08  0.93827000000E+00  0.93827000000E+00 0.  1.
     999902    2    1    2    0    0 -0.21098985930E-01 -0.62810969770E-02  0.12929662644E-01  0.10183997128E+01  0.10180796528E+01 0.  0.
     999903    2    3    3    0    0  0.63253018112E-01 -0.10073703435E+00 -0.41703830202E-01  0.12765732402E+00  0.20206150899E-01 0.  0.
         14    1    1    2    0    0  0.21098985930E-01  0.62810969770E-02 -0.12929662644E-01  0.25530287163E-01  0.00000000000E+00 0. -1.
     999901    1    3    3    0    0 -0.84352004043E-01  0.94455937368E-01  0.54633492846E-01  0.89074238881E+00  0.88000000000E+00 0. -1.
        -11    1    4    4    0    0  0.54163589392E-01 -0.74242505751E-01 -0.37799619622E-01  0.99371607820E-01  0.51100000000E-03 0. -1.
         11    1    4    4    0    0  0.90894287198E-02 -0.26494528594E-01 -0.39042105799E-02  0.28285716203E-01  0.51100000000E-03 0.  1.
</event>
<event>
 8    1  0.1063984E+005  0.1043930E+01  0.7957747E-01            NaN
         13   -1    0    0    0    0  0.00000000000E+00  0.00000000000E+00  0.74505805969E-08  0.10566000000E+00  0.10566000000E+00 0.  1.
     999900   -1    0    0    0    0 -0.00000000000E+00 -0.00000000000E+00 -0.74505805969E-08  0.93827000000E+00  0.93827000000E+00 0. -1.
     999902    2    1    2    0    0  0.20597889807E-01 -0.18708735156E-01 -0.10675665906E-01  0.10141263144E+01  0.10136882764E+01 0.  0.
     999903    2    3    3    0    0 -0.70662401498E-01 -0.58795123366E-01  0.80566824817E-01  0.12381145353E+00  0.19703330855E-01 0.  0.
         14    1    1    2    0    0 -0.20597889807E-01  0.18708735156E-01  0.10675665906E-01  0.29803685648E-01  0.00000000000E+00 0. -1.
     999901    1    3    3    0    0  0.91260291305E-01  0.40086388210E-01 -0.91242490723E-01  0.89031486082E+00  0.88000000000E+00 0. -1.
        -11    1    4    4    0    0 -0.37119243286E-01 -0.34889040072E-01  0.32145861082E-01  0.60238698899E-01  0.51100000000E-03 0. -1.
         11    1    4    4    0    0 -0.33543158212E-01 -0.23906083294E-01  0.48420963735E-01  0.63572754630E-01  0.51100000000E-03 0.  1.
</event>
<event>
 8    1  0.1063984E+005  0.1043930E+01  0.7957747E-01            NaN
         13   -1    0    0    0    0  0.00000000000E+00  0.00000000000E+00  0.74505805969E-08  0.10566000000E+00  0.10566000000E+00 0.  1.
     999900   -1    0    0    0    0 -0.00000000000E+00 -0.00000000000E+00 -0.74505805969E-08  0.93827000000E+00  0.93827000000E+00 0.  1.
     999902    2    1    2    0    0 -0.17233496053E-02  0.23711580251E-01 -0.37910815867E-03  0.10201528535E+01  0.10198757237E+01 0.  0.
     999903    2    3    3    0    0 -0.95560011159E-01 -0.76974038734E-01 -0.33475435944E-01  0.12884018120E+00  0.20554053326E-01 0.  0.
         14    1    1    2    0    0  0.17233496053E-02 -0.23711580251E-01  0.37910815867E-03  0.23777146483E-01  0.00000000000E+00 0.  1.
     999901    1    3    3    0    0  0.93836661553E-01  0.10068561899E+00  0.33096327785E-01  0.89131267232E+00  0.88000000000E+00 0.  1.
        -11    1    4    4    0    0 -0.75813841309E-01 -0.54324200601E-01 -0.17828220708E-01  0.94957695210E-01  0.51100000000E-03 0. -1.
         11    1    4    4    0    0 -0.19746169850E-01 -0.22649838133E-01 -0.15647215235E-01  0.33882485989E-01  0.51100000000E-03 0.  1.
</event>
<event>
 8    1  0.1063984E+005  0.1043930E+01  0.7957747E-01            NaN
         13   -1    0    0    0    0  0.00000000000E+00  0.00000000000E+00  0.74505805969E-08  0.10566000000E+00  0.10566000000E+00 0. -1.
     999900   -1    0    0    0    0 -0.00000000000E+00 -0.00000000000E+00 -0.74505805969E-08  0.93827000000E+00  0.93827000000E+00 0.  1.
     999902    2    1    2    0    0 -0.15975363213E-01 -0.17083176333E-01  0.57132621119E-02  0.10198532787E+01  0.10195690372E+01 0.  0.
     999903    2    3    3    0    0  0.12369502937E+00  0.20411209760E-01  0.15937523983E-01  0.12799107912E+00  0.20264103486E-01 0.  0.
         14    1    1    2    0    0  0.15975363213E-01  0.17083176333E-01 -0.57132621119E-02  0.24076721276E-01  0.00000000000E+00 0.  1.
     999901    1    3    3    0    0 -0.13967039258E+00 -0.37494386094E-01 -0.10224261871E-01  0.89186219960E+00  0.88000000000E+00 0.  1.
        -11    1    4    4    0    0  0.38582578343E-01  0.61518385264E-02  0.14505860124E-01  0.41679030312E-01  0.51100000000E-03 0. -1.
         11    1    4    4    0    0  0.85112451023E-01  0.14259371234E-01  0.14316638590E-02  0.86312048808E-01  0.51100000000E-03 0.  1.
</event>
<event>
 8    1  0.1063984E+005  0.1043930E+01  0.7957747E-01            NaN
         13   -1    0    0    0    0  0.00000000000E+00  0.00000000000E+00  0.74505805969E-08  0.10566000000E+00  0.10566000000E+00 0. -1.
     999900   -1    0    0    0    0 -0.00000000000E+00 -0.00000000000E+00 -0.74505805969E-08  0.93827000000E+00  0.93827000000E+00 0.  1.
     999902    2    1    2    0    0 -0.12019360070E-01  0.37622891622E-03  0.21261556620E-01  0.10195033679E+01  0.10192107029E+01 0.  0.
     999903    2    3    3    0    0 -0.18439432290E-01  0.12289286150E+00  0.36321957517E-01  0.13086488223E+00  0.19069995566E-01 0.  0.
         14    1    1    2    0    0  0.12019360070E-01 -0.37622891622E-03 -0.21261556620E-01  0.24426632077E-01  0.00000000000E+00 0.  1.
     999901    1    3    3    0    0  0.64200722200E-02 -0.12251663259E+00 -0.15060400897E-01  0.88863848570E+00  0.88000000000E+00 0. -1.
        -11    1    4    4    0    0 -0.99025161146E-02  0.21743156023E-01  0.33347525804E-02  0.24128952630E-01  0.51100000000E-03 0. -1.
         11    1    4    4    0    0 -0.85369161757E-02  0.10114970548E+00  0.32987204937E-01  0.10673592960E+00  0.51100000000E-03 0.  1.
</event>
<event>
 8    1  0.1063984E+005  0.1043930E+01  0.7957747E-01            NaN
         13   -1    0    0    0    0  0.00000000000E+00  0.00000000000E+00  0.74505805969E-08  0.10566000000E+00  0.10566000000E+00 0. -1.
     999900   -1    0    0    0    0 -0.00000000000E+00 -0.00000000000E+00 -0.74505805969E-08  0.93827000000E+00  0.93827000000E+00 0.  1.
     999902    2    1    2    0    0 -0.86864503884E-02  0.15709980799E-01 -0.16881142060E-01  0.10192879450E+01  0.10189900313E+01 0.  0.
     999903    2    3    3    0    0  0.13999602924E-01 -0.66395550488E-01  0.10520219314E+00  0.12678566713E+00  0.20068531091E-01 0.  0.
         14    1    1    2    0    0  0.86864503884E-02 -0.15709980799E-01  0.16881142060E-01  0.24642054994E-01  0.00000000000E+00 0. -1.
     999901    1    3    3    0    0 -0.22686053313E-01  0.82105531287E-01 -0.12208333520E+00  0.89250227788E+00  0.88000000000E+00 0.  1.
        -11    1    4    4    0    0  0.15545709961E-02 -0.35852609842E-01  0.40177045859E-01  0.53872835998E-01  0.51100000000E-03 0. -1.
         11    1    4    4    0    0  0.12445031928E-01 -0.30542940646E-01  0.65025147285E-01  0.72912831130E-01  0.51100000000E-03 0.  1.
</event>
<event>
 8    1  0.1063984E+005  0.1043930E+01  0.7957747E-01            NaN
         13   -1    0    0    0    0  0.00000000000E+00  0.00000000000E+00  0.74505805969E-08  0.10566000000E+00  0.10566000000E+00 0.  1.
     999900   -1    0    0    0    0 -0.00000000000E+00 -0.00000000000E+00 -0.74505805969E-08  0.93827000000E+00  0.93827000000E+00 0.  1.
     999902    2    1    2    0    0 -0.16865099804E-01 -0.10858958871E-01  0.11680318990E-01  0.10207183988E+01  0.10204544435E+01 0.  0.
     999903    2    3    3    0    0  0.40666322190E-02 -0.13008252545E+00  0.14656897041E-01  0.13242719864E+00  0.19599423049E-01 0.  0.
         14    1    1    2    0    0  0.16865099804E-01  0.10858958871E-01 -0.11680318990E-01  0.23211601213E-01  0.00000000000E+00 0. -1.
     999901    1    3    3    0    0 -0.20931732023E-01  0.11922356658E+00 -0.29765780512E-02  0.88829120014E+00  0.88000000000E+00 0. -1.
        -11    1    4    4    0    0  0.11552315921E-01 -0.59776677051E-01  0.55304859141E-02  0.61135542181E-01  0.51100000000E-03 0.  1.
         11    1    4    4    0    0 -0.74856837021E-02 -0.70305848403E-01  0.91264111270E-02  0.71291656462E-01  0.51100000000E-03 0. -1.
</event>
<event>
 8    1  0.1063984E+005  0.1043930E+01  0.7957747E-01            NaN
         13   -1    0    0    0    0  0.00000000000E+00  0.00000000000E+00  0.74505805969E-08  0.10566000000E+00  0.10566000000E+00 0. -1.
     999900   -1    0    0    0    0 -0.00000000000E+00 -0.00000000000E+00 -0.74505805969E-08  0.93827000000E+00  0.93827000000E+00 0.  1.
     999902    2    1    2    0    0 -0.34987347734E-03 -0.30773961883E-02 -0.23244685565E-01  0.10204798788E+01  0.10202104071E+01 0.  0.
     999903    2    3    3    0    0  0.28658581661E-01  0.12298556516E+00  0.22332491394E-01  0.12985614242E+00  0.20423369211E-01 0.  0.
         14    1    1    2    0    0  0.34987347734E-03  0.30773961883E-02  0.23244685565E-01  0.23450121231E-01  0.00000000000E+00 0. -1.
     999901    1    3    3    0    0 -0.29008455139E-01 -0.12606296135E+00 -0.45577176959E-01  0.89062373635E+00  0.88000000000E+00 0.  1.
        -11    1    4    4    0    0  0.24130601205E-01  0.58687138973E-01  0.10494092003E-01  0.64318374383E-01  0.51100000000E-03 0.  1.
         11    1    4    4    0    0  0.45279804566E-02  0.64298426192E-01  0.11838399391E-01  0.65537768034E-01  0.51100000000E-03 0. -1.
</event>
<event>
 8    1  0.1063984E+005  0.1043930E+01  0.7957747E-01            NaN
         13   -1    0    0    0    0  0.00000000000E+00  0.00000000000E+00  0.74505805969E-08  0.10566000000E+00  0.10566000000E+00 0.  1.
     999900   -1    0    0    0    0 -0.00000000000E+00 -0.00000000000E+00 -0.74505805969E-08  0.93827000000E+00  0.93827000000E+00 0.  1.
     999902    2    1    2    0    0 -0.15418806870E-01 -0.17967913928E-01 -0.12780540757E-02  0.10202188432E+01  0.10199432675E+01 0.  0.
     999903    2    3    3    0    0 -0.68025178950E-01  0.93714625405E-01 -0.55493111400E-01  0.12994939383E+00  0.19937491279E-01 0.  0.
         14    1    1    2    0    0  0.15418806870E-01  0.17967913928E-01  0.12780540757E-02  0.23711156834E-01  0.00000000000E+00 0.  1.
     999901    1    3    3    0    0  0.52606372081E-01 -0.11168253933E+00  0.54215057324E-01  0.89026944933E+00  0.88000000000E+00 0. -1.
        -11    1    4    4    0    0 -0.15719721522E-01  0.11820540511E-01 -0.14702604426E-01  0.24561403067E-01  0.51100000000E-03 0. -1.
         11    1    4    4    0    0 -0.52305457429E-01  0.81894084894E-01 -0.40790506974E-01  0.10538799077E+00  0.51100000000E-03 0.  1.
</event>
<event>
 8    1  0.1063984E+005  0.1043930E+01  0.7957747E-01            NaN
         13   -1    0    0    0    0  0.00000000000E+00  0.00000000000E+00  0.74505805969E-08  0.10566000000E+00  0.10566000000E+00 0. -1.
     999900   -1    0    0    0    0 -0.00000000000E+00 -0.00000000000E+00 -0.74505805969E-08  0.93827000000E+00  0.93827000000E+00 0. -1.
     999902    2    1    2    0    0  0.72992870972E-02 -0.50002994024E-02 -0.21822101890E-01  0.10203824584E+01  0.10201107168E+01 0.  0.
     999903    2    3    3    0    0 -0.53864761278E-01 -0.72612898998E-01 -0.94734039690E-01  0.13267267746E+00  0.21294493656E-01 0.  0.
         14    1    1    2    0    0 -0.72992870972E-02  0.50002994024E-02  0.21822101890E-01  0.23547541637E-01  0.00000000000E+00 0. -1.
     999901    1    3    3    0    0  0.61164048375E-01  0.67612599596E-01  0.72911937800E-01  0.88770978090E+00  0.88000000000E+00 0.  1.
        -11    1    4    4    0    0 -0.14762794191E-01 -0.36194568657E-01 -0.45800385437E-01  0.60215640159E-01  0.51100000000E-03 0. -1.
         11    1    4    4    0    0 -0.39101967087E-01 -0.36418330342E-01 -0.48933654253E-01  0.72457037301E-01  0.51100000000E-03 0.  1.
</event>
<event>
 8    1  0.1063984E+005  0.1043930E+01  0.7957747E-01            NaN
         13   -1    0    0    0    0  0.00000000000E+00  0.00000000000E+00  0.74505805969E-08  0.10566000000E+00  0.10566000000E+00 0. -1.
     999900   -1    0    0    0    0 -0.00000000000E+00 -0.00000000000E+00 -0.74505805969E-08  0.93827000000E+00  0.93827000000E+00 0. -1.
     999902    2    1    2    0    0  0.10473244881E-01  0.10971081960E-01  0.18699408985E-01  0.10198525958E+01  0.10195683379E+01 0.  0.
     999903    2    3    3    0    0  0.49080418363E-01 -0.48298113985E-01 -0.10626193205E+00  0.12821439102E+00  0.20142903954E-01 0.  0.
         14    1    1    2    0    0 -0.10473244881E-01 -0.10971081960E-01 -0.18699408985E-01  0.24077404222E-01  0.00000000000E+00 0.  1.
     999901    1    3    3    0    0 -0.38607173482E-01  0.59269195944E-01  0.12496134104E+00  0.89163820476E+00  0.88000000000E+00 0.  1.
        -11    1    4    4    0    0  0.16853690067E-01 -0.27323157851E-01 -0.60056076577E-01  0.68099891914E-01  0.51100000000E-03 0. -1.
         11    1    4    4    0    0  0.32226728296E-01 -0.20974956134E-01 -0.46205855475E-01  0.60114499105E-01  0.51100000000E-03 0.  1.
</event>
<event>
 8    1  0.1063984E+005  0.1043930E+01  0.7957747E-01            NaN
         13   -1    0    0    0    0  0.00000000000E+00  0.00000000000E+00  0.74505805969E-08  0.10566000000E+00  0.10566000000E+00 0.  1.
     999900   -1    0    0    0    0 -0.00000000000E+00 -0.00000000000E+00 -0.74505805969E-08  0.93827000000E+00  0.93827000000E+00 0.  1.
     999902    2    1    2    0    0  0.13535571056E-02  0.16302545492E-01 -0.89783488598E-02  0.10252694573E+01  0.10250996265E+01 0.  0.
     999903    2    3    3    0    0  0.11327688006E+00 -0.51503364468E-01 -0.47727279358E-01  0.13474941188E+00  0.19881214704E-01 0.  0.
         14    1    1    2    0    0 -0.13535571056E-02 -0.16302545492E-01  0.89783488598E-02  0.18660542720E-01  0.00000000000E+00 0.  1.
     999901    1    3    3    0    0 -0.11192332296E+00  0.67805909960E-01  0.38748930498E-01  0.89052004540E+00  0.88000000000E+00 0. -1.
        -11    1    4    4    0    0  0.44199191200E-01 -0.99009171539E-02 -0.19433126007E-01  0.49290000717E-01  0.51100000000E-03 0.  1.
         11    1    4    4    0    0  0.69077688864E-01 -0.41602447314E-01 -0.28294153351E-01  0.85459411162E-01  0.51100000000E-03 0. -1.
</event>
<event>
 8    1  0.1063984E+005  0.1043930E+01  0.7957747E-01            NaN
         13   -1    0    0    0    0  0.00000000000E+00  0.00000000000E+00  0.74505805969E-08  0.10566000000E+00  0.10566000000E+00 0.  1.
     999900   -1    0    0    0    0 -0.00000000000E+00 -0.00000000000E+00 -0.74505805969E-08  0.93827000000E+00  0.93827000000E+00 0.  1.
     999902    2    1    2    0    0 -0.36974946356E-02 -0.20830428429E-01 -0.10772736309E-01  0.10201891057E+01  0.10199128302E+01 0.  0.
     999903    2    3    3    0    0 -0.42827266545E-01  0.10957998409E+00 -0.48706548739E-01  0.12891081645E+00  0.20092860266E-01 0.  0.
         14    1    1    2    0    0  0.36974946356E-02  0.20830428429E-01  0.10772736309E-01  0.23740894311E-01  0.00000000000E+00 0.  1.
     999901    1    3    3    0    0  0.39129771909E-01 -0.13041041252E+00  0.37933812430E-01  0.89127828924E+00  0.88000000000E+00 0. -1.
        -11    1    4    4    0    0 -0.25093403286E-01  0.43437548756E-01 -0.13714393965E-01  0.52008126800E-01  0.51100000000E-03 0. -1.
         11    1    4    4    0    0 -0.17733863259E-01  0.66142435338E-01 -0.34992154774E-01  0.76902689649E-01  0.51100000000E-03 0.  1.
</event>
<event>
 8    1  0.1063984E+005  0.1043930E+01  0.7957747E-01            NaN
         13   -1    0    0    0    0  0.00000000000E+00  0.00000000000E+00  0.74505805969E-08  0.10566000000E+00  0.10566000000E+00 0. -1.
     999900   -1    0    0    0    0 -0.00000000000E+00 -0.00000000000E+00 -0.74505805969E-08  0.93827000000E+00  0.93827000000E+00 0. -1.
     999902    2    1    2    0    0  0.13276879957E-01 -0.18939267494E-01 -0.92872329134E-02  0.10190056326E+01  0.10187007682E+01 0.  0.
     999903    2    3    3    0    0  0.55490370782E-01  0.38134596038E-01  0.10729906254E+00  0.12848232073E+00  0.21475317340E-01 0.  0.
         14    1    1    2    0    0 -0.13276879957E-01  0.18939267494E-01  0.92872329134E-02  0.24924367390E-01  0.00000000000E+00 0.  1.
     999901    1    3    3    0    0 -0.42213490824E-01 -0.57073863532E-01 -0.11658629545E+00  0.89052331188E+00  0.88000000000E+00 0. -1.
        -11    1    4    4    0    0  0.35677551775E-02  0.35265877197E-02  0.88217433933E-03  0.51190868830E-02  0.51100000000E-03 0. -1.
         11    1    4    4    0    0  0.51922615604E-01  0.34608008318E-01  0.10641688820E+00  0.12336323385E+00  0.51100000000E-03 0.  1.
</event>
<event>
 8    1  0.1063984E+005  0.1043930E+01  0.7957747E-01            NaN
         13   -1    0    0    0    0  0.00000000000E+00  0.00000000000E+00  0.74505805969E-08  0.10566000000E+00  0.10566000000E+00 0.  1.
     999900   -1    0    0    0    0 -0.00000000000E+00 -0.00000000000E+00 -0.74505805969E-08  0.93827000000E+00  0.93827000000E+00 0.  1.
     999902    2    1    2    0    0  0.16289464082E-01  0.13686608707E-01  0.11134726873E-01  0.10199164197E+01  0.10196336847E+01 0.  0.
     999903    2    3    3    0    0  0.65420750382E-01  0.57192559465E-01 -0.95961719738E-01  0.13099780701E+00  0.20022745762E-01 0.  0.
         14    1    1    2    0    0 -0.16289464082E-01 -0.13686608707E-01 -0.11134726873E-01  0.24013580336E-01  0.00000000000E+00 0. -1.
     999901    1    3    3    0    0 -0.49131286300E-01 -0.43505950758E-01  0.10709644661E+00  0.88891861265E+00  0.88000000000E+00 0. -1.
        -11    1    4    4    0    0  0.26759665135E-01  0.36639957320E-01 -0.49856596311E-01  0.67412962160E-01  0.51100000000E-03 0. -1.
         11    1    4    4    0    0  0.38661085247E-01  0.20552602146E-01 -0.46105123427E-01  0.63584844851E-01  0.51100000000E-03 0.  1.
</event>
<event>
 8    1  0.1063984E+005  0.1043930E+01  0.7957747E-01            NaN
         13   -1    0    0    0    0  0.00000000000E+00  0.00000000000E+00  0.74505805969E-08  0.10566000000E+00  0.10566000000E+00 0.  1.
     999900   -1    0    0    0    0 -0.00000000000E+00 -0.00000000000E+00 -0.74505805969E-08  0.93827000000E+00  0.93827000000E+00 0. -1.
     999902    2    1    2    0    0 -0.21013644654E-01 -0.74067840386E-02 -0.12405697082E-01  0.10184283328E+01  0.10181089991E+01 0.  0.
     999903    2    3    3    0    0 -0.60887878829E-01 -0.73603571741E-01 -0.88524122507E-01  0.13176831679E+00  0.20038699601E-01 0.  0.
         14    1    1    2    0    0  0.21013644654E-01  0.74067840386E-02  0.12405697082E-01  0.25501667231E-01  0.00000000000E+00 0.  1.
     999901    1    3    3    0    0  0.39874234174E-01  0.66196787703E-01  0.76118425426E-01  0.88666001598E+00  0.88000000000E+00 0.  1.
        -11    1    4    4    0    0 -0.18389756814E-01 -0.13578006690E-01 -0.30320776223E-01  0.37975729264E-01  0.51100000000E-03 0.  1.
         11    1    4    4    0    0 -0.42498122015E-01 -0.60025565051E-01 -0.58203346285E-01  0.93792587523E-01  0.51100000000E-03 0. -1.
</event>
<event>
 8    1  0.1063984E+005  0.1043930E+01  0.7957747E-01            NaN
         13   -1    0    0    0    0  0.00000000000E+00  0.00000000000E+00  0.74505805969E-08  0.10566000000E+00  0.10566000000E+00 0. -1.
     999900   -1    0    0    0    0 -0.00000000000E+00 -0.00000000000E+00 -0.74505805969E-08  0.93827000000E+00  0.93827000000E+00 0.  1.
     999902    2    1    2    0    0  0.36553672416E-02 -0.21881331574E-01  0.78243662722E-02  0.10204060741E+01  0.10201348837E+01 0.  0.
     999903    2    3    3    0    0 -0.99534691382E-01 -0.77214264243E-01 -0.33723344162E-01  0.13167881907E+00  0.18244178753E-01 0.  0.
         14    1    1    2    0    0 -0.36553672416E-02  0.21881331574E-01 -0.78243662722E-02  0.23523925877E-01  0.00000000000E+00 0.  1.
     999901    1    3    3    0    0  0.10319005862E+00  0.55332932669E-01  0.41547710434E-01  0.88872725506E+00  0.88000000000E+00 0. -1.
        -11    1    4    4    0    0 -0.36904938688E-02 -0.51262571057E-02 -0.56897079390E-02  0.85165811415E-02  0.51100000000E-03 0.  1.
         11    1    4    4    0    0 -0.95844197513E-01 -0.72088007137E-01 -0.28033636223E-01  0.12316223793E+00  0.51100000000E-03 0. -1.
</event>
<event>
 8    1  0.1063984E+005  0.1043930E+01  0.7957747E-01            NaN
         13   -1    0    0    0    0  0.00000000000E+00  0.00000000000E+00  0.74505805969E-08  0.10566000000E+00  0.10566000000E+00 0.  1.
     999900   -1    0    0    0    0 -0.00000000000E+00 -0.00000000000E+00 -0.74505805969E-08  0.93827000000E+00  0.93827000000E+00 0. -1.
     999902    2    1    2    0    0  0.29226945555E-02  0.19758291943E-01 -0.67199932343E-02  0.10228565439E+01  0.10226394373E+01 0.  0.
     999903    2    3    3    0    0  0.32677632091E-01 -0.58958054753E-01 -0.11227975150E+00  0.13256193976E+00  0.20543744016E-01 0.  0.
         14    1    1    2    0    0 -0.29226945555E-02 -0.19758291943E-01  0.67199932343E-02  0.21073456125E-01  0.00000000000E+00 0. -1.
     999901    1    3    3    0    0 -0.29754937535E-01  0.78716346697E-01  0.10555975826E+00  0.89029460411E+00  0.88000000000E+00 0.  1.
        -11    1    4    4    0    0  0.31875937916E-01 -0.51605556525E-01 -0.85887241127E-01  0.10514793479E+00  0.51100000000E-03 0.  1.
         11    1    4    4    0    0  0.80169417453E-03 -0.73524982285E-02 -0.26392510371E-01  0.27414004969E-01  0.51100000000E-03 0. -1.
</event>
<event>
 8    1  0.1063984E+005  0.1043930E+01  0.7957747E-01            NaN
         13   -1    0    0    0    0  0.00000000000E+00  0.00000000000E+00  0.74505805969E-08  0.10566000000E+00  0.10566000000E+00 0. -1.
     999900   -1    0    0    0    0 -0.00000000000E+00 -0.00000000000E+00 -0.74505805969E-08  0.93827000000E+00  0.93827000000E+00 0. -1.
     999902    2    1    2    0    0 -0.11777294433E-01 -0.21164419101E-01  0.29427836971E-02  0.10195312854E+01  0.10192392970E+01 0.  0.
     999903    2    3    3    0    0  0.46021788705E-01 -0.11024063986E+00 -0.51345776702E-01  0.13148705510E+00  0.19530825897E-01 0.  0.
         14    1    1    2    0    0  0.11777294433E-01  0.21164419101E-01 -0.29427836971E-02  0.24398714637E-01  0.00000000000E+00 0.  1.
     999901    1    3    3    0    0 -0.57799083138E-01  0.89076220763E-01  0.54288560399E-01  0.88804423027E+00  0.88000000000E+00 0.  1.
        -11    1    4    4    0    0  0.34083093579E-01 -0.81908277829E-01 -0.28512183172E-01  0.93187064311E-01  0.51100000000E-03 0. -1.
         11    1    4    4    0    0  0.11938695126E-01 -0.28332362035E-01 -0.22833593530E-01  0.38299990787E-01  0.51100000000E-03 0.  1.
</event>
<event>
 8    1  0.1063984E+005  0.1043930E+01  0.7957747E-01            NaN
         13   -1    0    0    0    0  0.00000000000E+00  0.00000000000E+00  0.74505805969E-08  0.10566000000E+00  0.10566000000E+00 0. -1.
     999900   -1    0    0    0    0 -0.00000000000E+00 -0.00000000000E+00 -0.74505805969E-08  0.93827000000E+00  0.93827000000E+00 0. -1.
     999902    2    1    2    0    0  0.94376380088E-02  0.17234868454E-01 -0.97472055734E-02  0.10219956042E+01  0.10217601956E+01 0.  0.
     999903    2    3    3    0    0 -0.21997208964E-01  0.10329183831E+00  0.78122754540E-01  0.13288645369E+00  0.20063990977E-01 0.  0.
         14    1    1    2    0    0 -0.94376380088E-02 -0.17234868454E-01  0.97472055734E-02  0.21934395782E-01  0.00000000000E+00 0. -1.
     999901    1    3    3    0    0  0.31434846973E-01 -0.86056969854E-01 -0.87869960113E-01  0.88910915053E+00  0.88000000000E+00 0. -1.
        -11    1    4    4    0    0  0.16207198076E-03  0.30128861615E-01  0.30190066164E-01  0.42655313684E-01  0.51100000000E-03 0. -1.
         11    1    4    4    0    0 -0.22159280945E-01  0.73162976693E-01  0.47932688376E-01  0.90231140005E-01  0.51100000000E-03 0.  1.
</event>
<event>
 8    1  0.1063984E+005  0.1043930E+01  0.7957747E-01            NaN
         13   -1    0    0    0    0  0.00000000000E+00  0.00000000000E+00  0.74505805969E-08  0.10566000000E+00  0.10566000000E+00 0. -1.
     999900   -1    0    0    0    0 -0.00000000000E+00 -0.00000000000E+00 -0.74505805969E-08  0.93827000000E+00  0.93827000000E+00 0. -1.
     999902    2    1    2    0    0  0.20474950636E-02  0.13988343178E-02  0.23598216048E-01  0.10202018569E+01  0.10199258817E+01 0.  0.
     999903    2    3    3    0    0 -0.13496392873E-01  0.27162469052E-01 -0.12241175345E+00  0.12766374091E+00  0.19835347603E-01 0.  0.
         14    1    1    2    0    0 -0.20474950636E-02 -0.13988343178E-02 -0.23598216048E-01  0.23728143082E-01  0.00000000000E+00 0.  1.
     999901    1    3    3    0    0  0.15543887936E-01 -0.25763634735E-01  0.14600996950E+00  0.89253811600E+00  0.88000000000E+00 0.  1.
        -11    1    4    4    0    0 -0.67381606038E-02  0.12593551299E-01 -0.23877815907E-01  0.27828251043E-01  0.51100000000E-03 0.  1.
         11    1    4    4    0    0 -0.67582322690E-02  0.14568917754E-01 -0.98533937548E-01  0.99835489870E-01  0.51100000000E-03 0. -1.
</event>
<event>
 8    1  0.1063984E+005  0.1043930E+01  0.7957747E-01            NaN
         13   -1    0    0    0    0  0.00000000000E+00  0.00000000000E+00  0.74505805969E-08  0.10566000000E+00  0.10566000000E+00 0.  1.
     999900   -1    0    0    0    0 -0.00000000000E+00 -0.00000000000E+00 -0.74505805969E-08  0.93827000000E+00  0.93827000000E+00 0. -1.
     999902    2    1    2    0    0 -0.17284839130E-01  0.14490356031E-01 -0.93058961710E-02  0.10195304962E+01  0.10192384887E+01 0.  0.
     999903    2    3    3    0    0  0.12022448653E+00 -0.27054759093E-01  0.23802155184E-01  0.12726878892E+00  0.21093005700E-01 0.  0.
         14    1    1    2    0    0  0.17284839130E-01 -0.14490356031E-01  0.93058961710E-02  0.24399503790E-01  0.00000000000E+00 0.  1.
     999901    1    3    3    0    0 -0.13750932566E+00  0.41545115125E-01 -0.33108051355E-01  0.89226170729E+00  0.88000000000E+00 0. -1.
        -11    1    4    4    0    0  0.84415537680E-01 -0.21685298155E-01  0.26103348112E-01  0.90982861362E-01  0.51100000000E-03 0.  1.
         11    1    4    4    0    0  0.35808948853E-01 -0.53694609383E-02 -0.23011929280E-02  0.36285927556E-01  0.51100000000E-03 0. -1.
</event>
<event>
 8    1  0.1063984E+005  0.1043930E+01  0.7957747E-01            NaN
         13   -1    0    0    0    0  0.00000000000E+00  0.00000000000E+00  0.74505805969E-08  0.10566000000E+00  0.10566000000E+00 0. -1.
     999900   -1    0    0    0    0 -0.00000000000E+00 -0.00000000000E+00 -0.74505805969E-08  0.93827000000E+00  0.93827000000E+00 0.  1.
     999902    2    1    2    0    0 -0.19198035182E-01 -0.60338454567E-02  0.10620649492E-01  0.10211754391E+01  0.10209218909E+01 0.  0.
     999903    2    3    3    0    0  0.93148193681E-01 -0.88016066924E-01 -0.76282407647E-02  0.13006614066E+00  0.20870957501E-01 0.  0.
         14    1    1    2    0    0  0.19198035182E-01  0.60338454567E-02 -0.10620649492E-01  0.22754560894E-01  0.00000000000E+00 0. -1.
     999901    1    3    3    0    0 -0.11234622886E+00  0.81982221468E-01  0.18248890256E-01  0.89110929844E+00  0.88000000000E+00 0. -1.
        -11    1    4    4    0    0  0.40476744852E-01 -0.47028803766E-01 -0.11922549985E-01  0.63186102718E-01  0.51100000000E-03 0.  1.
         11    1    4    4    0    0  0.52671448829E-01 -0.40987263158E-01  0.42943092204E-02  0.66880037945E-01  0.51100000000E-03 0. -1.
</event>
<event>
 8    1  0.1063984E+005  0.1043930E+01  0.7957747E-01            NaN
         13   -1    0    0    0    0  0.00000000000E+00  0.00000000000E+00  0.74505805969E-08  0.10566000000E+00  0.10566000000E+00 0.  1.
     999900   -1    0    0    0    0 -0.00000000000E+00 -0.00000000000E+00 -0.74505805969E-08  0.93827000000E+00  0.93827000000E+00 0. -1.
     999902    2    1    2    0    0 -0.46305848507E-02  0.29413367316E-01  0.45984429748E-02  0.10138013729E+01  0.10133535856E+01 0.  0.
     999903    2    3    3    0    0 -0.57760874406E-01 -0.99865789984E-01  0.34813267627E-01  0.12225840489E+00  0.20631513341E-01 0.  0.
         14    1    1    2    0    0  0.46305848507E-02 -0.29413367316E-01 -0.45984429748E-02  0.30128627096E-01  0.00000000000E+00 0. -1.
     999901    1    3    3    0    0  0.53130289556E-01  0.12927915730E+00 -0.30214824652E-01  0.89154296801E+00  0.88000000000E+00 0. -1.
        -11    1    4    4    0    0 -0.38735407548E-01 -0.75873668486E-01  0.33698270756E-01  0.91613754101E-01  0.51100000000E-03 0.  1.
         11    1    4    4    0    0 -0.19025466858E-01 -0.23992121498E-01  0.11149968704E-02  0.30644650792E-01  0.51100000000E-03 0. -1.
</event>
<event>
 8    1  0.1063984E+005  0.1043930E+01  0.7957747E-01            NaN
         13   -1    0    0    0    0  0.00000000000E+00  0.00000000000E+00  0.74505805969E-08  0.10566000000E+00  0.10566000000E+00 0. -1.
     999900   -1    0    0    0    0 -0.00000000000E+00 -0.00000000000E+00 -0.74505805969E-08  0.93827000000E+00  0.93827000000E+00 0. -1.
     999902    2    1    2    0    0 -0.16293771928E-01 -0.17647058491E-01 -0.21334103833E-02  0.10198165781E+01  0.10195314590E+01 0.  0.
     999903    2    3    3    0    0 -0.79633512522E-01  0.77675077975E-01 -0.63980243515E-01  0.13025305409E+00  0.22304091196E-01 0.  0.
         14    1    1    2    0    0  0.16293771928E-01  0.17647058491E-01  0.21334103833E-02  0.24113421924E-01  0.00000000000E+00 0. -1.
     999901    1    3    3    0    0  0.63339740594E-01 -0.95322136467E-01  0.61846833132E-01  0.88956352399E+00  0.88000000000E+00 0.  1.
        -11    1    4    4    0    0 -0.16416939311E-01  0.17919921255E-01 -0.41152671906E-02  0.24654330637E-01  0.51100000000E-03 0. -1.
         11    1    4    4    0    0 -0.63216573211E-01  0.59755156721E-01 -0.59864976325E-01  0.10559872345E+00  0.51100000000E-03 0.  1.
</event>
<event>
 8    1  0.1063984E+005  0.1043930E+01  0.7957747E-01            NaN
         13   -1    0    0    0    0  0.00000000000E+00  0.00000000000E+00  0.74505805969E-08  0.10566000000E+00  0.10566000000E+00 0.  1.
     999900   -1    0    0    0    0 -0.00000000000E+00 -0.00000000000E+00 -0.74505805969E-08  0.93827000000E+00  0.93827000000E+00 0. -1.
     999902    2    1    2    0    0  0.21160055176E-01  0.12226329521E-01 -0.16840158569E-02  0.10194337354E+01  0.10191393791E+01 0.  0.
     999903    2    3    3    0    0 -0.91728061941E-01 -0.72139463940E-01  0.45857144730E-01  0.12695321685E+00  0.19902309925E-01 0.  0.
         14    1    1    2    0    0 -0.21160055176E-01 -0.12226329521E-01  0.16840158569E-02  0.24496264573E-01  0.00000000000E+00 0. -1.
     999901    1    3    3    0    0  0.11288811712E+00  0.84365793461E-01 -0.47541160587E-01  0.89248051858E+00  0.88000000000E+00 0. -1.
        -11    1    4    4    0    0 -0.27539857537E-01 -0.31214393936E-01  0.22515782409E-01  0.47328677569E-01  0.51100000000E-03 0.  1.
         11    1    4    4    0    0 -0.64188204404E-01 -0.40925070005E-01  0.23341362321E-01  0.79624539280E-01  0.51100000000E-03 0. -1.
</event>
<event>
 8    1  0.1063984E+005  0.1043930E+01  0.7957747E-01            NaN
         13   -1    0    0    0    0  0.00000000000E+00  0.00000000000E+00  0.74505805969E-08  0.10566000000E+00  0.10566000000E+00 0.  1.
     999900   -1    0    0    0    0 -0.00000000000E+00 -0.00000000000E+00 -0.74505805969E-08  0.93827000000E+00  0.93827000000E+00 0. -1.
     999902    2    1    2    0    0  0.15294803403E-01  0.19975027927E-01 -0.55202370721E-02  0.10181733354E+01  0.10178475010E+01 0.  0.
     999903    2    3    3    0    0  0.81329005671E-01  0.70750120374E-01 -0.72209724226E-01  0.13172755956E+00  0.22757833346E-01 0.  0.
         14    1    1    2    0    0 -0.15294803403E-01 -0.19975027927E-01  0.55202370721E-02  0.25756664558E-01  0.00000000000E+00 0. -1.
     999901    1    3    3    0    0 -0.66034202268E-01 -0.50775092447E-01  0.66689487154E-01  0.88644577588E+00  0.88000000000E+00 0.  1.
        -11    1    4    4    0    0  0.31021664871E-01  0.23370704769E-01 -0.13734359202E-01  0.41199845587E-01  0.51100000000E-03 0. -1.
         11    1    4    4    0    0  0.50307340800E-01  0.47379415605E-01 -0.58475365024E-01  0.90527713973E-01  0.51100000000E-03 0.  1.
</event>
<event>
 8    1  0.1063984E+005  0.1043930E+01  0.7957747E-01            NaN
         13   -1    0    0    0    0  0.00000000000E+00  0.00000000000E+00  0.74505805969E-08  0.10566000000E+00  0.10566000000E+00 0. -1.
     999900   -1    0    0    0    0 -0.00000000000E+00 -0.00000000000E+00 -0.74505805969E-08  0.93827000000E+00  0.93827000000E+00 0. -1.
     999902    2    1    2    0    0 -0.21273749071E-01  0.81735024311E-02  0.61510170099E-02  0.10203246288E+01  0.10200515352E+01 0.  0.
     999903    2    3    3    0    0 -0.96731867244E-01 -0.44489105256E-01  0.76551286901E-01  0.13273042201E+00  0.20516597496E-01 0.  0.
         14    1    1    2    0    0  0.21273749071E-01 -0.81735024311E-02 -0.61510170099E-02  0.23605371248E-01  0.00000000000E+00 0. -1.
     999901    1    3    3    0    0  0.75458118174E-01  0.52662607688E-01 -0.70400269891E-01  0.88759420675E+00  0.88000000000E+00 0. -1.
        -11    1    4    4    0    0 -0.67472085094E-01 -0.40116900740E-01  0.50780254701E-01  0.93491942864E-01  0.51100000000E-03 0.  1.
         11    1    4    4    0    0 -0.29259782150E-01 -0.43722045162E-02  0.25771032199E-01  0.39238479142E-01  0.51100000000E-03 0. -1.
</event>
<event>
 8    1  0.1063984E+005  0.1043930E+01  0.7957747E-01            NaN
         13   -1    0    0    0    0  0.00000000000E+00  0.00000000000E+00  0.74505805969E-08  0.10566000000E+00  0.10566000000E+00 0. -1.
     999900   -1    0    0    0    0 -0.00000000000E+00 -0.00000000000E+00 -0.74505805969E-08  0.93827000000E+00  0.93827000000E+00 0.  1.
     999902    2    1    2    0    0 -0.15555405377E-01 -0.15128233818E-02  0.16215045276E-01  0.10214091882E+01  0.10211608800E+01 0.  0.
     999903    2    3    3    0    0  0.11008607707E+00 -0.45474347032E-01 -0.45734594946E-01  0.12924543888E+00  0.20636610479E-01 0.  0.
         14    1    1    2    0    0  0.15555405377E-01  0.15128233818E-02 -0.16215045276E-01  0.22520811804E-01  0.00000000000E+00 0.  1.
     999901    1    3    3    0    0 -0.12564148245E+00  0.43961523651E-01  0.61949640222E-01  0.89216374932E+00  0.88000000000E+00 0. -1.
        -11    1    4    4    0    0  0.69704729890E-01 -0.37981312409E-01 -0.24943000569E-01  0.83209037128E-01  0.51100000000E-03 0.  1.
         11    1    4    4    0    0  0.40381347184E-01 -0.74930346230E-02 -0.20791594377E-01  0.46036401749E-01  0.51100000000E-03 0. -1.
</event>
<event>
 8    1  0.1063984E+005  0.1043930E+01  0.7957747E-01            NaN
         13   -1    0    0    0    0  0.00000000000E+00  0.00000000000E+00  0.74505805969E-08  0.10566000000E+00  0.10566000000E+00 0.  1.
     999900   -1    0    0    0    0 -0.00000000000E+00 -0.00000000000E+00 -0.74505805969E-08  0.93827000000E+00  0.93827000000E+00 0.  1.
     999902    2    1    2    0    0 -0.12186413555E-01  0.98268869449E-02 -0.17963023134E-01  0.10201025666E+01  0.10198242495E+01 0.  0.
     999903    2    3    3    0    0  0.12178774954E-01 -0.10955308624E+00 -0.67674605152E-01  0.13031805235E+00  0.15897840176E-01 0.  0.
         14    1    1    2    0    0  0.12186413555E-01 -0.98268869449E-02  0.17963023134E-01  0.23827433401E-01  0.00000000000E+00 0.  1.
     999901    1    3    3    0    0 -0.24365188509E-01  0.11937997318E+00  0.49711582018E-01  0.88978451425E+00  0.88000000000E+00 0.  1.
        -11    1    4    4    0    0 -0.10288086976E-02 -0.20784404275E-01 -0.19187711549E-01  0.28310409815E-01  0.51100000000E-03 0. -1.
         11    1    4    4    0    0  0.13207583652E-01 -0.88768681965E-01 -0.48486893603E-01  0.10200764254E+00  0.51100000000E-03 0.  1.
</event>
<event>
 8    1  0.1063984E+005  0.1043930E+01  0.7957747E-01            NaN
         13   -1    0    0    0    0  0.00000000000E+00  0.00000000000E+00  0.74505805969E-08  0.10566000000E+00  0.10566000000E+00 0.  1.
     999900   -1    0    0    0    0 -0.00000000000E+00 -0.00000000000E+00 -0.74505805969E-08  0.93827000000E+00  0.93827000000E+00 0.  1.
     999902    2    1    2    0    0 -0.47099130052E-02  0.19643670504E-01 -0.12448675963E-01  0.10202018183E+01  0.10199258422E+01 0.  0.
     999903    2    3    3    0    0  0.81400661578E-01  0.32618679439E-02 -0.98069696768E-01  0.13171188947E+00  0.33070363102E-01 0.  0.
         14    1    1    2    0    0  0.47099130052E-02 -0.19643670504E-01  0.12448675963E-01  0.23728181654E-01  0.00000000000E+00 0. -1.
     999901    1    3    3    0    0 -0.86110574583E-01  0.16381802561E-01  0.85621020806E-01  0.88848992888E+00  0.88000000000E+00 0. -1.
        -11    1    4    4    0    0  0.15011965966E-01 -0.12578969468E-01 -0.24199461323E-01  0.31136227202E-01  0.51100000000E-03 0.  1.
         11    1    4    4    0    0  0.66388695611E-01  0.15840837412E-01 -0.73870235445E-01  0.10057566227E+00  0.51100000000E-03 0. -1.
</event>
<event>
 8    1  0.1063984E+005  0.1043930E+01  0.7957747E-01            NaN
         13   -1    0    0    0    0  0.00000000000E+00  0.00000000000E+00  0.74505805969E-08  0.10566000000E+00  0.10566000000E+00 0. -1.
     999900   -1    0    0    0    0 -0.00000000000E+00 -0.00000000000E+00 -0.74505805969E-08  0.93827000000E+00  0.93827000000E+00 0.  1.
     999902    2    1    2    0    0 -0.70495688607E-02 -0.17869715528E-02  0.26891070473E-01  0.10160728760E+01  0.10156909323E+01 0.  0.
     999903    2    3    3    0    0 -0.60352258692E-01  0.10654010742E+00  0.31371688082E-01  0.12781840301E+00  0.18978190575E-01 0.  0.
         14    1    1    2    0    0  0.70495688607E-02  0.17869715528E-02 -0.26891070473E-01  0.27857124037E-01  0.00000000000E+00 0.  1.
     999901    1    3    3    0    0  0.53302689831E-01 -0.10832707897E+00 -0.44806176098E-02  0.88825447295E+00  0.88000000000E+00 0. -1.
        -11    1    4    4    0    0 -0.23370384203E-01  0.50584305623E-01  0.57629035279E-02  0.56021594151E-01  0.51100000000E-03 0.  1.
         11    1    4    4    0    0 -0.36981874489E-01  0.55955801796E-01  0.25608784555E-01  0.71796808862E-01  0.51100000000E-03 0. -1.
</event>
<event>
 8    1  0.1063984E+005  0.1043930E+01  0.7957747E-01            NaN
         13   -1    0    0    0    0  0.00000000000E+00  0.00000000000E+00  0.74505805969E-08  0.10566000000E+00  0.10566000000E+00 0.  1.
     999900   -1    0    0    0    0 -0.00000000000E+00 -0.00000000000E+00 -0.74505805969E-08  0.93827000000E+00  0.93827000000E+00 0.  1.
     999902    2    1    2    0    0  0.78013214154E-02  0.15080870203E-01  0.16540002104E-01  0.10202263097E+01  0.10199509097E+01 0.  0.
     999903    2    3    3    0    0 -0.21456993774E-01  0.11588954079E+00 -0.54216872865E-01  0.13116783449E+00  0.19358286477E-01 0.  0.
         14    1    1    2    0    0 -0.78013214154E-02 -0.15080870203E-01 -0.16540002104E-01  0.23703690251E-01  0.00000000000E+00 0. -1.
     999901    1    3    3    0    0  0.29258315190E-01 -0.10080867059E+00  0.70756874970E-01  0.88905847526E+00  0.88000000000E+00 0. -1.
        -11    1    4    4    0    0 -0.20333366375E-01  0.10254459348E+00 -0.40851742343E-01  0.11224065847E+00  0.51100000000E-03 0. -1.
         11    1    4    4    0    0 -0.11236273991E-02  0.13344947307E-01 -0.13365130523E-01  0.18927176019E-01  0.51100000000E-03 0.  1.
</event>
<event>
 8    1  0.1063984E+005  0.1043930E+01  0.7957747E-01            NaN
         13   -1    0    0    0    0  0.00000000000E+00  0.00000000000E+00  0.74505805969E-08  0.10566000000E+00  0.10566000000E+00 0. -1.
     999900   -1    0    0    0    0 -0.00000000000E+00 -0.00000000000E+00 -0.74505805969E-08  0.93827000000E+00  0.93827000000E+00 0.  1.
     999902    2    1    2    0    0 -0.88101833103E-03  0.20521483806E-01  0.11352314411E-01  0.10204612435E+01  0.10201913384E+01 0.  0.
     999903    2    3    3    0    0 -0.98577273154E-01 -0.43812357628E-01 -0.67977730177E-01  0.12918314021E+00  0.20743925650E-01 0.  0.
         14    1    1    2    0    0  0.88101833103E-03 -0.20521483806E-01 -0.11352314411E-01  0.23468756537E-01  0.00000000000E+00 0.  1.
     999901    1    3    3    0    0  0.97696254823E-01  0.64333841435E-01  0.79330044589E-01  0.89127810325E+00  0.88000000000E+00 0. -1.
        -11    1    4    4    0    0 -0.13270285160E-01 -0.15054800373E-02 -0.15466089534E-01  0.20440841099E-01  0.51100000000E-03 0. -1.
         11    1    4    4    0    0 -0.85306987995E-01 -0.42306877591E-01 -0.52511640643E-01  0.10874229911E+00  0.51100000000E-03 0.  1.
</event>
<event>
 8    1  0.1063984E+005  0.1043930E+01  0.7957747E-01            NaN
         13   -1    0    0    0    0  0.00000000000E+00  0.00000000000E+00  0.74505805969E-08  0.10566000000E+00  0.10566000000E+00 0. -1.
     999900   -1    0    0    0    0 -0.00000000000E+00 -0.00000000000E+00 -0.74505805969E-08  0.93827000000E+00  0.93827000000E+00 0. -1.
     999902    2    1    2    0    0 -0.63898457291E-02  0.17200009035E-01  0.82789406624E-02  0.10238001392E+01  0.10236022243E+01 0.  0.
     999903    2    3    3    0    0 -0.57578614893E-02 -0.31588853640E-01 -0.12660636331E+00  0.13218654698E+00  0.20324943500E-01 0.  0.
         14    1    1    2    0    0  0.63898457291E-02 -0.17200009035E-01 -0.82789406624E-02  0.20129860848E-01  0.00000000000E+00 0. -1.
     999901    1    3    3    0    0 -0.63198423982E-03  0.48788862676E-01  0.13488530397E+00  0.89161359218E+00  0.88000000000E+00 0.  1.
        -11    1    4    4    0    0  0.53729413526E-02 -0.10123899373E-01 -0.64970588862E-01  0.65975755966E-01  0.51100000000E-03 0.  1.
         11    1    4    4    0    0 -0.11130802842E-01 -0.21464954267E-01 -0.61635774446E-01  0.66210791010E-01  0.51100000000E-03 0. -1.
</event>
<event>
 8    1  0.1063984E+005  0.1043930E+01  0.7957747E-01            NaN
         13   -1    0    0    0    0  0.00000000000E+00  0.00000000000E+00  0.74505805969E-08  0.10566000000E+00  0.10566000000E+00 0. -1.
     999900   -1    0    0    0    0 -0.00000000000E+00 -0.00000000000E+00 -0.74505805969E-08  0.93827000000E+00  0.93827000000E+00 0. -1.
     999902    2    1    2    0    0 -0.33637218074E-02  0.43071083507E-02  0.22900082223E-01  0.10203868572E+01  0.10201152184E+01 0.  0.
     999903    2    3    3    0    0 -0.52485016187E-01 -0.10842145729E+00 -0.42735776135E-01  0.12941620843E+00  0.20305642535E-01 0.  0.
         14    1    1    2    0    0  0.33637218074E-02 -0.43071083507E-02 -0.22900082223E-01  0.23543142793E-01  0.00000000000E+00 0.  1.
     999901    1    3    3    0    0  0.49121294379E-01  0.11272856564E+00  0.65635858358E-01  0.89097064877E+00  0.88000000000E+00 0.  1.
        -11    1    4    4    0    0 -0.30927489654E-01 -0.41330715767E-01 -0.16037548748E-01  0.54057393324E-01  0.51100000000E-03 0. -1.
         11    1    4    4    0    0 -0.21557526532E-01 -0.67090741523E-01 -0.26698227387E-01  0.75358815110E-01  0.51100000000E-03 0.  1.
</event>
<event>
 8    1  0.1063984E+005  0.1043930E+01  0.7957747E-01            NaN
         13   -1    0    0    0    0  0.00000000000E+00  0.00000000000E+00  0.74505805969E-08  0.10566000000E+00  0.10566000000E+00 0. -1.
     999900   -1    0    0    0    0 -0.00000000000E+00 -0.00000000000E+00 -0.74505805969E-08  0.93827000000E+00  0.93827000000E+00 0.  1.
     999902    2    1    2    0    0 -0.13189066898E-02 -0.18072704787E-01  0.12941412836E-01  0.10216624824E+01  0.10214197891E+01 0.  0.
     999903    2    3    3    0    0  0.11027213590E+00  0.41436599672E-01 -0.51852590089E-01  0.13026348033E+00  0.20073551291E-01 0.  0.
         14    1    1    2    0    0  0.13189066898E-02  0.18072704787E-01 -0.12941412836E-01  0.22267517585E-01  0.00000000000E+00 0. -1.
     999901    1    3    3    0    0 -0.11159104259E+00 -0.59509304459E-01  0.64794002926E-01  0.89139900208E+00  0.88000000000E+00 0. -1.
        -11    1    4    4    0    0  0.46528011749E-01  0.17039280445E-01 -0.32708121499E-01  0.59374028736E-01  0.51100000000E-03 0. -1.
         11    1    4    4    0    0  0.63744124147E-01  0.24397319227E-01 -0.19144468591E-01  0.70889451595E-01  0.51100000000E-03 0.  1.
</event>
<event>
 8    1  0.1063984E+005  0.1043930E+01  0.7957747E-01            NaN
         13   -1    0    0    0    0  0.00000000000E+00  0.00000000000E+00  0.74505805969E-08  0.10566000000E+00  0.10566000000E+00 0. -1.
     999900   -1    0    0    0    0 -0.00000000000E+00 -0.00000000000E+00 -0.74505805969E-08  0.93827000000E+00  0.93827000000E+00 0. -1.
     999902    2    1    2    0    0 -0.16368019073E-01  0.15376198046E-01 -0.49220469101E-02  0.10209394354E+01  0.10206805400E+01 0.  0.
     999903    2    3    3    0    0 -0.58010074487E-01 -0.11388666420E+00  0.15166356651E-01  0.13029557151E+00  0.20287349641E-01 0.  0.
         14    1    1    2    0    0  0.16368019073E-01 -0.15376198046E-01  0.49220469101E-02  0.22990564598E-01  0.00000000000E+00 0. -1.
     999901    1    3    3    0    0  0.41642055414E-01  0.12926286225E+00 -0.20088403561E-01  0.89064386389E+00  0.88000000000E+00 0.  1.
        -11    1    4    4    0    0 -0.42519755889E-02 -0.22939623697E-01 -0.12982509478E-02  0.23372039027E-01  0.51100000000E-03 0.  1.
         11    1    4    4    0    0 -0.53758098898E-01 -0.90947040505E-01  0.16464607599E-01  0.10692353248E+00  0.51100000000E-03 0. -1.
</event>
<event>
 8    1  0.1063984E+005  0.1043930E+01  0.7957747E-01            NaN
         13   -1    0    0    0    0  0.00000000000E+00  0.00000000000E+00  0.74505805969E-08  0.10566000000E+00  0.10566000000E+00 0. -1.
     999900   -1    0    0    0    0 -0.00000000000E+00 -0.00000000000E+00 -0.74505805969E-08  0.93827000000E+00  0.93827000000E+00 0. -1.
     999902    2    1    2    0    0  0.12356328121E-01 -0.10009557015E-01 -0.17347661038E-01  0.10203968018E+01  0.10201253950E+01 0.  0.
     999903    2    3    3    0    0 -0.46729576200E-01 -0.12079406420E+00  0.57080072873E-02  0.13118596345E+00  0.20057826926E-01 0.  0.
         14    1    1    2    0    0 -0.12356328121E-01  0.10009557015E-01  0.17347661038E-01  0.23533198247E-01  0.00000000000E+00 0. -1.
     999901    1    3    3    0    0  0.59085904320E-01  0.11078450718E+00 -0.23055668325E-01  0.88921083831E+00  0.88000000000E+00 0. -1.
        -11    1    4    4    0    0 -0.12906508239E-01 -0.45398191983E-01  0.10704276302E-01  0.48398516945E-01  0.51100000000E-03 0. -1.
         11    1    4    4    0    0 -0.33823067961E-01 -0.75395872213E-01 -0.49962690151E-02  0.82787446501E-01  0.51100000000E-03 0.  1.
</event>
<event>
 8    1  0.1063984E+005  0.1043930E+01  0.7957747E-01            NaN
         13   -1    0    0    0    0  0.00000000000E+00  0.00000000000E+00  0.74505805969E-08  0.10566000000E+00  0.10566000000E+00 0. -1.
     999900   -1    0    0    0    0 -0.00000000000E+00 -0.00000000000E+00 -0.74505805969E-08  0.93827000000E+00  0.93827000000E+00 0. -1.
     999902    2    1    2    0    0 -0.19301198965E-01  0.85832080889E-02 -0.51139827295E-02  0.10221961425E+01  0.10219650646E+01 0.  0.
     999903    2    3    3    0    0 -0.89264224334E-01 -0.31638194775E-01 -0.91845648953E-01  0.13425753646E+00  0.24907544038E-01 0.  0.
         14    1    1    2    0    0  0.19301198965E-01 -0.85832080889E-02  0.51139827295E-02  0.21733857503E-01  0.00000000000E+00 0.  1.
     999901    1    3    3    0    0  0.69963025368E-01  0.40221402864E-01  0.86731666223E-01  0.88793860604E+00  0.88000000000E+00 0.  1.
        -11    1    4    4    0    0 -0.64237725736E-01 -0.30008132761E-01 -0.55239399273E-01  0.89881175963E-01  0.51100000000E-03 0. -1.
         11    1    4    4    0    0 -0.25026498598E-01 -0.16300620141E-02 -0.36606249679E-01  0.44376360496E-01  0.51100000000E-03 0.  1.
</event>
<event>
 8    1  0.1063984E+005  0.1043930E+01  0.7957747E-01            NaN
         13   -1    0    0    0    0  0.00000000000E+00  0.00000000000E+00  0.74505805969E-08  0.10566000000E+00  0.10566000000E+00 0. -1.
     999900   -1    0    0    0    0 -0.00000000000E+00 -0.00000000000E+00 -0.74505805969E-08  0.93827000000E+00  0.93827000000E+00 0.  1.
     999902    2    1    2    0    0 -0.41828035622E-02  0.18944497879E-01  0.13464339964E-01  0.10203147868E+01  0.10200414628E+01 0.  0.
     999903    2    3    3    0    0 -0.44643370852E-01 -0.73054346912E-01  0.96267478031E-01  0.13073218542E+00  0.22215058254E-01 0.  0.
         14    1    1    2    0    0  0.41828035622E-02 -0.18944497879E-01 -0.13464339964E-01  0.23615213236E-01  0.00000000000E+00 0.  1.
     999901    1    3    3    0    0  0.40460567290E-01  0.91998844791E-01 -0.82803138066E-01  0.88958260135E+00  0.88000000000E+00 0.  1.
        -11    1    4    4    0    0 -0.19757881254E-01 -0.51648827255E-01  0.65692169617E-01  0.85870236395E-01  0.51100000000E-03 0.  1.
         11    1    4    4    0    0 -0.24885489598E-01 -0.21405519657E-01  0.30575308414E-01  0.44861949020E-01  0.51100000000E-03 0. -1.
</event>
<event>
 8    1  0.1063984E+005  0.1043930E+01  0.7957747E-01            NaN
         13   -1    0    0    0    0  0.00000000000E+00  0.00000000000E+00  0.74505805969E-08  0.10566000000E+00  0.10566000000E+00 0.  1.
     999900   -1    0    0    0    0 -0.00000000000E+00 -0.00000000000E+00 -0.74505805969E-08  0.93827000000E+00  0.93827000000E+00 0. -1.
     999902    2    1    2    0    0 -0.12475427609E-01 -0.86942336011E-02 -0.17971741232E-01  0.10203883460E+01  0.10201167419E+01 0.  0.
     999903    2    3    3    0    0 -0.34068419315E-01  0.24107818637E-01  0.12009900936E+00  0.12875738862E+00  0.20318685038E-01 0.  0.
         14    1    1    2    0    0  0.12475427609E-01  0.86942336011E-02  0.17971741232E-01  0.23541654038E-01  0.00000000000E+00 0.  1.
     999901    1    3    3    0    0  0.21592991706E-01 -0.32802052238E-01 -0.13807075059E+00  0.89163095734E+00  0.88000000000E+00 0. -1.
        -11    1    4    4    0    0 -0.26873332817E-01  0.69194786929E-02  0.73845166848E-01  0.78888687338E-01  0.51100000000E-03 0. -1.
         11    1    4    4    0    0 -0.71950864981E-02  0.17188339944E-01  0.46253842509E-01  0.49868701282E-01  0.51100000000E-03 0.  1.
</event>
<event>
 8    1  0.1063984E+005  0.1043930E+01  0.7957747E-01            NaN
         13   -1    0    0    0    0  0.00000000000E+00  0.00000000000E+00  0.74505805969E-08  0.10566000000E+00  0.10566000000E+00 0.  1.
     999900   -1    0    0    0    0 -0.00000000000E+00 -0.00000000000E+00 -0.74505805969E-08  0.93827000000E+00  0.93827000000E+00 0. -1.
     999902    2    1    2    0    0  0.60240420142E-02 -0.17502861122E-01 -0.14022548566E-01  0.10207077887E+01  0.10204435892E+01 0.  0.
     999903    2    3    3    0    0  0.14490952457E-01  0.11449790349E+00 -0.53709764168E-01  0.12993791633E+00  0.26064645143E-01 0.  0.
         14    1    1    2    0    0 -0.60240420142E-02  0.17502861122E-01  0.14022548566E-01  0.23222211306E-01  0.00000000000E+00 0.  1.
     999901    1    3    3    0    0 -0.84669104431E-02 -0.13200076461E+00  0.39687215602E-01  0.89076987236E+00  0.88000000000E+00 0.  1.
        -11    1    4    4    0    0 -0.23917094094E-02  0.62341682536E-01 -0.19714715284E-01  0.65430396415E-01  0.51100000000E-03 0.  1.
         11    1    4    4    0    0  0.16882661867E-01  0.52156220954E-01 -0.33995048884E-01  0.64507519915E-01  0.51100000000E-03 0. -1.
</event>
<event>
 8    1  0.1063984E+005  0.1043930E+01  0.7957747E-01            NaN
         13   -1    0    0    0    0  0.00000000000E+00  0.00000000000E+00  0.74505805969E-08  0.10566000000E+00  0.10566000000E+00 0.  1.
     999900   -1    0    0    0    0 -0.00000000000E+00 -0.00000000000E+00 -0.74505805969E-08  0.93827000000E+00  0.93827000000E+00 0. -1.
     999902    2    1    2    0    0  0.20389444281E-01 -0.78244954762E-02  0.10672486640E-01  0.10196225086E+01  0.10193327258E+01 0.  0.
     999903    2    3    3    0    0  0.74433933218E-01  0.90754519973E-01 -0.53183847130E-01  0.13017534297E+00  0.18447357838E-01 0.  0.
         14    1    1    2    0    0 -0.20389444281E-01  0.78244954762E-02 -0.10672486640E-01  0.24307491410E-01  0.00000000000E+00 0. -1.
     999901    1    3    3    0    0 -0.54044488937E-01 -0.98579015450E-01  0.63856333770E-01  0.88944716562E+00  0.88000000000E+00 0.  1.
        -11    1    4    4    0    0  0.34401459444E-01  0.35171638190E-01 -0.31085547386E-01  0.58198598970E-01  0.51100000000E-03 0.  1.
         11    1    4    4    0    0  0.40032473774E-01  0.55582881783E-01 -0.22098299745E-01  0.71976743997E-01  0.51100000000E-03 0. -1.
</event>
<event>
 8    1  0.1063984E+005  0.1043930E+01  0.7957747E-01            NaN
         13   -1    0    0    0    0  0.00000000000E+00  0.00000000000E+00  0.74505805969E-08  0.10566000000E+00  0.10566000000E+00 0. -1.
     999900   -1    0    0    0    0 -0.00000000000E+00 -0.00000000000E+00 -0.74505805969E-08  0.93827000000E+00  0.93827000000E+00 0.  1.
     999902    2    1    2    0    0  0.60273032585E-03  0.33934596415E-02 -0.22805819637E-01  0.10208652160E+01  0.10206046271E+01 0.  0.
     999903    2    3    3    0    0  0.40407540992E-01  0.11211235126E+00 -0.54712782029E-01  0.13270854366E+00  0.20399028678E-01 0.  0.
         14    1    1    2    0    0 -0.60273032585E-03 -0.33934596415E-02  0.22805819637E-01  0.23064784011E-01  0.00000000000E+00 0. -1.
     999901    1    3    3    0    0 -0.39804810666E-01 -0.10871889161E+00  0.31906962393E-01  0.88815667232E+00  0.88000000000E+00 0. -1.
        -11    1    4    4    0    0  0.30860175268E-01  0.58920823573E-01 -0.35159710223E-01  0.75236162928E-01  0.51100000000E-03 0.  1.
         11    1    4    4    0    0  0.95473657238E-02  0.53191527682E-01 -0.19553071806E-01  0.57472380736E-01  0.51100000000E-03 0. -1.
</event>
<event>
 8    1  0.1063984E+005  0.1043930E+01  0.7957747E-01            NaN
         13   -1    0    0    0    0  0.00000000000E+00  0.00000000000E+00  0.74505805969E-08  0.10566000000E+00  0.10566000000E+00 0. -1.
     999900   -1    0    0    0    0 -0.00000000000E+00 -0.00000000000E+00 -0.74505805969E-08  0.93827000000E+00  0.93827000000E+00 0. -1.
     999902    2    1    2    0    0  0.86952775830E-02 -0.20523701284E-01  0.13256428639E-01  0.10179961791E+01  0.10176657887E+01 0.  0.
     999903    2    3    3    0    0  0.57325868194E-01  0.93051072212E-01 -0.60042443204E-01  0.12634776849E+00  0.20344690025E-01 0.  0.
         14    1    1    2    0    0 -0.86952775830E-02  0.20523701284E-01 -0.13256428639E-01  0.25933820908E-01  0.00000000000E+00 0.  1.
     999901    1    3    3    0    0 -0.48630590611E-01 -0.11357477350E+00  0.73298871843E-01  0.89164841060E+00  0.88000000000E+00 0.  1.
        -11    1    4    4    0    0  0.68285134198E-02  0.25225867628E-01 -0.93734109546E-02  0.27768596419E-01  0.51100000000E-03 0. -1.
         11    1    4    4    0    0  0.50497354774E-01  0.67825204583E-01 -0.50669032250E-01  0.98579172070E-01  0.51100000000E-03 0.  1.
</event>
<event>
 8    1  0.1063984E+005  0.1043930E+01  0.7957747E-01            NaN
         13   -1    0    0    0    0  0.00000000000E+00  0.00000000000E+00  0.74505805969E-08  0.10566000000E+00  0.10566000000E+00 0.  1.
     999900   -1    0    0    0    0 -0.00000000000E+00 -0.00000000000E+00 -0.74505805969E-08  0.93827000000E+00  0.93827000000E+00 0. -1.
     999902    2    1    2    0    0 -0.19800150451E-01  0.89156880408E-02 -0.81330434227E-02  0.10207420323E+01  0.10204786204E+01 0.  0.
     999903    2    3    3    0    0 -0.90253978816E-01 -0.94024305387E-01  0.53919640310E-03  0.13190256877E+00  0.20289066474E-01 0.  0.
         14    1    1    2    0    0  0.19800150451E-01 -0.89156880408E-02  0.81330434227E-02  0.23187967708E-01  0.00000000000E+00 0.  1.
     999901    1    3    3    0    0  0.70453828365E-01  0.10293999343E+00 -0.86722398258E-02  0.88883946353E+00  0.88000000000E+00 0.  1.
        -11    1    4    4    0    0 -0.43033777131E-01 -0.33601610741E-01 -0.60400854120E-02  0.54933759851E-01  0.51100000000E-03 0.  1.
         11    1    4    4    0    0 -0.47220201685E-01 -0.60422694646E-01  0.65792818151E-02  0.76968808914E-01  0.51100000000E-03 0. -1.
</event>
<event>
 8    1  0.1063984E+005  0.1043930E+01  0.7957747E-01            NaN
         13   -1    0    0    0    0  0.00000000000E+00  0.00000000000E+00  0.74505805969E-08  0.10566000000E+00  0.10566000000E+00 0.  1.
     999900   -1    0    0    0    0 -0.00000000000E+00 -0.00000000000E+00 -0.74505805969E-08  0.93827000000E+00  0.93827000000E+00 0.  1.
     999902    2    1    2    0    0 -0.10811316835E-01  0.14158363989E-01  0.12750467341E-01  0.10220229632E+01  0.10217881479E+01 0.  0.
     999903    2    3    3    0    0  0.10405900455E+00 -0.72777145551E-01 -0.17923107965E-01  0.12978205307E+00  0.19933744173E-01 0.  0.
         14    1    1    2    0    0  0.10811316835E-01 -0.14158363989E-01 -0.12750467341E-01  0.21907036768E-01  0.00000000000E+00 0. -1.
     999901    1    3    3    0    0 -0.11487032138E+00  0.86935509540E-01  0.30673575306E-01  0.89224091017E+00  0.88000000000E+00 0. -1.
        -11    1    4    4    0    0  0.13401996109E-01 -0.54252279316E-02  0.33662569944E-02  0.14853935672E-01  0.51100000000E-03 0.  1.
         11    1    4    4    0    0  0.90657008439E-01 -0.67351917620E-01 -0.21289364959E-01  0.11492811739E+00  0.51100000000E-03 0. -1.
</event>
<event>
 8    1  0.1063984E+005  0.1043930E+01  0.7957747E-01            NaN
         13   -1    0    0    0    0  0.00000000000E+00  0.00000000000E+00  0.74505805969E-08  0.10566000000E+00  0.10566000000E+00 0. -1.
     999900   -1    0    0    0    0 -0.00000000000E+00 -0.00000000000E+00 -0.74505805969E-08  0.93827000000E+00  0.93827000000E+00 0.  1.
     999902    2    1    2    0    0 -0.21011555827E-01 -0.18095027681E-02  0.94006087664E-02  0.10208403654E+01  0.10205792083E+01 0.  0.
     999903    2    3    3    0    0  0.99507050952E-01 -0.55356621773E-01  0.58682930388E-01  0.12964971483E+00  0.19983830261E-01 0.  0.
         14    1    1    2    0    0  0.21011555827E-01  0.18095027681E-02 -0.94006087664E-02  0.23089634552E-01  0.00000000000E+00 0. -1.
     999901    1    3    3    0    0 -0.12051860678E+00  0.53547119005E-01 -0.49282321622E-01  0.89119065062E+00  0.88000000000E+00 0.  1.
        -11    1    4    4    0    0  0.30252523271E-01 -0.88104529747E-02  0.22371263032E-01  0.38646782227E-01  0.51100000000E-03 0. -1.
         11    1    4    4    0    0  0.69254527682E-01 -0.46546168799E-01  0.36311667356E-01  0.91002932598E-01  0.51100000000E-03 0.  1.
</event>
<event>
 8    1  0.1063984E+005  0.1043930E+01  0.7957747E-01            NaN
         13   -1    0    0    0    0  0.00000000000E+00  0.00000000000E+00  0.74505805969E-08  0.10566000000E+00  0.10566000000E+00 0.  1.
     999900   -1    0    0    0    0 -0.00000000000E+00 -0.00000000000E+00 -0.74505805969E-08  0.93827000000E+00  0.93827000000E+00 0.  1.
     999902    2    1    2    0    0 -0.62997291398E-02  0.18733384188E-01  0.10940435856E-01  0.10213397497E+01  0.10210898907E+01 0.  0.
     999903    2    3    3    0    0  0.42447741804E-02 -0.72955615417E-01  0.10679970703E+00  0.13133578397E+00  0.22413629840E-01 0.  0.
         14    1    1    2    0    0  0.62997291398E-02 -0.18733384188E-01 -0.10940435856E-01  0.22590250266E-01  0.00000000000E+00 0. -1.
     999901    1    3    3    0    0 -0.10544503320E-01  0.91688999604E-01 -0.95859271170E-01  0.89000396576E+00  0.88000000000E+00 0.  1.
        -11    1    4    4    0    0  0.39170392006E-02 -0.52057755830E-01  0.56838266541E-01  0.77176439427E-01  0.51100000000E-03 0.  1.
         11    1    4    4    0    0  0.32773497977E-03 -0.20897859587E-01  0.49961440485E-01  0.54159344548E-01  0.51100000000E-03 0. -1.
</event>
<event>
 8    1  0.1063984E+005  0.1043930E+01  0.7957747E-01            NaN
         13   -1    0    0    0    0  0.00000000000E+00  0.00000000000E+00  0.74505805969E-08  0.10566000000E+00  0.10566000000E+00 0.  1.
     999900   -1    0    0    0    0 -0.00000000000E+00 -0.00000000000E+00 -0.74505805969E-08  0.93827000000E+00  0.93827000000E+00 0. -1.
     999902    2    1    2    0    0 -0.89596225901E-02 -0.12415316270E-01  0.18594089302E-01  0.10198435916E+01  0.10195591185E+01 0.  0.
     999903    2    3    3    0    0  0.35216338573E-01  0.11999000869E+00 -0.18980479571E-01  0.12805071546E+00  0.19973343154E-01 0.  0.
         14    1    1    2    0    0  0.89596225901E-02  0.12415316270E-01 -0.18594089302E-01  0.24086408450E-01  0.00000000000E+00 0.  1.
     999901    1    3    3    0    0 -0.44175961164E-01 -0.13240532496E+00  0.37574568873E-01  0.89179287609E+00  0.88000000000E+00 0. -1.
        -11    1    4    4    0    0  0.78784167653E-02  0.62256979667E-01 -0.94719974771E-02  0.63466375548E-01  0.51100000000E-03 0.  1.
         11    1    4    4    0    0  0.27337921808E-01  0.57733029023E-01 -0.95084820944E-02  0.64584339911E-01  0.51100000000E-03 0. -1.
</event>
<event>
 8    1  0.1063984E+005  0.1043930E+01  0.7957747E-01            NaN
         13   -1    0    0    0    0  0.00000000000E+00  0.00000000000E+00  0.74505805969E-08  0.10566000000E+00  0.10566000000E+00 0. -1.
     999900   -1    0    0    0    0 -0.00000000000E+00 -0.00000000000E+00 -0.74505805969E-08  0.93827000000E+00  0.93827000000E+00 0.  1.
     999902    2    1    2    0    0 -0.71880445941E-02  0.13306657560E-01  0.18473645813E-01  0.10200551029E+01  0.10197756627E+01 0.  0.
     999903    2    3    3    0    0 -0.12922515124E+00 -0.80375404743E-02  0.10529556079E-01  0.13134157273E+00  0.19390600977E-01 0.  0.
         14    1    1    2    0    0  0.71880445941E-02 -0.13306657560E-01 -0.18473645813E-01  0.23874897071E-01  0.00000000000E+00 0. -1.
     999901    1    3    3    0    0  0.12203710665E+00  0.21344198034E-01  0.79440897342E-02  0.88871353019E+00  0.88000000000E+00 0.  1.
        -11    1    4    4    0    0 -0.50717528394E-01 -0.12404450055E-01  0.63543207189E-02  0.52600157608E-01  0.51100000000E-03 0.  1.
         11    1    4    4    0    0 -0.78507622850E-01  0.43669095811E-02  0.41752353603E-02  0.78741415126E-01  0.51100000000E-03 0. -1.
</event>
<event>
 8    1  0.1063984E+005  0.1043930E+01  0.7957747E-01            NaN
         13   -1    0    0    0    0  0.00000000000E+00  0.00000000000E+00  0.74505805969E-08  0.10566000000E+00  0.10566000000E+00 0.  1.
     999900   -1    0    0    0    0 -0.00000000000E+00 -0.00000000000E+00 -0.74505805969E-08  0.93827000000E+00  0.93827000000E+00 0. -1.
     999902    2    1    2    0    0 -0.15404132460E-02  0.19558329827E-01 -0.13413942361E-01  0.10201637427E+01  0.10198868696E+01 0.  0.
     999903    2    3    3    0    0  0.11162937872E+00  0.60975425149E-01 -0.27871881812E-01  0.13183283043E+00  0.20589626483E-01 0.  0.
         14    1    1    2    0    0  0.15404132460E-02 -0.19558329827E-01  0.13413942361E-01  0.23766257347E-01  0.00000000000E+00 0.  1.
     999901    1    3    3    0    0 -0.11316979196E+00 -0.41417095321E-01  0.14457939451E-01  0.88833091222E+00  0.88000000000E+00 0. -1.
        -11    1    4    4    0    0  0.88183065110E-01  0.47795001748E-01 -0.13138967967E-01  0.10116080646E+00  0.51100000000E-03 0.  1.
         11    1    4    4    0    0  0.23446313606E-01  0.13180423400E-01 -0.14732913846E-01  0.30672023965E-01  0.51100000000E-03 0. -1.
</event>
<event>
 8    1  0.1090315E+005  0.1043930E+01  0.7957747E-01            NaN
         13   -1    0    0    0    0  0.00000000000E+00  0.00000000000E+00  0.74505805969E-08  0.10566000000E+00  0.10566000000E+00 0. -1.
     999900   -1    0    0    0    0 -0.00000000000E+00 -0.00000000000E+00 -0.74505805969E-08  0.93827000000E+00  0.93827000000E+00 0. -1.
     999902    2    1    2    0    0  0.19366536470E-01 -0.79459140618E-02  0.10034547467E-01  0.10207159433E+01  0.10204519315E+01 0.  0.
     999903    2    3    3    0    0  0.79099480094E-01 -0.87379502367E-01  0.59802153833E-01  0.13372409772E+00  0.20345307129E-01 0.  0.
         14    1    1    2    0    0 -0.19366536470E-01  0.79459140618E-02 -0.10034547467E-01  0.23214056690E-01  0.00000000000E+00 0. -1.
     999901    1    3    3    0    0 -0.59732943624E-01  0.79433588305E-01 -0.49767606366E-01  0.88699184559E+00  0.88000000000E+00 0. -1.
        -11    1    4    4    0    0  0.32913188190E-01 -0.22483479756E-01  0.22394150755E-01  0.45722466336E-01  0.51100000000E-03 0. -1.
         11    1    4    4    0    0  0.46186291904E-01 -0.64896022611E-01  0.37408003078E-01  0.88001631382E-01  0.51100000000E-03 0.  1.
</event>
<event>
 8    1  0.1063984E+005  0.1043930E+01  0.7957747E-01            NaN
         13   -1    0    0    0    0  0.00000000000E+00  0.00000000000E+00  0.74505805969E-08  0.10566000000E+00  0.10566000000E+00 0.  1.
     999900   -1    0    0    0    0 -0.00000000000E+00 -0.00000000000E+00 -0.74505805969E-08  0.93827000000E+00  0.93827000000E+00 0.  1.
     999902    2    1    2    0    0 -0.22617753162E-02  0.96065291282E-02  0.26182961552E-01  0.10159487830E+01  0.10155633812E+01 0.  0.
     999903    2    3    3    0    0  0.14978219207E-01 -0.23112700573E-01  0.12545920114E+00  0.12959471314E+00  0.17211465456E-01 0.  0.
         14    1    1    2    0    0  0.22617753162E-02 -0.96065291282E-02 -0.26182961552E-01  0.27981217006E-01  0.00000000000E+00 0. -1.
     999901    1    3    3    0    0 -0.17239994523E-01  0.32719229701E-01 -0.99276239592E-01  0.88635406986E+00  0.88000000000E+00 0.  1.
        -11    1    4    4    0    0  0.86078025940E-02 -0.24108110950E-01  0.90980489577E-01  0.94514580270E-01  0.51100000000E-03 0.  1.
         11    1    4    4    0    0  0.63704166129E-02  0.99541037688E-03  0.34478711568E-01  0.35080132868E-01  0.51100000000E-03 0. -1.
</event>
<event>
 8    1  0.1063984E+005  0.1043930E+01  0.7957747E-01            NaN
         13   -1    0    0    0    0  0.00000000000E+00  0.00000000000E+00  0.74505805969E-08  0.10566000000E+00  0.10566000000E+00 0. -1.
     999900   -1    0    0    0    0 -0.00000000000E+00 -0.00000000000E+00 -0.74505805969E-08  0.93827000000E+00  0.93827000000E+00 0. -1.
     999902    2    1    2    0    0 -0.16752540471E-01 -0.74801752859E-02  0.15765139710E-01  0.10197403273E+01  0.10194533804E+01 0.  0.
     999903    2    3    3    0    0  0.12518940474E+00 -0.15018402725E-01 -0.89604234754E-02  0.12799165523E+00  0.20090672950E-01 0.  0.
         14    1    1    2    0    0  0.16752540471E-01  0.74801752859E-02 -0.15765139710E-01  0.24189672685E-01  0.00000000000E+00 0.  1.
     999901    1    3    3    0    0 -0.14194194522E+00  0.75382274390E-02  0.24725563185E-01  0.89174867208E+00  0.88000000000E+00 0. -1.
        -11    1    4    4    0    0  0.11029530329E+00 -0.10234192149E-01 -0.18133299321E-02  0.11078511589E+00  0.51100000000E-03 0. -1.
         11    1    4    4    0    0  0.14894101459E-01 -0.47842105759E-02 -0.71470935434E-02  0.17206539344E-01  0.51100000000E-03 0.  1.
</event>
<event>
 8    1  0.1063984E+005  0.1043930E+01  0.7957747E-01            NaN
         13   -1    0    0    0    0  0.00000000000E+00  0.00000000000E+00  0.74505805969E-08  0.10566000000E+00  0.10566000000E+00 0. -1.
     999900   -1    0    0    0    0 -0.00000000000E+00 -0.00000000000E+00 -0.74505805969E-08  0.93827000000E+00  0.93827000000E+00 0. -1.
     999902    2    1    2    0    0 -0.12889462005E-01 -0.13668244757E-01 -0.13430899572E-01  0.10208356672E+01  0.10205744026E+01 0.  0.
     999903    2    3    3    0    0 -0.12778113897E+00 -0.33256886423E-01 -0.12819309027E-01  0.13315093352E+00  0.11436627163E-01 0.  0.
         14    1    1    2    0    0  0.12889462005E-01  0.13668244757E-01  0.13430899572E-01  0.23094332829E-01  0.00000000000E+00 0. -1.
     999901    1    3    3    0    0  0.11489167697E+00  0.19588641666E-01 -0.61159054458E-03  0.88768473365E+00  0.88000000000E+00 0.  1.
        -11    1    4    4    0    0 -0.72976024262E-01 -0.24424200373E-01 -0.94430406093E-02  0.77533694726E-01  0.51100000000E-03 0. -1.
         11    1    4    4    0    0 -0.54805114711E-01 -0.88326860501E-02 -0.33762684182E-02  0.55617238791E-01  0.51100000000E-03 0.  1.
</event>
<event>
 8    1  0.1063984E+005  0.1043930E+01  0.7957747E-01            NaN
         13   -1    0    0    0    0  0.00000000000E+00  0.00000000000E+00  0.74505805969E-08  0.10566000000E+00  0.10566000000E+00 0.  1.
     999900   -1    0    0    0    0 -0.00000000000E+00 -0.00000000000E+00 -0.74505805969E-08  0.93827000000E+00  0.93827000000E+00 0. -1.
     999902    2    1    2    0    0 -0.11382106712E-01 -0.23159883250E-01 -0.37763003575E-02  0.10178494902E+01  0.10175153030E+01 0.  0.
     999903    2    3    3    0    0  0.12441603963E+00  0.75066789548E-02  0.83706038576E-02  0.12682248623E+00  0.21867209638E-01 0.  0.
         14    1    1    2    0    0  0.11382106712E-01  0.23159883250E-01  0.37763003575E-02  0.26080509768E-01  0.00000000000E+00 0. -1.
     999901    1    3    3    0    0 -0.13579814634E+00 -0.30666562204E-01 -0.12146904215E-01  0.89102700401E+00  0.88000000000E+00 0. -1.
        -11    1    4    4    0    0  0.84997081813E-01  0.95182794085E-02 -0.35036346197E-02  0.85601624612E-01  0.51100000000E-03 0. -1.
         11    1    4    4    0    0  0.39418957817E-01 -0.20116004537E-02  0.11874238477E-01  0.41220861613E-01  0.51100000000E-03 0.  1.
</event>
<event>
 8    1  0.1063984E+005  0.1043930E+01  0.7957747E-01            NaN
         13   -1    0    0    0    0  0.00000000000E+00  0.00000000000E+00  0.74505805969E-08  0.10566000000E+00  0.10566000000E+00 0.  1.
     999900   -1    0    0    0    0 -0.00000000000E+00 -0.00000000000E+00 -0.74505805969E-08  0.93827000000E+00  0.93827000000E+00 0. -1.
     999902    2    1    2    0    0 -0.12318057879E-01  0.25279062602E-01 -0.12253376287E-01  0.10132557309E+01  0.10127913237E+01 0.  0.
     999903    2    3    3    0    0 -0.73216957820E-01 -0.64373943575E-01 -0.74532884501E-01  0.12442218365E+00  0.20518318353E-01 0.  0.
         14    1    1    2    0    0  0.12318057879E-01 -0.25279062602E-01  0.12253376287E-01  0.30674269125E-01  0.00000000000E+00 0. -1.
     999901    1    3    3    0    0  0.60898899941E-01  0.89653006177E-01  0.62279508215E-01  0.88883354723E+00  0.88000000000E+00 0. -1.
        -11    1    4    4    0    0 -0.28604045186E-01 -0.30515038066E-01 -0.43679578243E-01  0.60477480318E-01  0.51100000000E-03 0. -1.
         11    1    4    4    0    0 -0.44612912634E-01 -0.33858905510E-01 -0.30853306259E-01  0.63944703331E-01  0.51100000000E-03 0.  1.
</event>
<event>
 8    1  0.1063984E+005  0.1043930E+01  0.7957747E-01            NaN
         13   -1    0    0    0    0  0.00000000000E+00  0.00000000000E+00  0.74505805969E-08  0.10566000000E+00  0.10566000000E+00 0.  1.
     999900   -1    0    0    0    0 -0.00000000000E+00 -0.00000000000E+00 -0.74505805969E-08  0.93827000000E+00  0.93827000000E+00 0.  1.
     999902    2    1    2    0    0  0.20624467963E-01  0.10592961198E-01 -0.90989946670E-02  0.10190227479E+01  0.10187183072E+01 0.  0.
     999903    2    3    3    0    0  0.19907746907E-01 -0.77915183734E-01 -0.10005096671E+00  0.12991844203E+00  0.20037749313E-01 0.  0.
         14    1    1    2    0    0 -0.20624467963E-01 -0.10592961198E-01  0.90989946670E-02  0.24907252150E-01  0.00000000000E+00 0. -1.
     999901    1    3    3    0    0  0.71672105585E-03  0.88508144932E-01  0.90951972040E-01  0.88910430582E+00  0.88000000000E+00 0. -1.
        -11    1    4    4    0    0  0.20445203752E-02 -0.47629658736E-01 -0.55684069661E-01  0.73305805977E-01  0.51100000000E-03 0. -1.
         11    1    4    4    0    0  0.17863226532E-01 -0.30285524998E-01 -0.44366897046E-01  0.56612636054E-01  0.51100000000E-03 0.  1.
</event>
<event>
 8    1  0.1063984E+005  0.1043930E+01  0.7957747E-01            NaN
         13   -1    0    0    0    0  0.00000000000E+00  0.00000000000E+00  0.74505805969E-08  0.10566000000E+00  0.10566000000E+00 0. -1.
     999900   -1    0    0    0    0 -0.00000000000E+00 -0.00000000000E+00 -0.74505805969E-08  0.93827000000E+00  0.93827000000E+00 0.  1.
     999902    2    1    2    0    0  0.13957891806E-01  0.57924234903E-02 -0.20934251048E-01  0.10181110577E+01  0.10177836254E+01 0.  0.
     999903    2    3    3    0    0 -0.10811386132E+00 -0.42625499419E-01 -0.49275429983E-01  0.12791499471E+00  0.20703566428E-01 0.  0.
         14    1    1    2    0    0 -0.13957891806E-01 -0.57924234903E-02  0.20934251048E-01  0.25818942281E-01  0.00000000000E+00 0. -1.
     999901    1    3    3    0    0  0.12207175312E+00  0.48417922910E-01  0.28341178935E-01  0.89019606301E+00  0.88000000000E+00 0. -1.
        -11    1    4    4    0    0 -0.44772978451E-01 -0.11694875807E-01 -0.28809652723E-01  0.54512814370E-01  0.51100000000E-03 0. -1.
         11    1    4    4    0    0 -0.63340882865E-01 -0.30930623612E-01 -0.20465777261E-01  0.73402180343E-01  0.51100000000E-03 0.  1.
</event>
<event>
 8    1  0.1063984E+005  0.1043930E+01  0.7957747E-01            NaN
         13   -1    0    0    0    0  0.00000000000E+00  0.00000000000E+00  0.74505805969E-08  0.10566000000E+00  0.10566000000E+00 0.  1.
     999900   -1    0    0    0    0 -0.00000000000E+00 -0.00000000000E+00 -0.74505805969E-08  0.93827000000E+00  0.93827000000E+00 0.  1.
     999902    2    1    2    0    0 -0.24922544569E-01 -0.72159341135E-02  0.51433372202E-02  0.10174789726E+01  0.10171350957E+01 0.  0.
     999903    2    3    3    0    0 -0.35825804308E-01  0.33170218688E-01 -0.11671377046E+00  0.12809768366E+00  0.20078861608E-01 0.  0.
         14    1    1    2    0    0  0.24922544569E-01  0.72159341135E-02 -0.51433372202E-02  0.26451027403E-01  0.00000000000E+00 0.  1.
     999901    1    3    3    0    0  0.10903259739E-01 -0.40386152801E-01  0.12185710768E+00  0.88938128893E+00  0.88000000000E+00 0. -1.
        -11    1    4    4    0    0 -0.87390791121E-02  0.39161372158E-02 -0.45330779934E-01  0.46334095058E-01  0.51100000000E-03 0. -1.
         11    1    4    4    0    0 -0.27086725196E-01  0.29254081472E-01 -0.71382990525E-01  0.81763588607E-01  0.51100000000E-03 0.  1.
</event>
<event>
 8    1  0.1063984E+005  0.1043930E+01  0.7957747E-01            NaN
         13   -1    0    0    0    0  0.00000000000E+00  0.00000000000E+00  0.74505805969E-08  0.10566000000E+00  0.10566000000E+00 0.  1.
     999900   -1    0    0    0    0 -0.00000000000E+00 -0.00000000000E+00 -0.74505805969E-08  0.93827000000E+00  0.93827000000E+00 0.  1.
     999902    2    1    2    0    0 -0.27209148964E-02 -0.21260666690E-02  0.22243806785E-01  0.10214197695E+01  0.10211716971E+01 0.  0.
     999903    2    3    3    0    0 -0.74553123078E-02 -0.10589041268E+00  0.78414664040E-01  0.13353204054E+00  0.20336792614E-01 0.  0.
         14    1    1    2    0    0  0.27209148964E-02  0.21260666690E-02 -0.22243806785E-01  0.22510230510E-01  0.00000000000E+00 0. -1.
     999901    1    3    3    0    0  0.47343974115E-02  0.10376434601E+00 -0.56170857255E-01  0.88788772895E+00  0.88000000000E+00 0. -1.
        -11    1    4    4    0    0  0.43793900578E-02 -0.64220780735E-01  0.52377446127E-01  0.82988828882E-01  0.51100000000E-03 0. -1.
         11    1    4    4    0    0 -0.11834702366E-01 -0.41669631946E-01  0.26037217913E-01  0.50543211653E-01  0.51100000000E-03 0.  1.
</event>
<event>
 8    1  0.1063984E+005  0.1043930E+01  0.7957747E-01            NaN
         13   -1    0    0    0    0  0.00000000000E+00  0.00000000000E+00  0.74505805969E-08  0.10566000000E+00  0.10566000000E+00 0. -1.
     999900   -1    0    0    0    0 -0.00000000000E+00 -0.00000000000E+00 -0.74505805969E-08  0.93827000000E+00  0.93827000000E+00 0.  1.
     999902    2    1    2    0    0  0.91944893745E-02 -0.10157701426E-01 -0.18779838810E-01  0.10206834975E+01  0.10204187386E+01 0.  0.
     999903    2    3    3    0    0  0.64321561858E-01  0.10952426085E+00 -0.24298541410E-01  0.13085586121E+00  0.20000256596E-01 0.  0.
         14    1    1    2    0    0 -0.91944893745E-02  0.10157701426E-01  0.18779838810E-01  0.23246502507E-01  0.00000000000E+00 0. -1.
     999901    1    3    3    0    0 -0.55127072483E-01 -0.11968196227E+00  0.55187026005E-02  0.88982763628E+00  0.88000000000E+00 0. -1.
        -11    1    4    4    0    0  0.11844954302E-01  0.87771210163E-02 -0.30970539175E-03  0.14754586886E-01  0.51100000000E-03 0. -1.
         11    1    4    4    0    0  0.52476607556E-01  0.10074713983E+00 -0.23988836019E-01  0.11610127432E+00  0.51100000000E-03 0.  1.
</event>
<event>
 8    1  0.1063984E+005  0.1043930E+01  0.7957747E-01            NaN
         13   -1    0    0    0    0  0.00000000000E+00  0.00000000000E+00  0.74505805969E-08  0.10566000000E+00  0.10566000000E+00 0. -1.
     999900   -1    0    0    0    0 -0.00000000000E+00 -0.00000000000E+00 -0.74505805969E-08  0.93827000000E+00  0.93827000000E+00 0.  1.
     999902    2    1    2    0    0  0.22751600243E-01 -0.59425282629E-02  0.36305661601E-02  0.10201365142E+01  0.10198589989E+01 0.  0.
     999903    2    3    3    0    0 -0.32895420662E-01  0.87458778824E-01 -0.86390429445E-01  0.12888785375E+00  0.20435896157E-01 0.  0.
         14    1    1    2    0    0 -0.22751600243E-01  0.59425282629E-02 -0.36305661601E-02  0.23793485798E-01  0.00000000000E+00 0.  1.
     999901    1    3    3    0    0  0.55647020905E-01 -0.93401307086E-01  0.90020995605E-01  0.89124866045E+00  0.88000000000E+00 0. -1.
        -11    1    4    4    0    0 -0.19784616866E-01  0.27229352177E-01 -0.35835955261E-01  0.49166507858E-01  0.51100000000E-03 0.  1.
         11    1    4    4    0    0 -0.13110803796E-01  0.60229426647E-01 -0.50554474184E-01  0.79721345896E-01  0.51100000000E-03 0. -1.
</event>
<event>
 8    1  0.1063984E+005  0.1043930E+01  0.7957747E-01            NaN
         13   -1    0    0    0    0  0.00000000000E+00  0.00000000000E+00  0.74505805969E-08  0.10566000000E+00  0.10566000000E+00 0. -1.
     999900   -1    0    0    0    0 -0.00000000000E+00 -0.00000000000E+00 -0.74505805969E-08  0.93827000000E+00  0.93827000000E+00 0. -1.
     999902    2    1    2    0    0 -0.17997644994E-01  0.13632948995E-01 -0.22591895033E-03  0.10213507271E+01  0.10211011136E+01 0.  0.
     999903    2    3    3    0    0  0.96155034064E-01 -0.82794955645E-01 -0.78581039649E-02  0.12872122663E+00  0.20164551344E-01 0.  0.
         14    1    1    2    0    0  0.17997644994E-01 -0.13632948995E-01  0.22591895033E-03  0.22579272863E-01  0.00000000000E+00 0.  1.
     999901    1    3    3    0    0 -0.11415267906E+00  0.96427904640E-01  0.76321850146E-02  0.89262950051E+00  0.88000000000E+00 0. -1.
        -11    1    4    4    0    0  0.46380433705E-01 -0.44705579182E-01 -0.13396656875E-01  0.65798670025E-01  0.51100000000E-03 0. -1.
         11    1    4    4    0    0  0.49774600359E-01 -0.38089376463E-01  0.55385529102E-02  0.62922556603E-01  0.51100000000E-03 0.  1.
</event>
<event>
 7    1  0.1063984E+005  0.1043930E+01  0.7957747E-01            NaN
         13   -1    0    0    0    0  0.00000000000E+00  0.00000000000E+00  0.74505805969E-08  0.10566000000E+00  0.10566000000E+00 0.  1.
     999900   -1    0    0    0    0 -0.00000000000E+00 -0.00000000000E+00 -0.74505805969E-08  0.93827000000E+00  0.93827000000E+00 0. -1.
     999903    2    1    2    0    0  0.88192294769E-01 -0.47687856912E-01 -0.32908597034E-01  0.10737985352E+00  0.19885789650E-01 0.  0.
         14    1    1    2    0    0 -0.61816682964E-02 -0.45657965648E-01 -0.85218650195E-02  0.46856003174E-01  0.00000000000E+00 0. -1.
     999901    1    1    2    0    0 -0.82010626473E-01  0.93345822561E-01  0.41430462053E-01  0.88969414330E+00  0.88000000000E+00 0.  1.
        -11    1    3    3    0    0  0.81415633591E-01 -0.48839769221E-01 -0.32917327082E-01  0.10048701406E+00  0.51100000000E-03 0. -1.
         11    1    3    3    0    0  0.67766611778E-02  0.11519123085E-02  0.87300482955E-05  0.68928394656E-02  0.51100000000E-03 0.  1.
</event>
<event>
 8    1  0.1063984E+005  0.1043930E+01  0.7957747E-01            NaN
         13   -1    0    0    0    0  0.00000000000E+00  0.00000000000E+00  0.74505805969E-08  0.10566000000E+00  0.10566000000E+00 0. -1.
     999900   -1    0    0    0    0 -0.00000000000E+00 -0.00000000000E+00 -0.74505805969E-08  0.93827000000E+00  0.93827000000E+00 0.  1.
     999902    2    1    2    0    0 -0.15385980844E-01 -0.12223029508E-01  0.13270402362E-01  0.10202185168E+01  0.10199429335E+01 0.  0.
     999903    2    3    3    0    0 -0.83683478234E-01  0.97920735337E-01  0.11433609018E-01  0.13072451969E+00  0.19151441039E-01 0.  0.
         14    1    1    2    0    0  0.15385980844E-01  0.12223029508E-01 -0.13270402362E-01  0.23711483204E-01  0.00000000000E+00 0.  1.
     999901    1    3    3    0    0  0.68297497389E-01 -0.11014376485E+00  0.18367933440E-02  0.88949399711E+00  0.88000000000E+00 0.  1.
        -11    1    4    4    0    0 -0.15946099786E-01  0.17626207716E-01  0.96489215621E-02  0.25657827366E-01  0.51100000000E-03 0.  1.
         11    1    4    4    0    0 -0.67737378448E-01  0.80294527621E-01  0.17846874555E-02  0.10506669232E+00  0.51100000000E-03 0. -1.
</event>
<event>
 8    1  0.1063984E+005  0.1043930E+01  0.7957747E-01            NaN
         13   -1    0    0    0    0  0.00000000000E+00  0.00000000000E+00  0.74505805969E-08  0.10566000000E+00  0.10566000000E+00 0.  1.
     999900   -1    0    0    0    0 -0.00000000000E+00 -0.00000000000E+00 -0.74505805969E-08  0.93827000000E+00  0.93827000000E+00 0. -1.
     999902    2    1    2    0    0  0.20568901393E-01 -0.11946325295E-01 -0.58569668954E-02  0.10194330930E+01  0.10191387210E+01 0.  0.
     999903    2    3    3    0    0  0.42145031972E-01  0.48446406630E-01  0.11000802311E+00  0.12952438564E+00  0.23484958821E-01 0.  0.
         14    1    1    2    0    0 -0.20568901393E-01  0.11946325295E-01  0.58569668954E-02  0.24496907025E-01  0.00000000000E+00 0.  1.
     999901    1    3    3    0    0 -0.21576130578E-01 -0.60392731925E-01 -0.11586499001E+00  0.88990870733E+00  0.88000000000E+00 0. -1.
        -11    1    4    4    0    0  0.37064454794E-01  0.33528475934E-01  0.66091198052E-01  0.82862778668E-01  0.51100000000E-03 0.  1.
         11    1    4    4    0    0  0.50805771775E-02  0.14917930695E-01  0.43916825062E-01  0.46661606972E-01  0.51100000000E-03 0. -1.
</event>
<event>
 8    1  0.1063984E+005  0.1043930E+01  0.7957747E-01            NaN
         13   -1    0    0    0    0  0.00000000000E+00  0.00000000000E+00  0.74505805969E-08  0.10566000000E+00  0.10566000000E+00 0. -1.
     999900   -1    0    0    0    0 -0.00000000000E+00 -0.00000000000E+00 -0.74505805969E-08  0.93827000000E+00  0.93827000000E+00 0. -1.
     999902    2    1    2    0    0  0.42083950366E-02 -0.11999994109E-01 -0.20009327198E-01  0.10202216972E+01  0.10199461887E+01 0.  0.
     999903    2    3    3    0    0 -0.12012826770E+00  0.12326106597E-01 -0.45911061517E-01  0.13077115628E+00  0.20261691428E-01 0.  0.
         14    1    1    2    0    0 -0.42083950366E-02  0.11999994109E-01  0.20009327198E-01  0.23708302814E-01  0.00000000000E+00 0. -1.
     999901    1    3    3    0    0  0.12433666274E+00 -0.24326100706E-01  0.25901734319E-01  0.88945054091E+00  0.88000000000E+00 0.  1.
        -11    1    4    4    0    0 -0.26704293340E-01 -0.56540996427E-02 -0.96953601222E-02  0.28971524890E-01  0.51100000000E-03 0. -1.
         11    1    4    4    0    0 -0.93423974364E-01  0.17980206240E-01 -0.36215701395E-01  0.10179963139E+00  0.51100000000E-03 0.  1.
</event>
<event>
 8    1  0.1063984E+005  0.1043930E+01  0.7957747E-01            NaN
         13   -1    0    0    0    0  0.00000000000E+00  0.00000000000E+00  0.74505805969E-08  0.10566000000E+00  0.10566000000E+00 0. -1.
     999900   -1    0    0    0    0 -0.00000000000E+00 -0.00000000000E+00 -0.74505805969E-08  0.93827000000E+00  0.93827000000E+00 0.  1.
     999902    2    1    2    0    0  0.55324618473E-02  0.10079275848E-01 -0.20832041580E-01  0.10201355912E+01  0.10198580541E+01 0.  0.
     999903    2    3    3    0    0 -0.67575581459E-01 -0.21709414425E-01 -0.10942298915E+00  0.13210199787E+00  0.20971156411E-01 0.  0.
         14    1    1    2    0    0 -0.55324618473E-02 -0.10079275848E-01  0.20832041580E-01  0.23794408841E-01  0.00000000000E+00 0. -1.
     999901    1    3    3    0    0  0.73108043306E-01  0.31788690272E-01  0.88590947571E-01  0.88803359329E+00  0.88000000000E+00 0.  1.
        -11    1    4    4    0    0 -0.51756090015E-01 -0.15041795458E-01 -0.64792627767E-01  0.84281042935E-01  0.51100000000E-03 0. -1.
         11    1    4    4    0    0 -0.15819491444E-01 -0.66676189666E-02 -0.44630361384E-01  0.47820954931E-01  0.51100000000E-03 0.  1.
</event>
<event>
 8    1  0.1063984E+005  0.1043930E+01  0.7957747E-01            NaN
         13   -1    0    0    0    0  0.00000000000E+00  0.00000000000E+00  0.74505805969E-08  0.10566000000E+00  0.10566000000E+00 0.  1.
     999900   -1    0    0    0    0 -0.00000000000E+00 -0.00000000000E+00 -0.74505805969E-08  0.93827000000E+00  0.93827000000E+00 0. -1.
     999902    2    1    2    0    0 -0.22952014724E-01  0.88250459026E-03 -0.32095920055E-02  0.10207378618E+01  0.10204743540E+01 0.  0.
     999903    2    3    3    0    0  0.81082506534E-01 -0.32173464274E-01 -0.93704612768E-01  0.12938763461E+00  0.18737685765E-01 0.  0.
         14    1    1    2    0    0  0.22952014724E-01 -0.88250459026E-03  0.32095920055E-02  0.23192138217E-01  0.00000000000E+00 0.  1.
     999901    1    3    3    0    0 -0.10403452126E+00  0.33055968864E-01  0.90495020762E-01  0.89135022717E+00  0.88000000000E+00 0.  1.
        -11    1    4    4    0    0  0.57962372124E-01 -0.31261299734E-01 -0.65228398748E-01  0.92692559397E-01  0.51100000000E-03 0. -1.
         11    1    4    4    0    0  0.23120134410E-01 -0.91216453939E-03 -0.28476214020E-01  0.36695075217E-01  0.51100000000E-03 0.  1.
</event>
<event>
 8    1  0.1063984E+005  0.1043930E+01  0.7957747E-01            NaN
         13   -1    0    0    0    0  0.00000000000E+00  0.00000000000E+00  0.74505805969E-08  0.10566000000E+00  0.10566000000E+00 0. -1.
     999900   -1    0    0    0    0 -0.00000000000E+00 -0.00000000000E+00 -0.74505805969E-08  0.93827000000E+00  0.93827000000E+00 0.  1.
     999902    2    1    2    0    0 -0.14318642332E-02  0.97588434889E-02  0.21846151257E-01  0.10199604446E+01  0.10196787577E+01 0.  0.
     999903    2    3    3    0    0  0.33809579655E-01 -0.12137560658E+00  0.22545627797E-01  0.12954554545E+00  0.19965406648E-01 0.  0.
         14    1    1    2    0    0  0.14318642332E-02 -0.97588434889E-02 -0.21846151257E-01  0.23969555402E-01  0.00000000000E+00 0.  1.
     999901    1    3    3    0    0 -0.35241443888E-01  0.13113445007E+00 -0.69947654074E-03  0.89041489915E+00  0.88000000000E+00 0.  1.
        -11    1    4    4    0    0  0.52007158444E-02 -0.17773449995E-01  0.10751331608E-01  0.21419505652E-01  0.51100000000E-03 0. -1.
         11    1    4    4    0    0  0.28608863810E-01 -0.10360215659E+00  0.11794296189E-01  0.10812603980E+00  0.51100000000E-03 0.  1.
</event>
<event>
 8    1  0.1063984E+005  0.1043930E+01  0.7957747E-01            NaN
         13   -1    0    0    0    0  0.00000000000E+00  0.00000000000E+00  0.74505805969E-08  0.10566000000E+00  0.10566000000E+00 0. -1.
     999900   -1    0    0    0    0 -0.00000000000E+00 -0.00000000000E+00 -0.74505805969E-08  0.93827000000E+00  0.93827000000E+00 0.  1.
     999902    2    1    2    0    0 -0.99603679961E-02  0.18102791521E-01 -0.12176075330E-01  0.10199471561E+01  0.10196651531E+01 0.  0.
     999903    2    3    3    0    0 -0.78768481280E-01 -0.99493474838E-01  0.13114871225E-01  0.12910313479E+00  0.19803898262E-01 0.  0.
         14    1    1    2    0    0  0.99603679961E-02 -0.18102791521E-01  0.12176075330E-01  0.23982843908E-01  0.00000000000E+00 0.  1.
     999901    1    3    3    0    0  0.68808113284E-01  0.11759626636E+00 -0.25290946555E-01  0.89084402130E+00  0.88000000000E+00 0.  1.
        -11    1    4    4    0    0 -0.12429561036E-01 -0.67454182466E-02 -0.10730956940E-02  0.14191804333E-01  0.51100000000E-03 0.  1.
         11    1    4    4    0    0 -0.66338920244E-01 -0.92748056592E-01  0.14187966919E-01  0.11491133046E+00  0.51100000000E-03 0. -1.
</event>
<event>
 8    1  0.1063984E+005  0.1043930E+01  0.7957747E-01            NaN
         13   -1    0    0    0    0  0.00000000000E+00  0.00000000000E+00  0.74505805969E-08  0.10566000000E+00  0.10566000000E+00 0.  1.
     999900   -1    0    0    0    0 -0.00000000000E+00 -0.00000000000E+00 -0.74505805969E-08  0.93827000000E+00  0.93827000000E+00 0. -1.
     999902    2    1    2    0    0  0.10567596585E-01 -0.19650659121E-01  0.77931840505E-02  0.10202962060E+01  0.10200224467E+01 0.  0.
     999903    2    3    3    0    0  0.46442063698E-01  0.92646980198E-01  0.75611090494E-01  0.12984856260E+00  0.20081931783E-01 0.  0.
         14    1    1    2    0    0 -0.10567596585E-01  0.19650659121E-01 -0.77931840505E-02  0.23633794006E-01  0.00000000000E+00 0. -1.
     999901    1    3    3    0    0 -0.35874467113E-01 -0.11229763932E+00 -0.67817906443E-01  0.89044764339E+00  0.88000000000E+00 0. -1.
        -11    1    4    4    0    0  0.12937989097E-02 -0.38948013486E-03  0.34690188712E-02  0.37577683966E-02  0.51100000000E-03 0. -1.
         11    1    4    4    0    0  0.45148264788E-01  0.93036460333E-01  0.72142071622E-01  0.12609079421E+00  0.51100000000E-03 0.  1.
</event>
<event>
 8    1  0.1063984E+005  0.1043930E+01  0.7957747E-01            NaN
         13   -1    0    0    0    0  0.00000000000E+00  0.00000000000E+00  0.74505805969E-08  0.10566000000E+00  0.10566000000E+00 0. -1.
     999900   -1    0    0    0    0 -0.00000000000E+00 -0.00000000000E+00 -0.74505805969E-08  0.93827000000E+00  0.93827000000E+00 0. -1.
     999902    2    1    2    0    0  0.78008359938E-02 -0.20017404628E-01 -0.37063213198E-02  0.10221289370E+01  0.10218964123E+01 0.  0.
     999903    2    3    3    0    0  0.35945024204E-01 -0.84135832215E-02  0.12535461103E+00  0.13219440668E+00  0.19968713108E-01 0.  0.
         14    1    1    2    0    0 -0.78008359938E-02  0.20017404628E-01  0.37063213198E-02  0.21801063001E-01  0.00000000000E+00 0.  1.
     999901    1    3    3    0    0 -0.28144188210E-01 -0.11603821407E-01 -0.12906093235E+00  0.88993453032E+00  0.88000000000E+00 0. -1.
        -11    1    4    4    0    0  0.33904718021E-01 -0.11900463013E-01  0.95033514472E-01  0.10160108719E+00  0.51100000000E-03 0. -1.
         11    1    4    4    0    0  0.20403061834E-02  0.34868797917E-02  0.30321096555E-01  0.30593319488E-01  0.51100000000E-03 0.  1.
</event>
<event>
 8    1  0.1063984E+005  0.1043930E+01  0.7957747E-01            NaN
         13   -1    0    0    0    0  0.00000000000E+00  0.00000000000E+00  0.74505805969E-08  0.10566000000E+00  0.10566000000E+00 0. -1.
     999900   -1    0    0    0    0 -0.00000000000E+00 -0.00000000000E+00 -0.74505805969E-08  0.93827000000E+00  0.93827000000E+00 0.  1.
     999902    2    1    2    0    0  0.36585573521E-02 -0.22648196857E-01  0.37843121605E-02  0.10206781854E+01  0.10204133042E+01 0.  0.
     999903    2    3    3    0    0 -0.44123706079E-01 -0.96947669086E-01 -0.76296641405E-01  0.13263735562E+00  0.20633434910E-01 0.  0.
         14    1    1    2    0    0 -0.36585573521E-02  0.22648196857E-01 -0.37843121605E-02  0.23251814580E-01  0.00000000000E+00 0. -1.
     999901    1    3    3    0    0  0.47782263431E-01  0.74299472229E-01  0.80080953565E-01  0.88804082980E+00  0.88000000000E+00 0. -1.
        -11    1    4    4    0    0 -0.25225641915E-01 -0.34049351701E-01 -0.35815703204E-01  0.55486188176E-01  0.51100000000E-03 0. -1.
         11    1    4    4    0    0 -0.18898064164E-01 -0.62898317385E-01 -0.40480938201E-01  0.77151167441E-01  0.51100000000E-03 0.  1.
</event>
<event>
 8    1  0.1063984E+005  0.1043930E+01  0.7957747E-01            NaN
         13   -1    0    0    0    0  0.00000000000E+00  0.00000000000E+00  0.74505805969E-08  0.10566000000E+00  0.10566000000E+00 0. -1.
     999900   -1    0    0    0    0 -0.00000000000E+00 -0.00000000000E+00 -0.74505805969E-08  0.93827000000E+00  0.93827000000E+00 0.  1.
     999902    2    1    2    0    0  0.61573780676E-02 -0.21976661068E-01  0.75154046267E-02  0.10199015118E+01  0.10196184216E+01 0.  0.
     999903    2    3    3    0    0  0.37861613781E-02  0.65090220183E-01 -0.10859336189E+00  0.12801165870E+00  0.18530912941E-01 0.  0.
         14    1    1    2    0    0 -0.61573780676E-02  0.21976661068E-01 -0.75154046267E-02  0.24028488156E-01  0.00000000000E+00 0.  1.
     999901    1    3    3    0    0  0.23712166894E-02 -0.87066881251E-01  0.11610876652E+00  0.89188985314E+00  0.88000000000E+00 0. -1.
        -11    1    4    4    0    0 -0.59293390579E-02  0.13743243541E-01 -0.31438595422E-01  0.34823558230E-01  0.51100000000E-03 0.  1.
         11    1    4    4    0    0  0.97155004360E-02  0.51346976642E-01 -0.77154766471E-01  0.93188100470E-01  0.51100000000E-03 0. -1.
</event>
<event>
 8    1  0.1063984E+005  0.1043930E+01  0.7957747E-01            NaN
         13   -1    0    0    0    0  0.00000000000E+00  0.00000000000E+00  0.74505805969E-08  0.10566000000E+00  0.10566000000E+00 0. -1.
     999900   -1    0    0    0    0 -0.00000000000E+00 -0.00000000000E+00 -0.74505805969E-08  0.93827000000E+00  0.93827000000E+00 0.  1.
     999902    2    1    2    0    0 -0.10640603334E-02  0.85162552698E-02 -0.22181620352E-01  0.10201459064E+01  0.10198686127E+01 0.  0.
     999903    2    3    3    0    0 -0.64840681699E-01 -0.57166614566E-01  0.92436416088E-01  0.12800298559E+00  0.19181696404E-01 0.  0.
         14    1    1    2    0    0  0.10640603334E-02 -0.85162552698E-02  0.22181620352E-01  0.23784093627E-01  0.00000000000E+00 0. -1.
     999901    1    3    3    0    0  0.63776621366E-01  0.65682869836E-01 -0.11461803644E+00  0.89214292078E+00  0.88000000000E+00 0.  1.
        -11    1    4    4    0    0 -0.48569690432E-01 -0.41289723488E-01  0.54976994026E-01  0.84181869114E-01  0.51100000000E-03 0.  1.
         11    1    4    4    0    0 -0.16270991268E-01 -0.15876891079E-01  0.37459422062E-01  0.43821116478E-01  0.51100000000E-03 0. -1.
</event>
<event>
 8    1  0.1063984E+005  0.1043930E+01  0.7957747E-01            NaN
         13   -1    0    0    0    0  0.00000000000E+00  0.00000000000E+00  0.74505805969E-08  0.10566000000E+00  0.10566000000E+00 0. -1.
     999900   -1    0    0    0    0 -0.00000000000E+00 -0.00000000000E+00 -0.74505805969E-08  0.93827000000E+00  0.93827000000E+00 0.  1.
     999902    2    1    2    0    0 -0.21854679882E-01 -0.79017445565E-02 -0.71005782387E-02  0.10196301479E+01  0.10193405494E+01 0.  0.
     999903    2    3    3    0    0  0.38247124903E-01 -0.22932655991E-01  0.11885241614E+00  0.12850596352E+00  0.19978402380E-01 0.  0.
         14    1    1    2    0    0  0.21854679882E-01  0.79017445565E-02  0.71005782387E-02  0.24299852080E-01  0.00000000000E+00 0. -1.
     999901    1    3    3    0    0 -0.60101804784E-01  0.15030911434E-01 -0.12595299438E+00  0.89112418440E+00  0.88000000000E+00 0.  1.
        -11    1    4    4    0    0  0.31294806530E-01 -0.14037404234E-01  0.65166103152E-01  0.73643029231E-01  0.51100000000E-03 0. -1.
         11    1    4    4    0    0  0.69523183731E-02 -0.88952517568E-02  0.53686312993E-01  0.54862934285E-01  0.51100000000E-03 0.  1.
</event>
<event>
 8    1  0.1210130E+005  0.1043930E+01  0.7957747E-01            NaN
         13   -1    0    0    0    0  0.00000000000E+00  0.00000000000E+00  0.74505805969E-08  0.10566000000E+00  0.10566000000E+00 0. -1.
     999900   -1    0    0    0    0 -0.00000000000E+00 -0.00000000000E+00 -0.74505805969E-08  0.93827000000E+00  0.93827000000E+00 0.  1.
     999902    2    1    2    0    0  0.17870037932E-01 -0.37731746321E-02  0.14771033282E-01  0.10204404592E+01  0.10201700703E+01 0.  0.
     999903    2    3    3    0    0  0.27187052674E-01  0.12601729277E+00 -0.52133575438E-02  0.13064736636E+00  0.20544131300E-01 0.  0.
         14    1    1    2    0    0 -0.17870037932E-01  0.37731746321E-02 -0.14771033282E-01  0.23489540794E-01  0.00000000000E+00 0.  1.
     999901    1    3    3    0    0 -0.93170147419E-02 -0.12979046740E+00  0.19984390826E-01  0.88979309284E+00  0.88000000000E+00 0. -1.
        -11    1    4    4    0    0  0.11986448775E-01  0.97388517422E-01 -0.37473350240E-02  0.98196241886E-01  0.51100000000E-03 0. -1.
         11    1    4    4    0    0  0.15200603900E-01  0.28628775348E-01 -0.14660225198E-02  0.32451124478E-01  0.51100000000E-03 0.  1.
</event>
<event>
 8    1  0.1063984E+005  0.1043930E+01  0.7957747E-01            NaN
         13   -1    0    0    0    0  0.00000000000E+00  0.00000000000E+00  0.74505805969E-08  0.10566000000E+00  0.10566000000E+00 0. -1.
     999900   -1    0    0    0    0 -0.00000000000E+00 -0.00000000000E+00 -0.74505805969E-08  0.93827000000E+00  0.93827000000E+00 0. -1.
     999902    2    1    2    0    0  0.94244287806E-03  0.20902892670E-01 -0.11446058645E-01  0.10200798139E+01  0.10198009586E+01 0.  0.
     999903    2    3    3    0    0 -0.78829348599E-01 -0.85302432836E-01 -0.52907399726E-01  0.12914650957E+00  0.19724521295E-01 0.  0.
         14    1    1    2    0    0 -0.94244287806E-03 -0.20902892670E-01  0.11446058645E-01  0.23850186143E-01  0.00000000000E+00 0. -1.
     999901    1    3    3    0    0  0.79771791477E-01  0.10620532551E+00  0.41461341082E-01  0.89093330429E+00  0.88000000000E+00 0.  1.
        -11    1    4    4    0    0 -0.49396998720E-01 -0.40364692717E-01 -0.24141605438E-01  0.68208871379E-01  0.51100000000E-03 0.  1.
         11    1    4    4    0    0 -0.29432349880E-01 -0.44937740119E-01 -0.28765794289E-01  0.60937638192E-01  0.51100000000E-03 0. -1.
</event>
<event>
 8    1  0.1063984E+005  0.1043930E+01  0.7957747E-01            NaN
         13   -1    0    0    0    0  0.00000000000E+00  0.00000000000E+00  0.74505805969E-08  0.10566000000E+00  0.10566000000E+00 0.  1.
     999900   -1    0    0    0    0 -0.00000000000E+00 -0.00000000000E+00 -0.74505805969E-08  0.93827000000E+00  0.93827000000E+00 0.  1.
     999902    2    1    2    0    0  0.28354931136E-02 -0.23585948622E-01  0.38216756710E-02  0.10198687823E+01  0.10195849111E+01 0.  0.
     999903    2    3    3    0    0 -0.33982529884E-01 -0.11697074372E+00  0.50157358765E-01  0.13295092683E+00  0.17978350372E-01 0.  0.
         14    1    1    2    0    0 -0.28354931136E-02  0.23585948622E-01 -0.38216756710E-02  0.24061217728E-01  0.00000000000E+00 0.  1.
     999901    1    3    3    0    0  0.36818022998E-01  0.93384795102E-01 -0.46335683094E-01  0.88691785544E+00  0.88000000000E+00 0. -1.
        -11    1    4    4    0    0 -0.28994053908E-01 -0.85901656401E-01  0.44419784819E-01  0.10096102287E+00  0.51100000000E-03 0.  1.
         11    1    4    4    0    0 -0.49884759760E-02 -0.31069087323E-01  0.57375739459E-02  0.31989903961E-01  0.51100000000E-03 0. -1.
</event>
<event>
 8    1  0.1063984E+005  0.1043930E+01  0.7957747E-01            NaN
         13   -1    0    0    0    0  0.00000000000E+00  0.00000000000E+00  0.74505805969E-08  0.10566000000E+00  0.10566000000E+00 0. -1.
     999900   -1    0    0    0    0 -0.00000000000E+00 -0.00000000000E+00 -0.74505805969E-08  0.93827000000E+00  0.93827000000E+00 0.  1.
     999902    2    1    2    0    0 -0.16195329301E-01 -0.63748149802E-03  0.19180138243E-01  0.10188187918E+01  0.10185092821E+01 0.  0.
     999903    2    3    3    0    0 -0.53499540048E-01  0.22208357313E-01  0.11719528905E+00  0.13229721493E+00  0.20307766532E-01 0.  0.
         14    1    1    2    0    0  0.16195329301E-01  0.63748149802E-03 -0.19180138243E-01  0.25111208192E-01  0.00000000000E+00 0.  1.
     999901    1    3    3    0    0  0.37304210747E-01 -0.22845838811E-01 -0.98015150808E-01  0.88652157688E+00  0.88000000000E+00 0.  1.
        -11    1    4    4    0    0 -0.10371090669E-01 -0.31667930246E-02  0.27868950162E-01  0.29908654330E-01  0.51100000000E-03 0. -1.
         11    1    4    4    0    0 -0.43128449379E-01  0.25375150338E-01  0.89326338889E-01  0.10238856060E+00  0.51100000000E-03 0.  1.
</event>
<event>
 8    1  0.1063984E+005  0.1043930E+01  0.7957747E-01            NaN
         13   -1    0    0    0    0  0.00000000000E+00  0.00000000000E+00  0.74505805969E-08  0.10566000000E+00  0.10566000000E+00 0. -1.
     999900   -1    0    0    0    0 -0.00000000000E+00 -0.00000000000E+00 -0.74505805969E-08  0.93827000000E+00  0.93827000000E+00 0. -1.
     999902    2    1    2    0    0 -0.21126950364E-01  0.10077041105E-01 -0.28501735450E-02  0.10203499602E+01  0.10200774593E+01 0.  0.
     999903    2    3    3    0    0 -0.61662211375E-01  0.11617302119E+00  0.65589838438E-03  0.13304406201E+00  0.20047270847E-01 0.  0.
         14    1    1    2    0    0  0.21126950364E-01 -0.10077041105E-01  0.28501735450E-02  0.23580039829E-01  0.00000000000E+00 0.  1.
     999901    1    3    3    0    0  0.40535261012E-01 -0.10609598009E+00 -0.35060719294E-02  0.88730589816E+00  0.88000000000E+00 0.  1.
        -11    1    4    4    0    0 -0.24736350663E-01  0.28139898134E-01  0.25879322544E-02  0.37559278820E-01  0.51100000000E-03 0.  1.
         11    1    4    4    0    0 -0.36925860712E-01  0.88033123057E-01 -0.19320338700E-02  0.95484783187E-01  0.51100000000E-03 0. -1.
</event>
<event>
 8    1  0.1063984E+005  0.1043930E+01  0.7957747E-01            NaN
         13   -1    0    0    0    0  0.00000000000E+00  0.00000000000E+00  0.74505805969E-08  0.10566000000E+00  0.10566000000E+00 0. -1.
     999900   -1    0    0    0    0 -0.00000000000E+00 -0.00000000000E+00 -0.74505805969E-08  0.93827000000E+00  0.93827000000E+00 0.  1.
     999902    2    1    2    0    0  0.32532348090E-02  0.21494894049E-01  0.69079594627E-03  0.10221793401E+01  0.10219479009E+01 0.  0.
     999903    2    3    3    0    0 -0.67511098637E-01 -0.29343429033E-01 -0.10689017755E+00  0.13135624215E+00  0.20252580801E-01 0.  0.
         14    1    1    2    0    0 -0.32532348090E-02 -0.21494894049E-01 -0.69079594627E-03  0.21750659896E-01  0.00000000000E+00 0. -1.
     999901    1    3    3    0    0  0.70764333446E-01  0.50838323082E-01  0.10758097350E+00  0.89082309795E+00  0.88000000000E+00 0. -1.
        -11    1    4    4    0    0 -0.40210410771E-01 -0.26378187808E-01 -0.76799973612E-01  0.90615578099E-01  0.51100000000E-03 0. -1.
         11    1    4    4    0    0 -0.27300687866E-01 -0.29652412255E-02 -0.30090203940E-01  0.40740664055E-01  0.51100000000E-03 0.  1.
</event>
<event>
 8    1  0.1063984E+005  0.1043930E+01  0.7957747E-01            NaN
         13   -1    0    0    0    0  0.00000000000E+00  0.00000000000E+00  0.74505805969E-08  0.10566000000E+00  0.10566000000E+00 0. -1.
     999900   -1    0    0    0    0 -0.00000000000E+00 -0.00000000000E+00 -0.74505805969E-08  0.93827000000E+00  0.93827000000E+00 0. -1.
     999902    2    1    2    0    0  0.23364309043E-01  0.20738426838E-02  0.59736255039E-02  0.10197251252E+01  0.10194378132E+01 0.  0.
     999903    2    3    3    0    0  0.60882738679E-01  0.88859136698E-01 -0.72234437786E-01  0.13121186086E+00  0.19901868841E-01 0.  0.
         14    1    1    2    0    0 -0.23364309043E-01 -0.20738426838E-02 -0.59736255039E-02  0.24204874761E-01  0.00000000000E+00 0. -1.
     999901    1    3    3    0    0 -0.37518429636E-01 -0.86785294015E-01  0.78208063290E-01  0.88851326438E+00  0.88000000000E+00 0.  1.
        -11    1    4    4    0    0  0.56781627214E-01  0.80119792966E-01 -0.58144625783E-01  0.11412446294E+00  0.51100000000E-03 0.  1.
         11    1    4    4    0    0  0.41011114655E-02  0.87393437319E-02 -0.14089812003E-01  0.17087397912E-01  0.51100000000E-03 0. -1.
</event>
<event>
 8    1  0.1063984E+005  0.1043930E+01  0.7957747E-01            NaN
         13   -1    0    0    0    0  0.00000000000E+00  0.00000000000E+00  0.74505805969E-08  0.10566000000E+00  0.10566000000E+00 0.  1.
     999900   -1    0    0    0    0 -0.00000000000E+00 -0.00000000000E+00 -0.74505805969E-08  0.93827000000E+00  0.93827000000E+00 0.  1.
     999902    2    1    2    0    0  0.10284460389E-01  0.93993726442E-03 -0.21455732573E-01  0.10201181948E+01  0.10198402469E+01 0.  0.
     999903    2    3    3    0    0 -0.43096150431E-01 -0.11599966174E+00 -0.32594175077E-01  0.13070916384E+00  0.26632790998E-01 0.  0.
         14    1    1    2    0    0 -0.10284460389E-01 -0.93993726442E-03  0.21455732573E-01  0.23811805219E-01  0.00000000000E+00 0.  1.
     999901    1    3    3    0    0  0.53380610820E-01  0.11693959900E+00  0.11138442504E-01  0.88940903095E+00  0.88000000000E+00 0. -1.
        -11    1    4    4    0    0 -0.23171297877E-01 -0.93118134265E-01 -0.21039126041E-01  0.98238495102E-01  0.51100000000E-03 0.  1.
         11    1    4    4    0    0 -0.19924852554E-01 -0.22881527473E-01 -0.11555049036E-01  0.32470668734E-01  0.51100000000E-03 0. -1.
</event>
<event>
 8    1  0.1063984E+005  0.1043930E+01  0.7957747E-01            NaN
         13   -1    0    0    0    0  0.00000000000E+00  0.00000000000E+00  0.74505805969E-08  0.10566000000E+00  0.10566000000E+00 0.  1.
     999900   -1    0    0    0    0 -0.00000000000E+00 -0.00000000000E+00 -0.74505805969E-08  0.93827000000E+00  0.93827000000E+00 0.  1.
     999902    2    1    2    0    0 -0.16446195144E-01  0.14924680375E-01 -0.10424825933E-01  0.10193963412E+01  0.10191010745E+01 0.  0.
     999903    2    3    3    0    0  0.10846590174E+00  0.58666045241E-02  0.63758111916E-01  0.12743883718E+00  0.19398234419E-01 0.  0.
         14    1    1    2    0    0  0.16446195144E-01 -0.14924680375E-01  0.10424825933E-01  0.24533658813E-01  0.00000000000E+00 0.  1.
     999901    1    3    3    0    0 -0.12491209688E+00  0.90580758514E-02 -0.74182937849E-01  0.89195750401E+00  0.88000000000E+00 0. -1.
        -11    1    4    4    0    0  0.72657290281E-01 -0.16673922628E-02  0.50562420725E-01  0.88536328920E-01  0.51100000000E-03 0. -1.
         11    1    4    4    0    0  0.35808611456E-01  0.75339967869E-02  0.13195691190E-01  0.38902508261E-01  0.51100000000E-03 0.  1.
</event>
<event>
 8    1  0.1063984E+005  0.1043930E+01  0.7957747E-01            NaN
         13   -1    0    0    0    0  0.00000000000E+00  0.00000000000E+00  0.74505805969E-08  0.10566000000E+00  0.10566000000E+00 0.  1.
     999900   -1    0    0    0    0 -0.00000000000E+00 -0.00000000000E+00 -0.74505805969E-08  0.93827000000E+00  0.93827000000E+00 0.  1.
     999902    2    1    2    0    0 -0.95021959843E-02  0.21892853195E-01 -0.32462178981E-02  0.10198441809E+01  0.10195597220E+01 0.  0.
     999903    2    3    3    0    0 -0.90470158302E-01 -0.89663712250E-01 -0.66833402647E-02  0.12910713105E+00  0.19988832238E-01 0.  0.
         14    1    1    2    0    0  0.95021959843E-02 -0.21892853195E-01  0.32462178981E-02  0.24085819068E-01  0.00000000000E+00 0.  1.
     999901    1    3    3    0    0  0.80967962318E-01  0.11155656544E+00  0.34371223666E-02  0.89073704988E+00  0.88000000000E+00 0.  1.
        -11    1    4    4    0    0 -0.74202997703E-01 -0.80212239502E-01 -0.10918303470E-01  0.10981602208E+00  0.51100000000E-03 0. -1.
         11    1    4    4    0    0 -0.16267160599E-01 -0.94514727484E-02  0.42349632051E-02  0.19291108973E-01  0.51100000000E-03 0.  1.
</event>
<event>
 8    1  0.1063984E+005  0.1043930E+01  0.7957747E-01            NaN
         13   -1    0    0    0    0  0.00000000000E+00  0.00000000000E+00  0.74505805969E-08  0.10566000000E+00  0.10566000000E+00 0.  1.
     999900   -1    0    0    0    0 -0.00000000000E+00 -0.00000000000E+00 -0.74505805969E-08  0.93827000000E+00  0.93827000000E+00 0.  1.
     999902    2    1    2    0    0 -0.18188508684E-01  0.99031657460E-02 -0.10883347833E-01  0.10205346629E+01  0.10202664634E+01 0.  0.
     999903    2    3    3    0    0 -0.51742910216E-01 -0.11068003417E+00 -0.42686009731E-01  0.13110922176E+00  0.20979368019E-01 0.  0.
         14    1    1    2    0    0  0.18188508684E-01 -0.99031657460E-02  0.10883347833E-01  0.23395337142E-01  0.00000000000E+00 0. -1.
     999901    1    3    3    0    0  0.33554401531E-01  0.12058319992E+00  0.31802661898E-01  0.88942544110E+00  0.88000000000E+00 0. -1.
        -11    1    4    4    0    0 -0.50894203728E-01 -0.10004958883E+00 -0.33832090811E-01  0.11723912183E+00  0.51100000000E-03 0. -1.
         11    1    4    4    0    0 -0.84870648802E-03 -0.10630445346E-01 -0.88539189194E-02  0.13870099935E-01  0.51100000000E-03 0.  1.
</event>
<event>
 8    1  0.1063984E+005  0.1043930E+01  0.7957747E-01            NaN
         13   -1    0    0    0    0  0.00000000000E+00  0.00000000000E+00  0.74505805969E-08  0.10566000000E+00  0.10566000000E+00 0.  1.
     999900   -1    0    0    0    0 -0.00000000000E+00 -0.00000000000E+00 -0.74505805969E-08  0.93827000000E+00  0.93827000000E+00 0.  1.
     999902    2    1    2    0    0 -0.89577544642E-02  0.16395681314E-01  0.15107271364E-01  0.10199031530E+01  0.10196201018E+01 0.  0.
     999903    2    3    3    0    0  0.68731313133E-01 -0.10291860473E+00  0.27680527873E-01  0.12837100163E+00  0.19916571746E-01 0.  0.
         14    1    1    2    0    0  0.89577544642E-02 -0.16395681314E-01 -0.15107271364E-01  0.24026847043E-01  0.00000000000E+00 0. -1.
     999901    1    3    3    0    0 -0.77689067597E-01  0.11931428604E+00 -0.12573256509E-01  0.89153215133E+00  0.88000000000E+00 0. -1.
        -11    1    4    4    0    0  0.64933530856E-01 -0.91639735323E-01  0.29963110701E-01  0.11624221971E+00  0.51100000000E-03 0. -1.
         11    1    4    4    0    0  0.37977822769E-02 -0.11278869408E-01 -0.22825828278E-02  0.12128781914E-01  0.51100000000E-03 0.  1.
</event>
<event>
 8    1  0.1063984E+005  0.1043930E+01  0.7957747E-01            NaN
         13   -1    0    0    0    0  0.00000000000E+00  0.00000000000E+00  0.74505805969E-08  0.10566000000E+00  0.10566000000E+00 0. -1.
     999900   -1    0    0    0    0 -0.00000000000E+00 -0.00000000000E+00 -0.74505805969E-08  0.93827000000E+00  0.93827000000E+00 0. -1.
     999902    2    1    2    0    0  0.95983212400E-02 -0.17802093927E-01 -0.79222918043E-02  0.10222089267E+01  0.10219781234E+01 0.  0.
     999903    2    3    3    0    0  0.10333981769E+00 -0.15370919431E-01 -0.80263715883E-01  0.13427499873E+00  0.25925433669E-01 0.  0.
         14    1    1    2    0    0 -0.95983212400E-02  0.17802093927E-01  0.79222918043E-02  0.21721073322E-01  0.00000000000E+00 0.  1.
     999901    1    3    3    0    0 -0.93741496454E-01 -0.24311744966E-02  0.72341424079E-01  0.88793392795E+00  0.88000000000E+00 0.  1.
        -11    1    4    4    0    0  0.87660272566E-01 -0.22279217767E-01 -0.65874659609E-01  0.11189467740E+00  0.51100000000E-03 0.  1.
         11    1    4    4    0    0  0.15679545128E-01  0.69082983367E-02 -0.14389056274E-01  0.22380321329E-01  0.51100000000E-03 0. -1.
</event>
<event>
 8    1  0.1063984E+005  0.1043930E+01  0.7957747E-01            NaN
         13   -1    0    0    0    0  0.00000000000E+00  0.00000000000E+00  0.74505805969E-08  0.10566000000E+00  0.10566000000E+00 0.  1.
     999900   -1    0    0    0    0 -0.00000000000E+00 -0.00000000000E+00 -0.74505805969E-08  0.93827000000E+00  0.93827000000E+00 0. -1.
     999902    2    1    2    0    0 -0.13784112298E-01 -0.68206370491E-02 -0.16033812593E-01  0.10217127547E+01  0.10214711681E+01 0.  0.
     999903    2    3    3    0    0 -0.45245490400E-01 -0.48861161023E-01  0.11095683276E+00  0.13104791990E+00  0.20677792846E-01 0.  0.
         14    1    1    2    0    0  0.13784112298E-01  0.68206370491E-02  0.16033812593E-01  0.22217245281E-01  0.00000000000E+00 0.  1.
     999901    1    3    3    0    0  0.31461378103E-01  0.42040523974E-01 -0.12699064535E+00  0.89066483481E+00  0.88000000000E+00 0. -1.
        -11    1    4    4    0    0 -0.24850607977E-01 -0.27325487847E-01  0.80297442251E-01  0.88386511165E-01  0.51100000000E-03 0.  1.
         11    1    4    4    0    0 -0.20394882423E-01 -0.21535673176E-01  0.30659390509E-01  0.42661408739E-01  0.51100000000E-03 0. -1.
</event>
<event>
 8    1  0.1063984E+005  0.1043930E+01  0.7957747E-01            NaN
         13   -1    0    0    0    0  0.00000000000E+00  0.00000000000E+00  0.74505805969E-08  0.10566000000E+00  0.10566000000E+00 0.  1.
     999900   -1    0    0    0    0 -0.00000000000E+00 -0.00000000000E+00 -0.74505805969E-08  0.93827000000E+00  0.93827000000E+00 0. -1.
     999902    2    1    2    0    0 -0.53000214092E-02 -0.19009067143E-01 -0.13553235806E-01  0.10199899695E+01  0.10197089844E+01 0.  0.
     999903    2    3    3    0    0  0.52594184251E-01 -0.11176836012E+00  0.41654643033E-01  0.13150590357E+00  0.17331441036E-01 0.  0.
         14    1    1    2    0    0  0.53000214092E-02  0.19009067143E-01  0.13553235806E-01  0.23940030522E-01  0.00000000000E+00 0.  1.
     999901    1    3    3    0    0 -0.57894205660E-01  0.92759292973E-01 -0.55207878839E-01  0.88848406591E+00  0.88000000000E+00 0. -1.
        -11    1    4    4    0    0  0.18521888856E-01 -0.38463943274E-01  0.58473974001E-02  0.43092789145E-01  0.51100000000E-03 0. -1.
         11    1    4    4    0    0  0.34072295396E-01 -0.73304416841E-01  0.35807245633E-01  0.88413114427E-01  0.51100000000E-03 0.  1.
</event>
<event>
 8    1  0.1063984E+005  0.1043930E+01  0.7957747E-01            NaN
         13   -1    0    0    0    0  0.00000000000E+00  0.00000000000E+00  0.74505805969E-08  0.10566000000E+00  0.10566000000E+00 0.  1.
     999900   -1    0    0    0    0 -0.00000000000E+00 -0.00000000000E+00 -0.74505805969E-08  0.93827000000E+00  0.93827000000E+00 0.  1.
     999902    2    1    2    0    0  0.10559911246E-01  0.62282098760E-02  0.93133441544E-02  0.10285338738E+01  0.10284186350E+01 0.  0.
     999903    2    3    3    0    0  0.18553075515E-01  0.12846695894E+00 -0.45837537897E-01  0.13833848946E+00  0.13728861372E-01 0.  0.
         14    1    1    2    0    0 -0.10559911246E-01 -0.62282098760E-02 -0.93133441544E-02  0.15396126238E-01  0.00000000000E+00 0. -1.
     999901    1    3    3    0    0 -0.79931642688E-02 -0.12223874906E+00  0.55150882052E-01  0.89019538431E+00  0.88000000000E+00 0. -1.
        -11    1    4    4    0    0  0.83010900647E-02  0.76112511436E-01 -0.20419160917E-01  0.79241565778E-01  0.51100000000E-03 0. -1.
         11    1    4    4    0    0  0.10251985450E-01  0.52354447504E-01 -0.25418376980E-01  0.59096923679E-01  0.51100000000E-03 0.  1.
</event>
<event>
 8    1  0.1063984E+005  0.1043930E+01  0.7957747E-01            NaN
         13   -1    0    0    0    0  0.00000000000E+00  0.00000000000E+00  0.74505805969E-08  0.10566000000E+00  0.10566000000E+00 0.  1.
     999900   -1    0    0    0    0 -0.00000000000E+00 -0.00000000000E+00 -0.74505805969E-08  0.93827000000E+00  0.93827000000E+00 0. -1.
     999902    2    1    2    0    0 -0.21193733143E-01 -0.90392165737E-02  0.48957325032E-02  0.10203747467E+01  0.10201028251E+01 0.  0.
     999903    2    3    3    0    0 -0.28160666974E-01 -0.28366487524E-02 -0.12604560246E+00  0.13063734544E+00  0.19430707243E-01 0.  0.
         14    1    1    2    0    0  0.21193733143E-01  0.90392165737E-02 -0.48957325032E-02  0.23555253290E-01  0.00000000000E+00 0.  1.
     999901    1    3    3    0    0  0.69669338304E-02 -0.62025678213E-02  0.13094133496E+00  0.88973740127E+00  0.88000000000E+00 0.  1.
        -11    1    4    4    0    0  0.16181937129E-03  0.18772830445E-02 -0.37515673803E-01  0.37566438200E-01  0.51100000000E-03 0.  1.
         11    1    4    4    0    0 -0.28322486345E-01 -0.47139317969E-02 -0.88529928657E-01  0.93070907241E-01  0.51100000000E-03 0. -1.
</event>
<event>
 8    1  0.1063984E+005  0.1043930E+01  0.7957747E-01            NaN
         13   -1    0    0    0    0  0.00000000000E+00  0.00000000000E+00  0.74505805969E-08  0.10566000000E+00  0.10566000000E+00 0. -1.
     999900   -1    0    0    0    0 -0.00000000000E+00 -0.00000000000E+00 -0.74505805969E-08  0.93827000000E+00  0.93827000000E+00 0. -1.
     999902    2    1    2    0    0 -0.69194005666E-02 -0.16743952049E-01  0.16645591845E-01  0.10193268749E+01  0.10190299133E+01 0.  0.
     999903    2    3    3    0    0 -0.62435046625E-01  0.27543948076E-01 -0.10632813965E+00  0.12794258987E+00  0.20169999911E-01 0.  0.
         14    1    1    2    0    0  0.69194005666E-02  0.16743952049E-01 -0.16645591845E-01  0.24603125051E-01  0.00000000000E+00 0.  1.
     999901    1    3    3    0    0  0.55515646059E-01 -0.44287900124E-01  0.12297373150E+00  0.89138428508E+00  0.88000000000E+00 0.  1.
        -11    1    4    4    0    0 -0.17325489239E-01  0.34076583301E-02 -0.14629237739E-01  0.22936007292E-01  0.51100000000E-03 0.  1.
         11    1    4    4    0    0 -0.45109557386E-01  0.24136289746E-01 -0.91698901916E-01  0.10500658257E+00  0.51100000000E-03 0. -1.
</event>
<event>
 8    1  0.1063984E+005  0.1043930E+01  0.7957747E-01            NaN
         13   -1    0    0    0    0  0.00000000000E+00  0.00000000000E+00  0.74505805969E-08  0.10566000000E+00  0.10566000000E+00 0.  1.
     999900   -1    0    0    0    0 -0.00000000000E+00 -0.00000000000E+00 -0.74505805969E-08  0.93827000000E+00  0.93827000000E+00 0. -1.
     999902    2    1    2    0    0 -0.21532134354E-01  0.60536401878E-03 -0.14203429408E-01  0.10181281264E+01  0.10178011324E+01 0.  0.
     999903    2    3    3    0    0 -0.33665520001E-01  0.45752839933E-02  0.12149670546E+00  0.12763528199E+00  0.19365312034E-01 0.  0.
         14    1    1    2    0    0  0.21532134354E-01 -0.60536401878E-03  0.14203429408E-01  0.25801873621E-01  0.00000000000E+00 0.  1.
     999901    1    3    3    0    0  0.12133385647E-01 -0.39699199746E-02 -0.13570013487E+00  0.89049284439E+00  0.88000000000E+00 0. -1.
        -11    1    4    4    0    0 -0.17534302012E-01 -0.46396483716E-02  0.38198962509E-01  0.42289477909E-01  0.51100000000E-03 0. -1.
         11    1    4    4    0    0 -0.16131217989E-01  0.92149323649E-02  0.83297742948E-01  0.85345804077E-01  0.51100000000E-03 0.  1.
</event>
<event>
 8    1  0.1063984E+005  0.1043930E+01  0.7957747E-01            NaN
         13   -1    0    0    0    0  0.00000000000E+00  0.00000000000E+00  0.74505805969E-08  0.10566000000E+00  0.10566000000E+00 0.  1.
     999900   -1    0    0    0    0 -0.00000000000E+00 -0.00000000000E+00 -0.74505805969E-08  0.93827000000E+00  0.93827000000E+00 0. -1.
     999902    2    1    2    0    0 -0.53922649588E-02  0.53669791764E-02 -0.19251692529E-01  0.10232295495E+01  0.10230201378E+01 0.  0.
     999903    2    3    3    0    0  0.90447925325E-03 -0.12740925206E+00  0.28029956660E-01  0.13199179729E+00  0.20055435362E-01 0.  0.
         14    1    1    2    0    0  0.53922649588E-02 -0.53669791764E-02  0.19251692529E-01  0.20700450529E-01  0.00000000000E+00 0.  1.
     999901    1    3    3    0    0 -0.62967442120E-02  0.13277623124E+00 -0.47281649189E-01  0.89123775218E+00  0.88000000000E+00 0. -1.
        -11    1    4    4    0    0 -0.86480122135E-02 -0.88068716198E-01  0.19410397749E-01  0.90597525075E-01  0.51100000000E-03 0. -1.
         11    1    4    4    0    0  0.95524914668E-02 -0.39340535861E-01  0.86195589109E-02  0.41394272211E-01  0.51100000000E-03 0.  1.
</event>
<event>
 8    1  0.1063984E+005  0.1043930E+01  0.7957747E-01            NaN
         13   -1    0    0    0    0  0.00000000000E+00  0.00000000000E+00  0.74505805969E-08  0.10566000000E+00  0.10566000000E+00 0.  1.
     999900   -1    0    0    0    0 -0.00000000000E+00 -0.00000000000E+00 -0.74505805969E-08  0.93827000000E+00  0.93827000000E+00 0. -1.
     999902    2    1    2    0    0  0.17083667003E-01 -0.76390541564E-02  0.58218865798E-02  0.10243315003E+01  0.10241439944E+01 0.  0.
     999903    2    3    3    0    0  0.80434896675E-01 -0.10820425573E+00  0.30198155796E-02  0.13633679894E+00  0.20016740413E-01 0.  0.
         14    1    1    2    0    0 -0.17083667003E-01  0.76390541564E-02 -0.58218865798E-02  0.19598499688E-01  0.00000000000E+00 0. -1.
     999901    1    3    3    0    0 -0.63351229672E-01  0.10056520157E+00  0.28020710002E-02  0.88799470138E+00  0.88000000000E+00 0. -1.
        -11    1    4    4    0    0  0.54912990966E-01 -0.70755600907E-01  0.11264765222E-01  0.90271522049E-01  0.51100000000E-03 0.  1.
         11    1    4    4    0    0  0.25521905709E-01 -0.37448654824E-01 -0.82449496421E-02  0.46065276888E-01  0.51100000000E-03 0. -1.
</event>
<event>
 8    1  0.1063984E+005  0.1043930E+01  0.7957747E-01            NaN
         13   -1    0    0    0    0  0.00000000000E+00  0.00000000000E+00  0.74505805969E-08  0.10566000000E+00  0.10566000000E+00 0. -1.
     999900   -1    0    0    0    0 -0.00000000000E+00 -0.00000000000E+00 -0.74505805969E-08  0.93827000000E+00  0.93827000000E+00 0. -1.
     999902    2    1    2    0    0 -0.22020620782E-01  0.67662473385E-02  0.20257344068E-02  0.10208043985E+01  0.10205424179E+01 0.  0.
     999903    2    3    3    0    0 -0.21201785573E-01  0.71824065730E-01 -0.10557699749E+00  0.13186596528E+00  0.25177733650E-01 0.  0.
         14    1    1    2    0    0  0.22020620782E-01 -0.67662473385E-02 -0.20257344068E-02  0.23125601453E-01  0.00000000000E+00 0. -1.
     999901    1    3    3    0    0 -0.81883520868E-03 -0.65057818391E-01  0.10760273189E+00  0.88893843327E+00  0.88000000000E+00 0.  1.
        -11    1    4    4    0    0  0.15882821948E-02  0.14461021234E-01 -0.36126900393E-01  0.38949426549E-01  0.51100000000E-03 0.  1.
         11    1    4    4    0    0 -0.22790067768E-01  0.57363044496E-01 -0.69450097095E-01  0.92916538733E-01  0.51100000000E-03 0. -1.
</event>
<event>
 8    1  0.1063984E+005  0.1043930E+01  0.7957747E-01            NaN
         13   -1    0    0    0    0  0.00000000000E+00  0.00000000000E+00  0.74505805969E-08  0.10566000000E+00  0.10566000000E+00 0. -1.
     999900   -1    0    0    0    0 -0.00000000000E+00 -0.00000000000E+00 -0.74505805969E-08  0.93827000000E+00  0.93827000000E+00 0.  1.
     999902    2    1    2    0    0  0.88558496058E-02 -0.15911821140E-01  0.17673216147E-01  0.10185537376E+01  0.10182375763E+01 0.  0.
     999903    2    3    3    0    0 -0.86472571936E-01  0.73034668886E-01  0.56660588541E-01  0.12809374342E+00  0.19647296306E-01 0.  0.
         14    1    1    2    0    0 -0.88558496058E-02  0.15911821140E-01 -0.17673216147E-01  0.25376262396E-01  0.00000000000E+00 0.  1.
     999901    1    3    3    0    0  0.95328421542E-01 -0.88946490025E-01 -0.38987372394E-01  0.89045999419E+00  0.88000000000E+00 0. -1.
        -11    1    4    4    0    0 -0.48796939035E-01  0.39345218463E-01  0.20521270719E-01  0.65958859511E-01  0.51100000000E-03 0.  1.
         11    1    4    4    0    0 -0.37675632901E-01  0.33689450423E-01  0.36139317823E-01  0.62134883906E-01  0.51100000000E-03 0. -1.
</event>
<event>
 8    1  0.1063984E+005  0.1043930E+01  0.7957747E-01            NaN
         13   -1    0    0    0    0  0.00000000000E+00  0.00000000000E+00  0.74505805969E-08  0.10566000000E+00  0.10566000000E+00 0.  1.
     999900   -1    0    0    0    0 -0.00000000000E+00 -0.00000000000E+00 -0.74505805969E-08  0.93827000000E+00  0.93827000000E+00 0. -1.
     999902    2    1    2    0    0 -0.11392552900E-01 -0.36682962348E-02  0.20140399977E-01  0.10205017613E+01  0.10202327981E+01 0.  0.
     999903    2    3    3    0    0 -0.10221439202E+00  0.50312806635E-01 -0.61069814715E-01  0.13046936585E+00  0.17707984267E-01 0.  0.
         14    1    1    2    0    0  0.11392552900E-01  0.36682962348E-02 -0.20140399977E-01  0.23428238732E-01  0.00000000000E+00 0. -1.
     999901    1    3    3    0    0  0.90821839125E-01 -0.53981102869E-01  0.81210214692E-01  0.89003239542E+00  0.88000000000E+00 0.  1.
        -11    1    4    4    0    0 -0.41877440122E-01  0.11169767965E-01 -0.21621706632E-01  0.48438032848E-01  0.51100000000E-03 0. -1.
         11    1    4    4    0    0 -0.60336951903E-01  0.39143038670E-01 -0.39448108083E-01  0.82031332999E-01  0.51100000000E-03 0.  1.
</event>
<event>
 7    1  0.1176914E+005  0.1043930E+01  0.7957747E-01            NaN
         13   -1    0    0    0    0  0.00000000000E+00  0.00000000000E+00  0.74505805969E-08  0.10566000000E+00  0.10566000000E+00 0. -1.
     999900   -1    0    0    0    0 -0.00000000000E+00 -0.00000000000E+00 -0.74505805969E-08  0.93827000000E+00  0.93827000000E+00 0. -1.
     999903    2    1    2    0    0 -0.83117619641E-01 -0.52527340417E-01  0.61452391242E-01  0.11771675129E+00  0.20326754757E-01 0.  0.
         14    1    1    2    0    0  0.21085197586E-01 -0.29645078160E-01 -0.13872782957E-01  0.38934179372E-01  0.00000000000E+00 0.  1.
     999901    1    1    2    0    0  0.62032422055E-01  0.82172418578E-01 -0.47579608285E-01  0.88727906934E+00  0.88000000000E+00 0. -1.
        -11    1    3    3    0    0 -0.60961154159E-01 -0.38714548076E-01  0.55110448469E-01  0.90843278235E-01  0.51100000000E-03 0.  1.
         11    1    3    3    0    0 -0.22156465481E-01 -0.13812792341E-01  0.63419427737E-02  0.26873473055E-01  0.51100000000E-03 0. -1.
</event>
<event>
 8    1  0.1063984E+005  0.1043930E+01  0.7957747E-01            NaN
         13   -1    0    0    0    0  0.00000000000E+00  0.00000000000E+00  0.74505805969E-08  0.10566000000E+00  0.10566000000E+00 0.  1.
     999900   -1    0    0    0    0 -0.00000000000E+00 -0.00000000000E+00 -0.74505805969E-08  0.93827000000E+00  0.93827000000E+00 0. -1.
     999902    2    1    2    0    0 -0.12041593407E-01 -0.92510352186E-02 -0.17045227932E-01  0.10211019160E+01  0.10208467081E+01 0.  0.
     999903    2    3    3    0    0 -0.94730946064E-01 -0.91466399346E-01 -0.80019108083E-02  0.13336396100E+00  0.19541268266E-01 0.  0.
         14    1    1    2    0    0  0.12041593407E-01  0.92510352186E-02  0.17045227932E-01  0.22828084012E-01  0.00000000000E+00 0.  1.
     999901    1    3    3    0    0  0.82689352657E-01  0.82215364128E-01 -0.90433171237E-02  0.88773795499E+00  0.88000000000E+00 0.  1.
        -11    1    4    4    0    0 -0.27587946658E-01 -0.39012285914E-01 -0.57557977724E-02  0.48129446102E-01  0.51100000000E-03 0.  1.
         11    1    4    4    0    0 -0.67142999406E-01 -0.52454113432E-01 -0.22461130359E-02  0.85234514898E-01  0.51100000000E-03 0. -1.
</event>
<event>
 8    1  0.1063984E+005  0.1043930E+01  0.7957747E-01            NaN
         13   -1    0    0    0    0  0.00000000000E+00  0.00000000000E+00  0.74505805969E-08  0.10566000000E+00  0.10566000000E+00 0. -1.
     999900   -1    0    0    0    0 -0.00000000000E+00 -0.00000000000E+00 -0.74505805969E-08  0.93827000000E+00  0.93827000000E+00 0. -1.
     999902    2    1    2    0    0  0.11152649486E-01  0.34407520413E-02 -0.20459822613E-01  0.10203752827E+01  0.10201033736E+01 0.  0.
     999903    2    3    3    0    0 -0.49939134691E-01  0.61700816127E-01  0.98774681775E-01  0.12833082855E+00  0.20284376074E-01 0.  0.
         14    1    1    2    0    0 -0.11152649486E-01 -0.34407520413E-02  0.20459822613E-01  0.23554717288E-01  0.00000000000E+00 0. -1.
     999901    1    3    3    0    0  0.61091784177E-01 -0.58260064086E-01 -0.11923450439E+00  0.89204445416E+00  0.88000000000E+00 0. -1.
        -11    1    4    4    0    0 -0.29033793872E-01  0.48419642106E-01  0.60625119591E-01  0.82843763644E-01  0.51100000000E-03 0.  1.
         11    1    4    4    0    0 -0.20905340820E-01  0.13281174021E-01  0.38149562184E-01  0.45487064909E-01  0.51100000000E-03 0. -1.
</event>
<event>
 8    1  0.1063984E+005  0.1043930E+01  0.7957747E-01            NaN
         13   -1    0    0    0    0  0.00000000000E+00  0.00000000000E+00  0.74505805969E-08  0.10566000000E+00  0.10566000000E+00 0.  1.
     999900   -1    0    0    0    0 -0.00000000000E+00 -0.00000000000E+00 -0.74505805969E-08  0.93827000000E+00  0.93827000000E+00 0. -1.
     999902    2    1    2    0    0  0.23542174927E-01 -0.72576996313E-02 -0.16069174121E-02  0.10192421409E+01  0.10189431051E+01 0.  0.
     999903    2    3    3    0    0  0.11210174410E-03  0.72961931340E-01  0.10452983487E+00  0.12893367315E+00  0.19337779185E-01 0.  0.
         14    1    1    2    0    0 -0.23542174927E-01  0.72576996313E-02  0.16069174121E-02  0.24687859118E-01  0.00000000000E+00 0.  1.
     999901    1    3    3    0    0  0.23430073183E-01 -0.80219630971E-01 -0.10613675228E+00  0.89030846773E+00  0.88000000000E+00 0. -1.
        -11    1    4    4    0    0  0.14578366107E-02  0.38423903240E-01  0.38571978293E-01  0.54466322239E-01  0.51100000000E-03 0. -1.
         11    1    4    4    0    0 -0.13457348666E-02  0.34538028100E-01  0.65957856576E-01  0.74467350916E-01  0.51100000000E-03 0.  1.
</event>
<event>
 7    1  0.1063984E+005  0.1043930E+01  0.7957747E-01            NaN
         13   -1    0    0    0    0  0.00000000000E+00  0.00000000000E+00  0.74505805969E-08  0.10566000000E+00  0.10566000000E+00 0. -1.
     999900   -1    0    0    0    0 -0.00000000000E+00 -0.00000000000E+00 -0.74505805969E-08  0.93827000000E+00  0.93827000000E+00 0.  1.
     999902    2    1    2    0    0 -0.12626704635E-01 -0.15715353108E-01  0.12447585039E-01  0.10202372086E+01  0.10199620647E+01 0.  0.
         14    1    1    2    0    0  0.12626704635E-01  0.15715353108E-01 -0.12447585039E-01  0.23692791447E-01  0.00000000000E+00 0.  1.
     999901    1    3    3    0    0  0.94402079399E-01 -0.56368883459E-01  0.59592134883E-01  0.88884218293E+00  0.88000000000E+00 0. -1.
        -11    1    3    3    0    0 -0.60129049032E-01  0.31696861955E-01 -0.48700965073E-01  0.83619607242E-01  0.51100000000E-03 0. -1.
         11    1    3    3    0    0 -0.46899735003E-01  0.89566683961E-02  0.15564152288E-02  0.47775418381E-01  0.51100000000E-03 0.  1.
</event>
<event>
 8    1  0.1063984E+005  0.1043930E+01  0.7957747E-01            NaN
         13   -1    0    0    0    0  0.00000000000E+00  0.00000000000E+00  0.74505805969E-08  0.10566000000E+00  0.10566000000E+00 0. -1.
     999900   -1    0    0    0    0 -0.00000000000E+00 -0.00000000000E+00 -0.74505805969E-08  0.93827000000E+00  0.93827000000E+00 0.  1.
     999902    2    1    2    0    0 -0.53585953055E-02 -0.15976906244E-01  0.15768403933E-01  0.10208514680E+01  0.10205905649E+01 0.  0.
     999903    2    3    3    0    0 -0.12192400623E+00  0.43298460001E-01  0.85553769899E-02  0.13115877283E+00  0.19728387709E-01 0.  0.
         14    1    1    2    0    0  0.53585953055E-02  0.15976906244E-01 -0.15768403933E-01  0.23078532002E-01  0.00000000000E+00 0.  1.
     999901    1    3    3    0    0  0.11656541093E+00 -0.59275366245E-01  0.72130269430E-02  0.88969269516E+00  0.88000000000E+00 0. -1.
        -11    1    4    4    0    0 -0.32013578527E-01  0.84525522934E-02  0.10411595895E-01  0.34712782955E-01  0.51100000000E-03 0.  1.
         11    1    4    4    0    0 -0.89910427707E-01  0.34845907707E-01 -0.18562189050E-02  0.96445989880E-01  0.51100000000E-03 0. -1.
</event>
<event>
 8    1  0.1063984E+005  0.1043930E+01  0.7957747E-01            NaN
         13   -1    0    0    0    0  0.00000000000E+00  0.00000000000E+00  0.74505805969E-08  0.10566000000E+00  0.10566000000E+00 0. -1.
     999900   -1    0    0    0    0 -0.00000000000E+00 -0.00000000000E+00 -0.74505805969E-08  0.93827000000E+00  0.93827000000E+00 0.  1.
     999902    2    1    2    0    0  0.12728297269E-01 -0.16229325341E-01  0.11975711659E-01  0.10200800897E+01  0.10198012410E+01 0.  0.
     999903    2    3    3    0    0 -0.84354628974E-02  0.44792603752E-01  0.12064986018E+00  0.13104597834E+00  0.23219071761E-01 0.  0.
         14    1    1    2    0    0 -0.12728297269E-01  0.16229325341E-01 -0.11975711659E-01  0.23849910318E-01  0.00000000000E+00 0.  1.
     999901    1    3    3    0    0  0.21163760167E-01 -0.61021929094E-01 -0.10867414852E+00  0.88903411134E+00  0.88000000000E+00 0.  1.
        -11    1    4    4    0    0 -0.60314014785E-02  0.45979944696E-01  0.10016837144E+00  0.11038340852E+00  0.51100000000E-03 0. -1.
         11    1    4    4    0    0 -0.24040614189E-02 -0.11873409433E-02  0.20481488738E-01  0.20662569824E-01  0.51100000000E-03 0.  1.
</event>
<event>
 8    1  0.1063984E+005  0.1043930E+01  0.7957747E-01            NaN
         13   -1    0    0    0    0  0.00000000000E+00  0.00000000000E+00  0.74505805969E-08  0.10566000000E+00  0.10566000000E+00 0. -1.
     999900   -1    0    0    0    0 -0.00000000000E+00 -0.00000000000E+00 -0.74505805969E-08  0.93827000000E+00  0.93827000000E+00 0.  1.
     999902    2    1    2    0    0  0.19130853491E-01 -0.58680757131E-02 -0.12036924647E-01  0.10205780959E+01  0.10203109029E+01 0.  0.
     999903    2    3    3    0    0  0.10133441469E+00 -0.18812641845E-01  0.79767188282E-01  0.13189762333E+00  0.20287918077E-01 0.  0.
         14    1    1    2    0    0 -0.19130853491E-01  0.58680757131E-02  0.12036924647E-01  0.23351904051E-01  0.00000000000E+00 0. -1.
     999901    1    3    3    0    0 -0.82203561197E-01  0.12944566132E-01 -0.91804112929E-01  0.88868047262E+00  0.88000000000E+00 0.  1.
        -11    1    4    4    0    0  0.33367161143E-01 -0.14466247063E-02  0.36492187525E-01  0.49471214228E-01  0.51100000000E-03 0. -1.
         11    1    4    4    0    0  0.67967253545E-01 -0.17366017139E-01  0.43275000757E-01  0.82426409101E-01  0.51100000000E-03 0.  1.
</event>
<event>
 8    1  0.1063984E+005  0.1043930E+01  0.7957747E-01            NaN
         13   -1    0    0    0    0  0.00000000000E+00  0.00000000000E+00  0.74505805969E-08  0.10566000000E+00  0.10566000000E+00 0. -1.
     999900   -1    0    0    0    0 -0.00000000000E+00 -0.00000000000E+00 -0.74505805969E-08  0.93827000000E+00  0.93827000000E+00 0.  1.
     999902    2    1    2    0    0  0.17956099123E-01  0.22111601867E-03 -0.14300970298E-01  0.10209737778E+01  0.10207156640E+01 0.  0.
     999903    2    3    3    0    0  0.73512963125E-01  0.16604734913E-01 -0.10910161088E+00  0.13398891343E+00  0.19235239958E-01 0.  0.
         14    1    1    2    0    0 -0.17956099123E-01 -0.22111601867E-03  0.14300970298E-01  0.22956222239E-01  0.00000000000E+00 0.  1.
     999901    1    3    3    0    0 -0.55556864002E-01 -0.16383618894E-01  0.94800640579E-01  0.88698486434E+00  0.88000000000E+00 0. -1.
        -11    1    4    4    0    0  0.63431839457E-01  0.11925139042E-01 -0.79734807328E-01  0.10258512474E+00  0.51100000000E-03 0. -1.
         11    1    4    4    0    0  0.10081123668E-01  0.46795958706E-02 -0.29366803549E-01  0.31403788682E-01  0.51100000000E-03 0.  1.
</event>
<event>
 8    1  0.1063984E+005  0.1043930E+01  0.7957747E-01            NaN
         13   -1    0    0    0    0  0.00000000000E+00  0.00000000000E+00  0.74505805969E-08  0.10566000000E+00  0.10566000000E+00 0.  1.
     999900   -1    0    0    0    0 -0.00000000000E+00 -0.00000000000E+00 -0.74505805969E-08  0.93827000000E+00  0.93827000000E+00 0. -1.
     999902    2    1    2    0    0  0.16571302134E-01 -0.16413628224E-01 -0.14146712913E-02  0.10205630032E+01  0.10202954606E+01 0.  0.
     999903    2    3    3    0    0  0.29748841879E-01 -0.75848157500E-01 -0.10261829026E+00  0.13267321085E+00  0.20826204438E-01 0.  0.
         14    1    1    2    0    0 -0.16571302134E-01  0.16413628224E-01  0.14146712913E-02  0.23366996827E-01  0.00000000000E+00 0. -1.
     999901    1    3    3    0    0 -0.13177539745E-01  0.59434529276E-01  0.10120361897E+00  0.88788979233E+00  0.88000000000E+00 0.  1.
        -11    1    4    4    0    0  0.27812753138E-01 -0.59740255202E-01 -0.69410462251E-01  0.95710609232E-01  0.51100000000E-03 0.  1.
         11    1    4    4    0    0  0.19360887407E-02 -0.16107902298E-01 -0.33207828009E-01  0.36962601614E-01  0.51100000000E-03 0. -1.
</event>
<event>
 8    1  0.1063984E+005  0.1043930E+01  0.7957747E-01            NaN
         13   -1    0    0    0    0  0.00000000000E+00  0.00000000000E+00  0.74505805969E-08  0.10566000000E+00  0.10566000000E+00 0. -1.
     999900   -1    0    0    0    0 -0.00000000000E+00 -0.00000000000E+00 -0.74505805969E-08  0.93827000000E+00  0.93827000000E+00 0. -1.
     999902    2    1    2    0    0 -0.54258317875E-03 -0.13004254657E-01  0.18317908255E-01  0.10214588897E+01  0.10212116884E+01 0.  0.
     999903    2    3    3    0    0 -0.53894904146E-01 -0.28940092593E-01 -0.11292143608E+00  0.12998584658E+00  0.20071869221E-01 0.  0.
         14    1    1    2    0    0  0.54258317875E-03  0.13004254657E-01 -0.18317908255E-01  0.22471110309E-01  0.00000000000E+00 0.  1.
     999901    1    3    3    0    0  0.53352320967E-01  0.15935837936E-01  0.13123934433E+00  0.89147304311E+00  0.88000000000E+00 0.  1.
        -11    1    4    4    0    0 -0.43433478141E-01 -0.21003228568E-01 -0.10223425131E+00  0.11304736130E+00  0.51100000000E-03 0. -1.
         11    1    4    4    0    0 -0.10461426005E-01 -0.79368640251E-02 -0.10687184765E-01  0.16938485287E-01  0.51100000000E-03 0.  1.
</event>
<event>
 8    1  0.1063984E+005  0.1043930E+01  0.7957747E-01            NaN
         13   -1    0    0    0    0  0.00000000000E+00  0.00000000000E+00  0.74505805969E-08  0.10566000000E+00  0.10566000000E+00 0. -1.
     999900   -1    0    0    0    0 -0.00000000000E+00 -0.00000000000E+00 -0.74505805969E-08  0.93827000000E+00  0.93827000000E+00 0. -1.
     999902    2    1    2    0    0  0.17391915110E-01  0.11867486111E-01  0.11324070252E-01  0.10200228775E+01  0.10197426735E+01 0.  0.
     999903    2    3    3    0    0 -0.73536285968E-01 -0.91441197134E-01 -0.45666990237E-01  0.12750475292E+00  0.20072621448E-01 0.  0.
         14    1    1    2    0    0 -0.17391915110E-01 -0.11867486111E-01 -0.11324070252E-01  0.23907122471E-01  0.00000000000E+00 0.  1.
     999901    1    3    3    0    0  0.90928201078E-01  0.10330868324E+00  0.56991060489E-01  0.89251812461E+00  0.88000000000E+00 0.  1.
        -11    1    4    4    0    0 -0.11957504671E-01 -0.25313771819E-01 -0.16758688458E-01  0.32632556159E-01  0.51100000000E-03 0.  1.
         11    1    4    4    0    0 -0.61578781297E-01 -0.66127425315E-01 -0.28908301779E-01  0.94872196757E-01  0.51100000000E-03 0. -1.
</event>
<event>
 8    1  0.1063984E+005  0.1043930E+01  0.7957747E-01            NaN
         13   -1    0    0    0    0  0.00000000000E+00  0.00000000000E+00  0.74505805969E-08  0.10566000000E+00  0.10566000000E+00 0. -1.
     999900   -1    0    0    0    0 -0.00000000000E+00 -0.00000000000E+00 -0.74505805969E-08  0.93827000000E+00  0.93827000000E+00 0.  1.
     999902    2    1    2    0    0  0.14264490201E-01 -0.10033000903E-01  0.14935752457E-01  0.10209688700E+01  0.10207106446E+01 0.  0.
     999903    2    3    3    0    0  0.25084452317E-01 -0.10569521671E+00 -0.71365105681E-01  0.13152175568E+00  0.20106847726E-01 0.  0.
         14    1    1    2    0    0 -0.14264490201E-01  0.10033000903E-01 -0.14935752457E-01  0.22961129965E-01  0.00000000000E+00 0.  1.
     999901    1    3    3    0    0 -0.10819962116E-01  0.95662215808E-01  0.86300858138E-01  0.88944711435E+00  0.88000000000E+00 0. -1.
        -11    1    4    4    0    0  0.21493833149E-01 -0.47376823554E-01 -0.32424518170E-01  0.61303823478E-01  0.51100000000E-03 0. -1.
         11    1    4    4    0    0  0.35906191682E-02 -0.58318393157E-01 -0.38940587511E-01  0.70217932205E-01  0.51100000000E-03 0.  1.
</event>
<event>
 8    1  0.1305180E+005  0.1043930E+01  0.7957747E-01            NaN
         13   -1    0    0    0    0  0.00000000000E+00  0.00000000000E+00  0.74505805969E-08  0.10566000000E+00  0.10566000000E+00 0.  1.
     999900   -1    0    0    0    0 -0.00000000000E+00 -0.00000000000E+00 -0.74505805969E-08  0.93827000000E+00  0.93827000000E+00 0.  1.
     999902    2    1    2    0    0 -0.56423320876E-02  0.17045855520E-01  0.20618404871E-01  0.10165892663E+01  0.10162215411E+01 0.  0.
     999903    2    3    3    0    0 -0.19817000227E-01 -0.97582406336E-01  0.76530389207E-01  0.12728239593E+00  0.20709136071E-01 0.  0.
         14    1    1    2    0    0  0.56423320876E-02 -0.17045855520E-01 -0.20618404871E-01  0.27340733736E-01  0.00000000000E+00 0. -1.
     999901    1    3    3    0    0  0.14174668140E-01  0.11462826186E+00 -0.55911984336E-01  0.88930687034E+00  0.88000000000E+00 0.  1.
        -11    1    4    4    0    0 -0.10123145355E-02 -0.54992419854E-01  0.38094552862E-01  0.66907750679E-01  0.51100000000E-03 0.  1.
         11    1    4    4    0    0 -0.18804685692E-01 -0.42589986481E-01  0.38435836345E-01  0.60374645249E-01  0.51100000000E-03 0. -1.
</event>
<event>
 8    1  0.1063984E+005  0.1043930E+01  0.7957747E-01            NaN
         13   -1    0    0    0    0  0.00000000000E+00  0.00000000000E+00  0.74505805969E-08  0.10566000000E+00  0.10566000000E+00 0. -1.
     999900   -1    0    0    0    0 -0.00000000000E+00 -0.00000000000E+00 -0.74505805969E-08  0.93827000000E+00  0.93827000000E+00 0. -1.
     999902    2    1    2    0    0 -0.59783669168E-02  0.17663453865E-01 -0.15073782821E-01  0.10199517306E+01  0.10196698365E+01 0.  0.
     999903    2    3    3    0    0 -0.20376922122E-01  0.63197770496E-01  0.10996703425E+00  0.12983044771E+00  0.18815402721E-01 0.  0.
         14    1    1    2    0    0  0.59783669168E-02 -0.17663453865E-01  0.15073782821E-01  0.23978269370E-01  0.00000000000E+00 0.  1.
     999901    1    3    3    0    0  0.14398555205E-01 -0.45534316631E-01 -0.12504081707E+00  0.89012128292E+00  0.88000000000E+00 0. -1.
        -11    1    4    4    0    0 -0.23315633606E-01  0.58889943068E-01  0.10491248874E+00  0.12255013496E+00  0.51100000000E-03 0.  1.
         11    1    4    4    0    0  0.29387114844E-02  0.43078274286E-02  0.50545455077E-02  0.72803127427E-02  0.51100000000E-03 0. -1.
</event>
<event>
 8    1  0.1063984E+005  0.1043930E+01  0.7957747E-01            NaN
         13   -1    0    0    0    0  0.00000000000E+00  0.00000000000E+00  0.74505805969E-08  0.10566000000E+00  0.10566000000E+00 0. -1.
     999900   -1    0    0    0    0 -0.00000000000E+00 -0.00000000000E+00 -0.74505805969E-08  0.93827000000E+00  0.93827000000E+00 0.  1.
     999902    2    1    2    0    0 -0.16995211584E-01  0.12084640170E-01 -0.10718685002E-01  0.10204829116E+01  0.10202135105E+01 0.  0.
     999903    2    3    3    0    0 -0.12053580481E+00  0.24691545696E-01  0.45693297532E-01  0.13252914015E+00  0.18372340075E-01 0.  0.
         14    1    1    2    0    0  0.16995211584E-01 -0.12084640170E-01  0.10718685002E-01  0.23447088369E-01  0.00000000000E+00 0.  1.
     999901    1    3    3    0    0  0.10354059323E+00 -0.12606905527E-01 -0.56411982534E-01  0.88795377148E+00  0.88000000000E+00 0. -1.
        -11    1    4    4    0    0 -0.12060641238E-01 -0.18434171171E-02  0.10316124499E-02  0.12254901019E-01  0.51100000000E-03 0. -1.
         11    1    4    4    0    0 -0.10847516357E+00  0.26534962813E-01  0.44661685083E-01  0.12027423913E+00  0.51100000000E-03 0.  1.
</event>
<event>
 8    1  0.1063984E+005  0.1043930E+01  0.7957747E-01            NaN
         13   -1    0    0    0    0  0.00000000000E+00  0.00000000000E+00  0.74505805969E-08  0.10566000000E+00  0.10566000000E+00 0. -1.
     999900   -1    0    0    0    0 -0.00000000000E+00 -0.00000000000E+00 -0.74505805969E-08  0.93827000000E+00  0.93827000000E+00 0. -1.
     999902    2    1    2    0    0 -0.15731187750E-01 -0.54681789999E-02  0.16219731186E-01  0.10206823995E+01  0.10204176153E+01 0.  0.
     999903    2    3    3    0    0 -0.11716454148E+00  0.58314467876E-01 -0.52245875245E-02  0.13230364575E+00  0.18677564665E-01 0.  0.
         14    1    1    2    0    0  0.15731187750E-01  0.54681789999E-02 -0.16219731186E-01  0.23247600507E-01  0.00000000000E+00 0.  1.
     999901    1    3    3    0    0  0.10143335373E+00 -0.63782646876E-01  0.21444318710E-01  0.88837875374E+00  0.88000000000E+00 0.  1.
        -11    1    4    4    0    0 -0.30694739800E-01  0.16725673298E-01 -0.95919043236E-02  0.36251633732E-01  0.51100000000E-03 0.  1.
         11    1    4    4    0    0 -0.86469801676E-01  0.41588794578E-01  0.43673167991E-02  0.96052012022E-01  0.51100000000E-03 0. -1.
</event>
<event>
 8    1  0.1063984E+005  0.1043930E+01  0.7957747E-01            NaN
         13   -1    0    0    0    0  0.00000000000E+00  0.00000000000E+00  0.74505805969E-08  0.10566000000E+00  0.10566000000E+00 0.  1.
     999900   -1    0    0    0    0 -0.00000000000E+00 -0.00000000000E+00 -0.74505805969E-08  0.93827000000E+00  0.93827000000E+00 0. -1.
     999902    2    1    2    0    0  0.14745694854E-01 -0.10479133534E-01 -0.15217475262E-01  0.10202906407E+01  0.10200167509E+01 0.  0.
     999903    2    3    3    0    0 -0.61562495049E-02  0.12348617876E+00  0.29932705310E-01  0.12876266299E+00  0.19927889520E-01 0.  0.
         14    1    1    2    0    0 -0.14745694854E-01  0.10479133534E-01  0.15217475262E-01  0.23639359333E-01  0.00000000000E+00 0. -1.
     999901    1    3    3    0    0  0.20901944358E-01 -0.13396531229E+00 -0.45150180571E-01  0.89152797768E+00  0.88000000000E+00 0.  1.
        -11    1    4    4    0    0 -0.48167906086E-02  0.79096598613E-02 -0.33122913193E-03  0.92808956801E-02  0.51100000000E-03 0.  1.
         11    1    4    4    0    0 -0.13394588964E-02  0.11557651890E+00  0.30263934442E-01  0.11948176731E+00  0.51100000000E-03 0. -1.
</event>
<event>
 8    1  0.1063984E+005  0.1043930E+01  0.7957747E-01            NaN
         13   -1    0    0    0    0  0.00000000000E+00  0.00000000000E+00  0.74505805969E-08  0.10566000000E+00  0.10566000000E+00 0. -1.
     999900   -1    0    0    0    0 -0.00000000000E+00 -0.00000000000E+00 -0.74505805969E-08  0.93827000000E+00  0.93827000000E+00 0.  1.
     999902    2    1    2    0    0 -0.12332310729E-01  0.19412447319E-01 -0.11711159795E-01  0.10181214692E+01  0.10177943042E+01 0.  0.
     999903    2    3    3    0    0  0.64422909015E-01  0.48487225119E-01 -0.10009115649E+00  0.12989417267E+00  0.18786545205E-01 0.  0.
         14    1    1    2    0    0  0.12332310729E-01 -0.19412447319E-01  0.11711159795E-01  0.25808530810E-01  0.00000000000E+00 0. -1.
     999901    1    3    3    0    0 -0.76755219744E-01 -0.29074777800E-01  0.88379996697E-01  0.88822729652E+00  0.88000000000E+00 0. -1.
        -11    1    4    4    0    0  0.30891466354E-01  0.11995636260E-01 -0.43051054731E-01  0.54330768605E-01  0.51100000000E-03 0.  1.
         11    1    4    4    0    0  0.33531442662E-01  0.36491588859E-01 -0.57040101761E-01  0.75563404068E-01  0.51100000000E-03 0. -1.
</event>
<event>
 8    1  0.1063984E+005  0.1043930E+01  0.7957747E-01            NaN
         13   -1    0    0    0    0  0.00000000000E+00  0.00000000000E+00  0.74505805969E-08  0.10566000000E+00  0.10566000000E+00 0. -1.
     999900   -1    0    0    0    0 -0.00000000000E+00 -0.00000000000E+00 -0.74505805969E-08  0.93827000000E+00  0.93827000000E+00 0.  1.
     999902    2    1    2    0    0 -0.17230474530E-01  0.15783819737E-01 -0.52017926103E-03  0.10205571781E+01  0.10202895005E+01 0.  0.
     999903    2    3    3    0    0 -0.39731879750E-01 -0.86958096299E-01  0.85997774672E-01  0.13008114196E+00  0.19625327142E-01 0.  0.
         14    1    1    2    0    0  0.17230474530E-01 -0.15783819737E-01  0.52017926103E-03  0.23372821919E-01  0.00000000000E+00 0.  1.
     999901    1    3    3    0    0  0.22501405220E-01  0.10274191604E+00 -0.86517953933E-01  0.89047603612E+00  0.88000000000E+00 0. -1.
        -11    1    4    4    0    0 -0.25530402895E-01 -0.37718357765E-01  0.32211950624E-01  0.55788411596E-01  0.51100000000E-03 0. -1.
         11    1    4    4    0    0 -0.14201476855E-01 -0.49239738534E-01  0.53785824048E-01  0.74292730367E-01  0.51100000000E-03 0.  1.
</event>
<event>
 8    1  0.1063984E+005  0.1043930E+01  0.7957747E-01            NaN
         13   -1    0    0    0    0  0.00000000000E+00  0.00000000000E+00  0.74505805969E-08  0.10566000000E+00  0.10566000000E+00 0.  1.
     999900   -1    0    0    0    0 -0.00000000000E+00 -0.00000000000E+00 -0.74505805969E-08  0.93827000000E+00  0.93827000000E+00 0. -1.
     999902    2    1    2    0    0  0.17984120065E-01  0.10773748140E-01 -0.11234640027E-01  0.10201451443E+01  0.10198678327E+01 0.  0.
     999903    2    3    3    0    0  0.10052988476E-01 -0.16546699193E-01 -0.12880168654E+00  0.13187079474E+00  0.20619801586E-01 0.  0.
         14    1    1    2    0    0 -0.17984120065E-01 -0.10773748140E-01  0.11234640027E-01  0.23784855686E-01  0.00000000000E+00 0.  1.
     999901    1    3    3    0    0  0.79311315890E-02  0.27320447333E-01  0.11756704651E+00  0.88827434958E+00  0.88000000000E+00 0.  1.
        -11    1    4    4    0    0  0.77154074326E-02 -0.12599383709E-01 -0.35499375901E-01  0.38454372860E-01  0.51100000000E-03 0.  1.
         11    1    4    4    0    0  0.23375810431E-02 -0.39473154846E-02 -0.93302310639E-01  0.93416421877E-01  0.51100000000E-03 0. -1.
</event>
<event>
 8    1  0.1063984E+005  0.1043930E+01  0.7957747E-01            NaN
         13   -1    0    0    0    0  0.00000000000E+00  0.00000000000E+00  0.74505805969E-08  0.10566000000E+00  0.10566000000E+00 0.  1.
     999900   -1    0    0    0    0 -0.00000000000E+00 -0.00000000000E+00 -0.74505805969E-08  0.93827000000E+00  0.93827000000E+00 0. -1.
     999902    2    1    2    0    0  0.46284797295E-02  0.22890815253E-01 -0.31160584172E-02  0.10203689714E+01  0.10200969149E+01 0.  0.
     999903    2    3    3    0    0  0.95236656848E-01 -0.60603653618E-01  0.60248100855E-01  0.12952881473E+00  0.20126016735E-01 0.  0.
         14    1    1    2    0    0 -0.46284797295E-02 -0.22890815253E-01  0.31160584172E-02  0.23561028578E-01  0.00000000000E+00 0. -1.
     999901    1    3    3    0    0 -0.90608177119E-01  0.83494468872E-01 -0.63364159272E-01  0.89084015669E+00  0.88000000000E+00 0. -1.
        -11    1    4    4    0    0  0.16462367247E-01 -0.36040564874E-02  0.13710734693E-01  0.21731178647E-01  0.51100000000E-03 0. -1.
         11    1    4    4    0    0  0.78774289601E-01 -0.56999597131E-01  0.46537366162E-01  0.10779763608E+00  0.51100000000E-03 0.  1.
</event>
<event>
 8    1  0.1063984E+005  0.1043930E+01  0.7957747E-01            NaN
         13   -1    0    0    0    0  0.00000000000E+00  0.00000000000E+00  0.74505805969E-08  0.10566000000E+00  0.10566000000E+00 0. -1.
     999900   -1    0    0    0    0 -0.00000000000E+00 -0.00000000000E+00 -0.74505805969E-08  0.93827000000E+00  0.93827000000E+00 0.  1.
     999902    2    1    2    0    0 -0.10978063270E-01  0.64219456198E-02 -0.19264030251E-01  0.10208461935E+01  0.10205851698E+01 0.  0.
     999903    2    3    3    0    0  0.10406500283E+00 -0.72466054154E-01 -0.19732745448E-01  0.12985885174E+00  0.19826404475E-01 0.  0.
         14    1    1    2    0    0  0.10978063270E-01 -0.64219456198E-02  0.19264030251E-01  0.23083806450E-01  0.00000000000E+00 0. -1.
     999901    1    3    3    0    0 -0.11504306610E+00  0.78887999774E-01  0.46871519656E-03  0.89098734181E+00  0.88000000000E+00 0. -1.
        -11    1    4    4    0    0  0.84296141695E-01 -0.67108509301E-01 -0.14558096356E-01  0.10872713928E+00  0.51100000000E-03 0.  1.
         11    1    4    4    0    0  0.19768861136E-01 -0.53575448526E-02 -0.51746490913E-02  0.21131712464E-01  0.51100000000E-03 0. -1.
</event>
<event>
 8    1  0.1063984E+005  0.1043930E+01  0.7957747E-01            NaN
         13   -1    0    0    0    0  0.00000000000E+00  0.00000000000E+00  0.74505805969E-08  0.10566000000E+00  0.10566000000E+00 0.  1.
     999900   -1    0    0    0    0 -0.00000000000E+00 -0.00000000000E+00 -0.74505805969E-08  0.93827000000E+00  0.93827000000E+00 0. -1.
     999902    2    1    2    0    0 -0.13459280563E-01 -0.16568065692E-01  0.89442007063E-02  0.10207858482E+01  0.10205234423E+01 0.  0.
     999903    2    3    3    0    0 -0.38337722215E-01  0.49119951162E-01 -0.11269168240E+00  0.12964661082E+00  0.15042535331E-01 0.  0.
         14    1    1    2    0    0  0.13459280563E-01  0.16568065692E-01 -0.89442007063E-02  0.23144151752E-01  0.00000000000E+00 0.  1.
     999901    1    3    3    0    0  0.24878441652E-01 -0.65688016853E-01  0.12163588311E+00  0.89113923742E+00  0.88000000000E+00 0.  1.
        -11    1    4    4    0    0 -0.23786247078E-01  0.34117085451E-01 -0.87698429882E-01  0.97062025501E-01  0.51100000000E-03 0.  1.
         11    1    4    4    0    0 -0.14551475137E-01  0.15002865710E-01 -0.24993252519E-01  0.32584585323E-01  0.51100000000E-03 0. -1.
</event>
<event>
 8    1  0.1063984E+005  0.1043930E+01  0.7957747E-01            NaN
         13   -1    0    0    0    0  0.00000000000E+00  0.00000000000E+00  0.74505805969E-08  0.10566000000E+00  0.10566000000E+00 0.  1.
     999900   -1    0    0    0    0 -0.00000000000E+00 -0.00000000000E+00 -0.74505805969E-08  0.93827000000E+00  0.93827000000E+00 0.  1.
     999902    2    1    2    0    0  0.43477747409E-03 -0.15737626718E-03  0.23158293544E-01  0.10207670909E+01  0.10205042545E+01 0.  0.
     999903    2    3    3    0    0  0.12123874576E+00 -0.21881611080E-01  0.42897142187E-01  0.13202912991E+00  0.20344236520E-01 0.  0.
         14    1    1    2    0    0 -0.43477747409E-03  0.15737626718E-03 -0.23158293544E-01  0.23162909114E-01  0.00000000000E+00 0. -1.
     999901    1    3    3    0    0 -0.12080396829E+00  0.21724234813E-01 -0.19738848644E-01  0.88873796098E+00  0.88000000000E+00 0. -1.
        -11    1    4    4    0    0  0.76309186382E-01 -0.23670195561E-01  0.27599564534E-01  0.84530273676E-01  0.51100000000E-03 0.  1.
         11    1    4    4    0    0  0.44929559381E-01  0.17885844810E-02  0.15297577654E-01  0.47498856236E-01  0.51100000000E-03 0. -1.
</event>
<event>
 8    1  0.1063984E+005  0.1043930E+01  0.7957747E-01            NaN
         13   -1    0    0    0    0  0.00000000000E+00  0.00000000000E+00  0.74505805969E-08  0.10566000000E+00  0.10566000000E+00 0. -1.
     999900   -1    0    0    0    0 -0.00000000000E+00 -0.00000000000E+00 -0.74505805969E-08  0.93827000000E+00  0.93827000000E+00 0. -1.
     999902    2    1    2    0    0  0.21677881299E-01 -0.28700181805E-02 -0.99384599291E-02  0.10199104137E+01  0.10196275356E+01 0.  0.
     999903    2    3    3    0    0 -0.10610962944E+00  0.43872677332E-01  0.51354416178E-01  0.12734593748E+00  0.19890863624E-01 0.  0.
         14    1    1    2    0    0 -0.21677881299E-01  0.28700181805E-02  0.99384599291E-02  0.24019586335E-01  0.00000000000E+00 0. -1.
     999901    1    3    3    0    0  0.12778751074E+00 -0.46742695512E-01 -0.61292876107E-01  0.89256447618E+00  0.88000000000E+00 0.  1.
        -11    1    4    4    0    0 -0.69293572057E-01  0.21027679075E-01  0.39189029442E-01  0.82339562577E-01  0.51100000000E-03 0.  1.
         11    1    4    4    0    0 -0.36816057382E-01  0.22844998256E-01  0.12165386736E-01  0.45006374903E-01  0.51100000000E-03 0. -1.
</event>
<event>
 8    1  0.1063984E+005  0.1043930E+01  0.7957747E-01            NaN
         13   -1    0    0    0    0  0.00000000000E+00  0.00000000000E+00  0.74505805969E-08  0.10566000000E+00  0.10566000000E+00 0. -1.
     999900   -1    0    0    0    0 -0.00000000000E+00 -0.00000000000E+00 -0.74505805969E-08  0.93827000000E+00  0.93827000000E+00 0.  1.
     999902    2    1    2    0    0 -0.35288573970E-03 -0.21173960600E-01 -0.10608610221E-01  0.10202444823E+01  0.10199695094E+01 0.  0.
     999903    2    3    3    0    0 -0.77256935701E-01 -0.99710368088E-01 -0.37070097026E-01  0.13301147434E+00  0.20175941000E-01 0.  0.
         14    1    1    2    0    0  0.35288573970E-03  0.21173960600E-01  0.10608610221E-01  0.23685517657E-01  0.00000000000E+00 0. -1.
     999901    1    3    3    0    0  0.76904049961E-01  0.78536407488E-01  0.26461486805E-01  0.88723300800E+00  0.88000000000E+00 0. -1.
        -11    1    4    4    0    0 -0.64590893866E-01 -0.79999861098E-01 -0.21997857128E-01  0.10514812497E+00  0.51100000000E-03 0. -1.
         11    1    4    4    0    0 -0.12666041835E-01 -0.19710506990E-01 -0.15072239898E-01  0.27863349370E-01  0.51100000000E-03 0.  1.
</event>
<event>
 8    1  0.1063984E+005  0.1043930E+01  0.7957747E-01            NaN
         13   -1    0    0    0    0  0.00000000000E+00  0.00000000000E+00  0.74505805969E-08  0.10566000000E+00  0.10566000000E+00 0. -1.
     999900   -1    0    0    0    0 -0.00000000000E+00 -0.00000000000E+00 -0.74505805969E-08  0.93827000000E+00  0.93827000000E+00 0. -1.
     999902    2    1    2    0    0 -0.92638880688E-02  0.19208517674E-01  0.10013858030E-01  0.10203702011E+01  0.10200981733E+01 0.  0.
     999903    2    3    3    0    0 -0.26636747718E-01  0.10393323417E+00 -0.74651860092E-01  0.13208625003E+00  0.19032701794E-01 0.  0.
         14    1    1    2    0    0  0.92638880688E-02 -0.19208517674E-01 -0.10013858030E-01  0.23559798939E-01  0.00000000000E+00 0.  1.
     999901    1    3    3    0    0  0.17372859650E-01 -0.84724716495E-01  0.84665718122E-01  0.88828395103E+00  0.88000000000E+00 0.  1.
        -11    1    4    4    0    0 -0.98682548164E-02  0.33715820985E-01 -0.14089173486E-01  0.37853731234E-01  0.51100000000E-03 0.  1.
         11    1    4    4    0    0 -0.16768492902E-01  0.70217413184E-01 -0.60562686605E-01  0.94232518794E-01  0.51100000000E-03 0. -1.
</event>
<event>
 8    1  0.1063984E+005  0.1043930E+01  0.7957747E-01            NaN
         13   -1    0    0    0    0  0.00000000000E+00  0.00000000000E+00  0.74505805969E-08  0.10566000000E+00  0.10566000000E+00 0. -1.
     999900   -1    0    0    0    0 -0.00000000000E+00 -0.00000000000E+00 -0.74505805969E-08  0.93827000000E+00  0.93827000000E+00 0.  1.
     999902    2    1    2    0    0 -0.22681358512E-01  0.83348650312E-02 -0.24794439632E-02  0.10196388156E+01  0.10193494261E+01 0.  0.
     999903    2    3    3    0    0  0.96296791198E-01  0.79673303695E-01 -0.22589247377E-01  0.12854433284E+00  0.19810706500E-01 0.  0.
         14    1    1    2    0    0  0.22681358512E-01 -0.83348650312E-02  0.24794439632E-02  0.24291184438E-01  0.00000000000E+00 0. -1.
     999901    1    3    3    0    0 -0.11897814971E+00 -0.71338438664E-01  0.20109803414E-01  0.89109448272E+00  0.88000000000E+00 0.  1.
        -11    1    4    4    0    0  0.57259602966E-01  0.59398125153E-01 -0.16410038576E-01  0.84121043090E-01  0.51100000000E-03 0. -1.
         11    1    4    4    0    0  0.39037188232E-01  0.20275178542E-01 -0.61792088014E-02  0.44423289752E-01  0.51100000000E-03 0.  1.
</event>
<event>
 8    1  0.1063984E+005  0.1043930E+01  0.7957747E-01            NaN
         13   -1    0    0    0    0  0.00000000000E+00  0.00000000000E+00  0.74505805969E-08  0.10566000000E+00  0.10566000000E+00 0.  1.
     999900   -1    0    0    0    0 -0.00000000000E+00 -0.00000000000E+00 -0.74505805969E-08  0.93827000000E+00  0.93827000000E+00 0. -1.
     999902    2    1    2    0    0 -0.15297462156E-01 -0.17143565510E-01 -0.66139026655E-02  0.10200206316E+01  0.10197403744E+01 0.  0.
     999903    2    3    3    0    0 -0.54006157359E-01 -0.77705984137E-01 -0.91498355561E-01  0.13301919986E+00  0.19164379937E-01 0.  0.
         14    1    1    2    0    0  0.15297462156E-01  0.17143565510E-01  0.66139026655E-02  0.23909368358E-01  0.00000000000E+00 0. -1.
     999901    1    3    3    0    0  0.38708695203E-01  0.60562418627E-01  0.84884452896E-01  0.88700143178E+00  0.88000000000E+00 0. -1.
        -11    1    4    4    0    0 -0.14030529599E-01 -0.30383879565E-01 -0.22713131654E-01  0.40449763520E-01  0.51100000000E-03 0. -1.
         11    1    4    4    0    0 -0.39975627760E-01 -0.47322104572E-01 -0.68785223908E-01  0.92569436343E-01  0.51100000000E-03 0.  1.
</event>
<event>
 8    1  0.1063984E+005  0.1043930E+01  0.7957747E-01            NaN
         13   -1    0    0    0    0  0.00000000000E+00  0.00000000000E+00  0.74505805969E-08  0.10566000000E+00  0.10566000000E+00 0. -1.
     999900   -1    0    0    0    0 -0.00000000000E+00 -0.00000000000E+00 -0.74505805969E-08  0.93827000000E+00  0.93827000000E+00 0. -1.
     999902    2    1    2    0    0 -0.11949839784E-01 -0.69228717801E-02  0.18849920577E-01  0.10205624085E+01  0.10202948522E+01 0.  0.
     999903    2    3    3    0    0  0.97266542335E-01  0.22869156847E-01 -0.77317295295E-01  0.12811413750E+00  0.21248281860E-01 0.  0.
         14    1    1    2    0    0  0.11949839784E-01  0.69228717801E-02 -0.18849920577E-01  0.23367591453E-01  0.00000000000E+00 0.  1.
     999901    1    3    3    0    0 -0.10921638212E+00 -0.29792028627E-01  0.96167215872E-01  0.89244827105E+00  0.88000000000E+00 0.  1.
        -11    1    4    4    0    0  0.10848462821E-01 -0.31740636131E-02 -0.46274314320E-02  0.12224486413E-01  0.51100000000E-03 0. -1.
         11    1    4    4    0    0  0.86418079514E-01  0.26043220460E-01 -0.72689863863E-01  0.11588965108E+00  0.51100000000E-03 0.  1.
</event>
<event>
 8    1  0.1063984E+005  0.1043930E+01  0.7957747E-01            NaN
         13   -1    0    0    0    0  0.00000000000E+00  0.00000000000E+00  0.74505805969E-08  0.10566000000E+00  0.10566000000E+00 0.  1.
     999900   -1    0    0    0    0 -0.00000000000E+00 -0.00000000000E+00 -0.74505805969E-08  0.93827000000E+00  0.93827000000E+00 0. -1.
     999902    2    1    2    0    0 -0.17527201416E-01  0.86502035875E-02 -0.12565226461E-01  0.10206939563E+01  0.10204294384E+01 0.  0.
     999903    2    3    3    0    0 -0.11927369972E-01 -0.58793348836E-01 -0.11572782615E+00  0.13208689304E+00  0.21333015349E-01 0.  0.
         14    1    1    2    0    0  0.17527201416E-01 -0.86502035875E-02  0.12565226461E-01  0.23236043717E-01  0.00000000000E+00 0.  1.
     999901    1    3    3    0    0 -0.55998314442E-02  0.67443552423E-01  0.10316259969E+00  0.88860706325E+00  0.88000000000E+00 0.  1.
        -11    1    4    4    0    0  0.35768769344E-02 -0.18558708957E-01 -0.22641666113E-01  0.29497896402E-01  0.51100000000E-03 0.  1.
         11    1    4    4    0    0 -0.15504246906E-01 -0.40234639879E-01 -0.93086160042E-01  0.10258899663E+00  0.51100000000E-03 0. -1.
</event>
<event>
 8    1  0.1063984E+005  0.1043930E+01  0.7957747E-01            NaN
         13   -1    0    0    0    0  0.00000000000E+00  0.00000000000E+00  0.74505805969E-08  0.10566000000E+00  0.10566000000E+00 0. -1.
     999900   -1    0    0    0    0 -0.00000000000E+00 -0.00000000000E+00 -0.74505805969E-08  0.93827000000E+00  0.93827000000E+00 0.  1.
     999902    2    1    2    0    0 -0.22534108072E-01  0.23022272582E-02 -0.54240663084E-03  0.10212720989E+01  0.10210207243E+01 0.  0.
     999903    2    3    3    0    0  0.93553111557E-01  0.87220227868E-01 -0.67000786994E-02  0.12957415324E+00  0.19621857736E-01 0.  0.
         14    1    1    2    0    0  0.22534108072E-01 -0.23022272582E-02  0.54240663084E-03  0.22657901092E-01  0.00000000000E+00 0.  1.
     999901    1    3    3    0    0 -0.11608721963E+00 -0.84918000610E-01  0.61576720685E-02  0.89169794567E+00  0.88000000000E+00 0. -1.
        -11    1    4    4    0    0  0.29438646962E-01  0.20661409983E-01 -0.91839999238E-02  0.37123237642E-01  0.51100000000E-03 0. -1.
         11    1    4    4    0    0  0.64114464595E-01  0.66558817885E-01  0.24839212245E-02  0.92450915595E-01  0.51100000000E-03 0.  1.
</event>
<event>
 8    1  0.1063984E+005  0.1043930E+01  0.7957747E-01            NaN
         13   -1    0    0    0    0  0.00000000000E+00  0.00000000000E+00  0.74505805969E-08  0.10566000000E+00  0.10566000000E+00 0.  1.
     999900   -1    0    0    0    0 -0.00000000000E+00 -0.00000000000E+00 -0.74505805969E-08  0.93827000000E+00  0.93827000000E+00 0. -1.
     999902    2    1    2    0    0 -0.12831812070E-01 -0.15696014424E-01  0.11937464220E-01  0.10204029236E+01  0.10201316598E+01 0.  0.
     999903    2    3    3    0    0 -0.18755118224E-01 -0.11814095798E+00 -0.52238665770E-01  0.13211883188E+00  0.20432012240E-01 0.  0.
         14    1    1    2    0    0  0.12831812070E-01  0.15696014424E-01 -0.11937464220E-01  0.23527076355E-01  0.00000000000E+00 0.  1.
     999901    1    3    3    0    0  0.59233061538E-02  0.10244494356E+00  0.64176129990E-01  0.88828409176E+00  0.88000000000E+00 0.  1.
        -11    1    4    4    0    0 -0.93900972708E-02 -0.45148167304E-01 -0.30837141708E-01  0.55477214849E-01  0.51100000000E-03 0.  1.
         11    1    4    4    0    0 -0.93650209527E-02 -0.72992790679E-01 -0.21401524062E-01  0.76641617035E-01  0.51100000000E-03 0. -1.
</event>
<event>
 8    1  0.1154260E+005  0.1043930E+01  0.7957747E-01            NaN
         13   -1    0    0    0    0  0.00000000000E+00  0.00000000000E+00  0.74505805969E-08  0.10566000000E+00  0.10566000000E+00 0.  1.
     999900   -1    0    0    0    0 -0.00000000000E+00 -0.00000000000E+00 -0.74505805969E-08  0.93827000000E+00  0.93827000000E+00 0. -1.
     999902    2    1    2    0    0 -0.17169843512E-01 -0.11805709472E-01  0.13058047912E-01  0.10193395360E+01  0.10190428837E+01 0.  0.
     999903    2    3    3    0    0  0.77910576524E-01  0.93546932357E-01 -0.30327742354E-01  0.12691486571E+00  0.19144834684E-01 0.  0.
         14    1    1    2    0    0  0.17169843512E-01  0.11805709472E-01 -0.13058047912E-01  0.24590463957E-01  0.00000000000E+00 0.  1.
     999901    1    3    3    0    0 -0.95080420035E-01 -0.10535264183E+00  0.43385790267E-01  0.89242467033E+00  0.88000000000E+00 0. -1.
        -11    1    4    4    0    0  0.37051373986E-01  0.59089711587E-01 -0.18764214647E-01  0.72227108498E-01  0.51100000000E-03 0.  1.
         11    1    4    4    0    0  0.40859202537E-01  0.34457220770E-01 -0.11563527708E-01  0.54687757215E-01  0.51100000000E-03 0. -1.
</event>
<event>
 8    1  0.1063984E+005  0.1043930E+01  0.7957747E-01            NaN
         13   -1    0    0    0    0  0.00000000000E+00  0.00000000000E+00  0.74505805969E-08  0.10566000000E+00  0.10566000000E+00 0.  1.
     999900   -1    0    0    0    0 -0.00000000000E+00 -0.00000000000E+00 -0.74505805969E-08  0.93827000000E+00  0.93827000000E+00 0.  1.
     999902    2    1    2    0    0  0.17986281708E-02 -0.14154369937E-02 -0.23286116436E-01  0.10205316722E+01  0.10202634034E+01 0.  0.
     999903    2    3    3    0    0  0.55912918384E-01 -0.38075867246E-02  0.11357519959E+00  0.12830686947E+00  0.20556620141E-01 0.  0.
         14    1    1    2    0    0 -0.17986281708E-02  0.14154369937E-02  0.23286116436E-01  0.23398327800E-01  0.00000000000E+00 0.  1.
     999901    1    3    3    0    0 -0.54114290213E-01  0.23921497309E-02 -0.13686131603E+00  0.89222480273E+00  0.88000000000E+00 0.  1.
        -11    1    4    4    0    0  0.33949438138E-01  0.70667611566E-02  0.74538482196E-01  0.82211616650E-01  0.51100000000E-03 0. -1.
         11    1    4    4    0    0  0.21963480246E-01 -0.10874347881E-01  0.39036717395E-01  0.46095252818E-01  0.51100000000E-03 0.  1.
</event>
<event>
 8    1  0.1063984E+005  0.1043930E+01  0.7957747E-01            NaN
         13   -1    0    0    0    0  0.00000000000E+00  0.00000000000E+00  0.74505805969E-08  0.10566000000E+00  0.10566000000E+00 0. -1.
     999900   -1    0    0    0    0 -0.00000000000E+00 -0.00000000000E+00 -0.74505805969E-08  0.93827000000E+00  0.93827000000E+00 0. -1.
     999902    2    1    2    0    0  0.17681311133E-01 -0.72921070574E-02 -0.55795163130E-02  0.10240067826E+01  0.10238129498E+01 0.  0.
     999903    2    3    3    0    0 -0.17709624545E-01 -0.33982795152E-01 -0.12739888424E+00  0.13450980704E+00  0.19848206828E-01 0.  0.
         14    1    1    2    0    0 -0.17681311133E-01  0.72921070574E-02  0.55795163130E-02  0.19923217386E-01  0.00000000000E+00 0. -1.
     999901    1    3    3    0    0  0.35390935678E-01  0.26690688094E-01  0.12181936793E+00  0.88949697558E+00  0.88000000000E+00 0.  1.
        -11    1    4    4    0    0  0.33487365622E-02 -0.12322143136E-01 -0.32733266824E-01  0.35139395641E-01  0.51100000000E-03 0.  1.
         11    1    4    4    0    0 -0.21058361107E-01 -0.21660652016E-01 -0.94665617421E-01  0.99370411396E-01  0.51100000000E-03 0. -1.
</event>
<event>
 8    1  0.1063984E+005  0.1043930E+01  0.7957747E-01            NaN
         13   -1    0    0    0    0  0.00000000000E+00  0.00000000000E+00  0.74505805969E-08  0.10566000000E+00  0.10566000000E+00 0. -1.
     999900   -1    0    0    0    0 -0.00000000000E+00 -0.00000000000E+00 -0.74505805969E-08  0.93827000000E+00  0.93827000000E+00 0.  1.
     999902    2    1    2    0    0  0.11560621875E-02  0.13829489744E-01  0.19427109093E-01  0.10200552469E+01  0.10197758101E+01 0.  0.
     999903    2    3    3    0    0  0.30457583319E-01  0.96894115529E-01  0.83906407497E-01  0.13331070022E+00  0.20379488930E-01 0.  0.
         14    1    1    2    0    0 -0.11560621875E-02 -0.13829489744E-01 -0.19427109093E-01  0.23874753068E-01  0.00000000000E+00 0.  1.
     999901    1    3    3    0    0 -0.29301521131E-01 -0.83064625785E-01 -0.64479298404E-01  0.88674454671E+00  0.88000000000E+00 0.  1.
        -11    1    4    4    0    0  0.17182003727E-01  0.27856336151E-01  0.33241265720E-01  0.46652326668E-01  0.51100000000E-03 0. -1.
         11    1    4    4    0    0  0.13275579592E-01  0.69037779377E-01  0.50665141777E-01  0.86658373554E-01  0.51100000000E-03 0.  1.
</event>
<event>
 8    1  0.1063984E+005  0.1043930E+01  0.7957747E-01            NaN
         13   -1    0    0    0    0  0.00000000000E+00  0.00000000000E+00  0.74505805969E-08  0.10566000000E+00  0.10566000000E+00 0. -1.
     999900   -1    0    0    0    0 -0.00000000000E+00 -0.00000000000E+00 -0.74505805969E-08  0.93827000000E+00  0.93827000000E+00 0. -1.
     999902    2    1    2    0    0  0.98432306291E-02  0.19704951070E-01  0.53746425945E-02  0.10212570851E+01  0.10210053736E+01 0.  0.
     999903    2    3    3    0    0 -0.12205154558E+00  0.43390084350E-01  0.40539763262E-02  0.13111161292E+00  0.19863059159E-01 0.  0.
         14    1    1    2    0    0 -0.98432306291E-02 -0.19704951070E-01 -0.53746425945E-02  0.22672914874E-01  0.00000000000E+00 0.  1.
     999901    1    3    3    0    0  0.13189477621E+00 -0.23685133280E-01  0.13206662683E-02  0.89014547221E+00  0.88000000000E+00 0. -1.
        -11    1    4    4    0    0 -0.79525280508E-01  0.22564309343E-01 -0.53240814657E-02  0.82837342186E-01  0.51100000000E-03 0. -1.
         11    1    4    4    0    0 -0.42526265075E-01  0.20825775007E-01  0.93780577919E-02  0.48274270733E-01  0.51100000000E-03 0.  1.
</event>
<event>
 8    1  0.1063984E+005  0.1043930E+01  0.7957747E-01            NaN
         13   -1    0    0    0    0  0.00000000000E+00  0.00000000000E+00  0.74505805969E-08  0.10566000000E+00  0.10566000000E+00 0. -1.
     999900   -1    0    0    0    0 -0.00000000000E+00 -0.00000000000E+00 -0.74505805969E-08  0.93827000000E+00  0.93827000000E+00 0. -1.
     999902    2    1    2    0    0 -0.28193204557E-02 -0.60389163367E-02 -0.23124438872E-01  0.10198643242E+01  0.10195803465E+01 0.  0.
     999903    2    3    3    0    0 -0.96077577505E-01 -0.39081658528E-01  0.73975022271E-01  0.12901235520E+00  0.20337328792E-01 0.  0.
         14    1    1    2    0    0  0.28193204557E-02  0.60389163367E-02  0.23124438872E-01  0.24065675796E-01  0.00000000000E+00 0. -1.
     999901    1    3    3    0    0  0.93258257050E-01  0.33042742191E-01 -0.97099461143E-01  0.89085196900E+00  0.88000000000E+00 0. -1.
        -11    1    4    4    0    0 -0.68880970044E-01 -0.20229643510E-01  0.57840670114E-01  0.92193442017E-01  0.51100000000E-03 0. -1.
         11    1    4    4    0    0 -0.27196607461E-01 -0.18852015018E-01  0.16134352157E-01  0.36818913186E-01  0.51100000000E-03 0.  1.
</event>
<event>
 8    1  0.1063984E+005  0.1043930E+01  0.7957747E-01            NaN
         13   -1    0    0    0    0  0.00000000000E+00  0.00000000000E+00  0.74505805969E-08  0.10566000000E+00  0.10566000000E+00 0.  1.
     999900   -1    0    0    0    0 -0.00000000000E+00 -0.00000000000E+00 -0.74505805969E-08  0.93827000000E+00  0.93827000000E+00 0.  1.
     999902    2    1    2    0    0 -0.20722986139E-01  0.83472949029E-02 -0.83009296458E-02  0.10200967266E+01  0.10198182714E+01 0.  0.
     999903    2    3    3    0    0  0.59687197141E-01  0.21728086204E-01  0.10984222194E+00  0.12846751702E+00  0.20097710706E-01 0.  0.
         14    1    1    2    0    0  0.20722986139E-01 -0.83472949029E-02  0.83009296458E-02  0.23833273374E-01  0.00000000000E+00 0. -1.
     999901    1    3    3    0    0 -0.80410183280E-01 -0.13380791301E-01 -0.11814315159E+00  0.89162920960E+00  0.88000000000E+00 0.  1.
        -11    1    4    4    0    0  0.49208661119E-01  0.20023363683E-01  0.74099470945E-01  0.91177958617E-01  0.51100000000E-03 0. -1.
         11    1    4    4    0    0  0.10478536022E-01  0.17047225208E-02  0.35742751000E-01  0.37289558406E-01  0.51100000000E-03 0.  1.
</event>
<event>
 8    1  0.1065748E+005  0.1043930E+01  0.7957747E-01            NaN
         13   -1    0    0    0    0  0.00000000000E+00  0.00000000000E+00  0.74505805969E-08  0.10566000000E+00  0.10566000000E+00 0.  1.
     999900   -1    0    0    0    0 -0.00000000000E+00 -0.00000000000E+00 -0.74505805969E-08  0.93827000000E+00  0.93827000000E+00 0.  1.
     999902    2    1    2    0    0  0.17627437881E-01 -0.16295406939E-01  0.39357495768E-02  0.10196039445E+01  0.10193137135E+01 0.  0.
     999903    2    3    3    0    0 -0.10670585729E-01  0.30684083426E-02 -0.12724088325E+00  0.12922029429E+00  0.19605243063E-01 0.  0.
         14    1    1    2    0    0 -0.17627437881E-01  0.16295406939E-01 -0.39357495768E-02  0.24326055543E-01  0.00000000000E+00 0. -1.
     999901    1    3    3    0    0  0.28298023609E-01 -0.19363815282E-01  0.13117663283E+00  0.89038365017E+00  0.88000000000E+00 0. -1.
        -11    1    4    4    0    0  0.10355411169E-02  0.91900170007E-02 -0.48292694818E-01  0.49172901599E-01  0.51100000000E-03 0. -1.
         11    1    4    4    0    0 -0.11706126846E-01 -0.61216086581E-02 -0.78948188437E-01  0.80047392691E-01  0.51100000000E-03 0.  1.
</event>
<event>
 8    1  0.1063984E+005  0.1043930E+01  0.7957747E-01            NaN
         13   -1    0    0    0    0  0.00000000000E+00  0.00000000000E+00  0.74505805969E-08  0.10566000000E+00  0.10566000000E+00 0.  1.
     999900   -1    0    0    0    0 -0.00000000000E+00 -0.00000000000E+00 -0.74505805969E-08  0.93827000000E+00  0.93827000000E+00 0. -1.
     999902    2    1    2    0    0  0.19102612741E-01 -0.76036371077E-02  0.10723851112E-01  0.10207410782E+01  0.10204776444E+01 0.  0.
     999903    2    3    3    0    0  0.14648138077E-01  0.11112555874E+00 -0.62202950417E-01  0.12976701424E+00  0.20169610556E-01 0.  0.
         14    1    1    2    0    0 -0.19102612741E-01  0.76036371077E-02 -0.10723851112E-01  0.23188921784E-01  0.00000000000E+00 0. -1.
     999901    1    3    3    0    0  0.44544746641E-02 -0.11872919585E+00  0.72926801530E-01  0.89097406397E+00  0.88000000000E+00 0.  1.
        -11    1    4    4    0    0  0.85592376293E-02  0.71997998656E-01 -0.50881990059E-01  0.88578837161E-01  0.51100000000E-03 0. -1.
         11    1    4    4    0    0  0.60889004477E-02  0.39127560086E-01 -0.11320960358E-01  0.41188177083E-01  0.51100000000E-03 0.  1.
</event>
<event>
 8    1  0.1063984E+005  0.1043930E+01  0.7957747E-01            NaN
         13   -1    0    0    0    0  0.00000000000E+00  0.00000000000E+00  0.74505805969E-08  0.10566000000E+00  0.10566000000E+00 0.  1.
     999900   -1    0    0    0    0 -0.00000000000E+00 -0.00000000000E+00 -0.74505805969E-08  0.93827000000E+00  0.93827000000E+00 0. -1.
     999902    2    1    2    0    0 -0.53593124974E-02  0.22414394347E-01  0.41989567993E-02  0.10205044041E+01  0.10202355024E+01 0.  0.
     999903    2    3    3    0    0 -0.67808087431E-01  0.10284713291E+00  0.47630070321E-01  0.13356836553E+00  0.19910178325E-01 0.  0.
         14    1    1    2    0    0  0.53593124974E-02 -0.22414394347E-01 -0.41989567993E-02  0.23425595885E-01  0.00000000000E+00 0. -1.
     999901    1    3    3    0    0  0.62448774934E-01 -0.80432738568E-01 -0.43431113522E-01  0.88693603859E+00  0.88000000000E+00 0. -1.
        -11    1    4    4    0    0 -0.47101365088E-01  0.71335785137E-01  0.22987961034E-01  0.88521411578E-01  0.51100000000E-03 0. -1.
         11    1    4    4    0    0 -0.20706722342E-01  0.31511347777E-01  0.24642109287E-01  0.45046953949E-01  0.51100000000E-03 0.  1.
</event>
<event>
 8    1  0.1063984E+005  0.1043930E+01  0.7957747E-01            NaN
         13   -1    0    0    0    0  0.00000000000E+00  0.00000000000E+00  0.74505805969E-08  0.10566000000E+00  0.10566000000E+00 0. -1.
     999900   -1    0    0    0    0 -0.00000000000E+00 -0.00000000000E+00 -0.74505805969E-08  0.93827000000E+00  0.93827000000E+00 0. -1.
     999902    2    1    2    0    0 -0.50275112755E-02 -0.15504164767E-01 -0.16451391175E-01  0.10207717776E+01  0.10205090488E+01 0.  0.
     999903    2    3    3    0    0 -0.12017878757E+00 -0.51794364932E-01 -0.47347824807E-02  0.13245084796E+00  0.19879933109E-01 0.  0.
         14    1    1    2    0    0  0.50275112755E-02  0.15504164767E-01  0.16451391175E-01  0.23158222435E-01  0.00000000000E+00 0. -1.
     999901    1    3    3    0    0  0.11515127629E+00  0.36290200165E-01 -0.11716608694E-01  0.88832092961E+00  0.88000000000E+00 0. -1.
        -11    1    4    4    0    0 -0.53428804081E-01 -0.18568318979E-01  0.68984082105E-02  0.56984811415E-01  0.51100000000E-03 0. -1.
         11    1    4    4    0    0 -0.66749983484E-01 -0.33226045953E-01 -0.11633190691E-01  0.75466036543E-01  0.51100000000E-03 0.  1.
</event>
<event>
 8    1  0.1063984E+005  0.1043930E+01  0.7957747E-01            NaN
         13   -1    0    0    0    0  0.00000000000E+00  0.00000000000E+00  0.74505805969E-08  0.10566000000E+00  0.10566000000E+00 0.  1.
     999900   -1    0    0    0    0 -0.00000000000E+00 -0.00000000000E+00 -0.74505805969E-08  0.93827000000E+00  0.93827000000E+00 0. -1.
     999902    2    1    2    0    0 -0.20241185177E-01 -0.13815031730E-01  0.86765995717E-03  0.10194083053E+01  0.10191133300E+01 0.  0.
     999903    2    3    3    0    0 -0.29770709882E-01  0.19576378616E-01 -0.12343969001E+00  0.12999382630E+00  0.19786562136E-01 0.  0.
         14    1    1    2    0    0  0.20241185177E-01  0.13815031730E-01 -0.86765995717E-03  0.24521694739E-01  0.00000000000E+00 0. -1.
     999901    1    3    3    0    0  0.95295247050E-02 -0.33391410346E-01  0.12430734996E+00  0.88941447896E+00  0.88000000000E+00 0.  1.
        -11    1    4    4    0    0 -0.22419410780E-01  0.34517758570E-02 -0.77459284445E-01  0.80713980227E-01  0.51100000000E-03 0.  1.
         11    1    4    4    0    0 -0.73512991013E-02  0.16124602759E-01 -0.45980405562E-01  0.49279846076E-01  0.51100000000E-03 0. -1.
</event>
<event>
 8    1  0.1063984E+005  0.1043930E+01  0.7957747E-01            NaN
         13   -1    0    0    0    0  0.00000000000E+00  0.00000000000E+00  0.74505805969E-08  0.10566000000E+00  0.10566000000E+00 0. -1.
     999900   -1    0    0    0    0 -0.00000000000E+00 -0.00000000000E+00 -0.74505805969E-08  0.93827000000E+00  0.93827000000E+00 0. -1.
     999902    2    1    2    0    0 -0.25938964904E-01  0.16472844922E-02  0.60169206278E-02  0.10172514172E+01  0.10169015188E+01 0.  0.
     999903    2    3    3    0    0  0.23910998987E-01 -0.66276043899E-03  0.12381751350E+00  0.12800042063E+00  0.21935266316E-01 0.  0.
         14    1    1    2    0    0  0.25938964904E-01 -0.16472844922E-02 -0.60169206278E-02  0.26678582802E-01  0.00000000000E+00 0. -1.
     999901    1    3    3    0    0 -0.49849963891E-01  0.23100449312E-02 -0.11780059288E+00  0.88925099656E+00  0.88000000000E+00 0.  1.
        -11    1    4    4    0    0  0.17664649425E-03  0.67059137274E-02  0.40463924941E-01  0.41019395724E-01  0.51100000000E-03 0.  1.
         11    1    4    4    0    0  0.23734352492E-01 -0.73686741663E-02  0.83353588563E-01  0.86981024910E-01  0.51100000000E-03 0. -1.
</event>
<event>
 8    1  0.1063984E+005  0.1043930E+01  0.7957747E-01            NaN
         13   -1    0    0    0    0  0.00000000000E+00  0.00000000000E+00  0.74505805969E-08  0.10566000000E+00  0.10566000000E+00 0. -1.
     999900   -1    0    0    0    0 -0.00000000000E+00 -0.00000000000E+00 -0.74505805969E-08  0.93827000000E+00  0.93827000000E+00 0.  1.
     999902    2    1    2    0    0 -0.14526516485E-01  0.17070529207E-01  0.12039341700E-01  0.10184865648E+01  0.10181687062E+01 0.  0.
     999903    2    3    3    0    0  0.96150441008E-01  0.15047983207E-01  0.82126631588E-01  0.12878677954E+00  0.19232832929E-01 0.  0.
         14    1    1    2    0    0  0.14526516485E-01 -0.17070529207E-01 -0.12039341700E-01  0.25443435247E-01  0.00000000000E+00 0.  1.
     999901    1    3    3    0    0 -0.11067695749E+00  0.20225459996E-02 -0.70087289888E-01  0.88969978522E+00  0.88000000000E+00 0. -1.
        -11    1    4    4    0    0  0.42197110217E-01  0.25925210751E-02  0.46961693030E-01  0.63190023022E-01  0.51100000000E-03 0. -1.
         11    1    4    4    0    0  0.53953330791E-01  0.12455462132E-01  0.35164938558E-01  0.65596756514E-01  0.51100000000E-03 0.  1.
</event>
<event>
 8    1  0.1063984E+005  0.1043930E+01  0.7957747E-01            NaN
         13   -1    0    0    0    0  0.00000000000E+00  0.00000000000E+00  0.74505805969E-08  0.10566000000E+00  0.10566000000E+00 0. -1.
     999900   -1    0    0    0    0 -0.00000000000E+00 -0.00000000000E+00 -0.74505805969E-08  0.93827000000E+00  0.93827000000E+00 0. -1.
     999902    2    1    2    0    0  0.39992065250E-02 -0.20654313638E-01  0.97777702167E-02  0.10207308812E+01  0.10204672129E+01 0.  0.
     999903    2    3    3    0    0  0.11350257291E-01  0.94693357987E-01 -0.83396346696E-01  0.12829570740E+00  0.20228136532E-01 0.  0.
         14    1    1    2    0    0 -0.39992065250E-02  0.20654313638E-01 -0.97777702167E-02  0.23199118844E-01  0.00000000000E+00 0.  1.
     999901    1    3    3    0    0 -0.73510507664E-02 -0.11534767163E+00  0.93174116912E-01  0.89243517376E+00  0.88000000000E+00 0. -1.
        -11    1    4    4    0    0 -0.33530505112E-02  0.53276635242E-01 -0.42114441389E-01  0.67996544801E-01  0.51100000000E-03 0.  1.
         11    1    4    4    0    0  0.14703307803E-01  0.41416722745E-01 -0.41281905307E-01  0.60299162598E-01  0.51100000000E-03 0. -1.
</event>
<event>
 8    1  0.1063984E+005  0.1043930E+01  0.7957747E-01            NaN
         13   -1    0    0    0    0  0.00000000000E+00  0.00000000000E+00  0.74505805969E-08  0.10566000000E+00  0.10566000000E+00 0.  1.
     999900   -1    0    0    0    0 -0.00000000000E+00 -0.00000000000E+00 -0.74505805969E-08  0.93827000000E+00  0.93827000000E+00 0.  1.
     999902    2    1    2    0    0 -0.42173104750E-02  0.13035806707E-01 -0.18015749697E-01  0.10212962818E+01  0.10210454495E+01 0.  0.
     999903    2    3    3    0    0 -0.40365856542E-01 -0.12089583073E+00 -0.18289774792E-01  0.13042902118E+00  0.20784836829E-01 0.  0.
         14    1    1    2    0    0  0.42173104750E-02 -0.13035806707E-01  0.18015749697E-01  0.22633718238E-01  0.00000000000E+00 0.  1.
     999901    1    3    3    0    0  0.36148546067E-01  0.13393163744E+00  0.27402509531E-03  0.89086726058E+00  0.88000000000E+00 0. -1.
        -11    1    4    4    0    0 -0.20209696736E-01 -0.89731929648E-01 -0.11530607444E-01  0.92700955062E-01  0.51100000000E-03 0.  1.
         11    1    4    4    0    0 -0.20156159806E-01 -0.31163901081E-01 -0.67591673480E-02  0.37728066117E-01  0.51100000000E-03 0. -1.
</event>
<event>
 8    1  0.1063984E+005  0.1043930E+01  0.7957747E-01            NaN
         13   -1    0    0    0    0  0.00000000000E+00  0.00000000000E+00  0.74505805969E-08  0.10566000000E+00  0.10566000000E+00 0.  1.
     999900   -1    0    0    0    0 -0.00000000000E+00 -0.00000000000E+00 -0.74505805969E-08  0.93827000000E+00  0.93827000000E+00 0.  1.
     999902    2    1    2    0    0 -0.21436553338E-01  0.79217778193E-02  0.26296755441E-02  0.10209257487E+01  0.10206665415E+01 0.  0.
     999903    2    3    3    0    0 -0.89016292754E-01  0.97098689618E-01 -0.11542237327E-01  0.13372769537E+00  0.19945359494E-01 0.  0.
         14    1    1    2    0    0  0.21436553338E-01 -0.79217778193E-02 -0.26296755441E-02  0.23004251266E-01  0.00000000000E+00 0.  1.
     999901    1    3    3    0    0  0.67579739416E-01 -0.89176911799E-01  0.14171912871E-01  0.88719805336E+00  0.88000000000E+00 0. -1.
        -11    1    4    4    0    0 -0.50759381244E-01  0.41036558812E-01 -0.33347972537E-02  0.65359742481E-01  0.51100000000E-03 0. -1.
         11    1    4    4    0    0 -0.38256911510E-01  0.56062130806E-01 -0.82074400730E-02  0.68367952890E-01  0.51100000000E-03 0.  1.
</event>
<event>
 8    1  0.1063984E+005  0.1043930E+01  0.7957747E-01            NaN
         13   -1    0    0    0    0  0.00000000000E+00  0.00000000000E+00  0.74505805969E-08  0.10566000000E+00  0.10566000000E+00 0.  1.
     999900   -1    0    0    0    0 -0.00000000000E+00 -0.00000000000E+00 -0.74505805969E-08  0.93827000000E+00  0.93827000000E+00 0. -1.
     999902    2    1    2    0    0  0.62844515278E-02 -0.14003704160E-01 -0.19132200253E-01  0.10194016664E+01  0.10191065295E+01 0.  0.
     999903    2    3    3    0    0 -0.45299331469E-01  0.30194264410E-01  0.11298594237E+00  0.12695023879E+00  0.19667661750E-01 0.  0.
         14    1    1    2    0    0 -0.62844515278E-02  0.14003704160E-01  0.19132200253E-01  0.24528333570E-01  0.00000000000E+00 0.  1.
     999901    1    3    3    0    0  0.51583782997E-01 -0.44197968570E-01 -0.13211814263E+00  0.89245142764E+00  0.88000000000E+00 0. -1.
        -11    1    4    4    0    0 -0.33853020010E-01  0.11828496883E-01  0.63300316939E-01  0.72753910877E-01  0.51100000000E-03 0.  1.
         11    1    4    4    0    0 -0.11446311459E-01  0.18365767528E-01  0.49685625435E-01  0.54196327909E-01  0.51100000000E-03 0. -1.
</event>
<event>
 8    1  0.1063984E+005  0.1043930E+01  0.7957747E-01            NaN
         13   -1    0    0    0    0  0.00000000000E+00  0.00000000000E+00  0.74505805969E-08  0.10566000000E+00  0.10566000000E+00 0. -1.
     999900   -1    0    0    0    0 -0.00000000000E+00 -0.00000000000E+00 -0.74505805969E-08  0.93827000000E+00  0.93827000000E+00 0.  1.
     999902    2    1    2    0    0 -0.18164433709E-01 -0.12828728700E-02  0.14322585064E-01  0.10207625906E+01  0.10204996509E+01 0.  0.
     999903    2    3    3    0    0  0.69229103144E-01 -0.91781106287E-02 -0.10591129296E+00  0.12826264636E+00  0.18899683590E-01 0.  0.
         14    1    1    2    0    0  0.18164433709E-01  0.12828728700E-02 -0.14322585064E-01  0.23167409386E-01  0.00000000000E+00 0.  1.
     999901    1    3    3    0    0 -0.87393536853E-01  0.78952377587E-02  0.12023387802E+00  0.89249994425E+00  0.88000000000E+00 0. -1.
        -11    1    4    4    0    0  0.47520810913E-01 -0.14720014570E-01 -0.68665205840E-01  0.84794327127E-01  0.51100000000E-03 0.  1.
         11    1    4    4    0    0  0.21708292231E-01  0.55419039410E-02 -0.37246087116E-01  0.43468319237E-01  0.51100000000E-03 0. -1.
</event>
<event>
 8    1  0.1063984E+005  0.1043930E+01  0.7957747E-01            NaN
         13   -1    0    0    0    0  0.00000000000E+00  0.00000000000E+00  0.74505805969E-08  0.10566000000E+00  0.10566000000E+00 0. -1.
     999900   -1    0    0    0    0 -0.00000000000E+00 -0.00000000000E+00 -0.74505805969E-08  0.93827000000E+00  0.93827000000E+00 0.  1.
     999902    2    1    2    0    0 -0.86270636833E-02 -0.20072804420E-01  0.84385042464E-02  0.10205088118E+01  0.10202400124E+01 0.  0.
     999903    2    3    3    0    0 -0.37237676267E-01  0.11795505254E+00  0.30701294850E-01  0.12901237974E+00  0.20039602417E-01 0.  0.
         14    1    1    2    0    0  0.86270636833E-02  0.20072804420E-01 -0.84385042464E-02  0.23421188249E-01  0.00000000000E+00 0.  1.
     999901    1    3    3    0    0  0.28610612584E-01 -0.13802785696E+00 -0.22262790604E-01  0.89149643202E+00  0.88000000000E+00 0.  1.
        -11    1    4    4    0    0 -0.25754701129E-02  0.31377456065E-01  0.25211553006E-02  0.31587895474E-01  0.51100000000E-03 0.  1.
         11    1    4    4    0    0 -0.34662206154E-01  0.86577596479E-01  0.28180139550E-01  0.97424484261E-01  0.51100000000E-03 0. -1.
</event>
<event>
 8    1  0.1063984E+005  0.1043930E+01  0.7957747E-01            NaN
         13   -1    0    0    0    0  0.00000000000E+00  0.00000000000E+00  0.74505805969E-08  0.10566000000E+00  0.10566000000E+00 0. -1.
     999900   -1    0    0    0    0 -0.00000000000E+00 -0.00000000000E+00 -0.74505805969E-08  0.93827000000E+00  0.93827000000E+00 0. -1.
     999902    2    1    2    0    0 -0.15275062831E-01 -0.32416645776E-02 -0.15360963479E-01  0.10220257736E+01  0.10217910192E+01 0.  0.
     999903    2    3    3    0    0  0.53523873494E-01 -0.95707939959E-01 -0.72052396958E-01  0.13270174700E+00  0.19834085398E-01 0.  0.
         14    1    1    2    0    0  0.15275062831E-01  0.32416645776E-02  0.15360963479E-01  0.21904226367E-01  0.00000000000E+00 0. -1.
     999901    1    3    3    0    0 -0.68798936325E-01  0.92466275382E-01  0.56691433479E-01  0.88932402664E+00  0.88000000000E+00 0.  1.
        -11    1    4    4    0    0  0.35872778888E-02 -0.21760496815E-01 -0.11629921889E-01  0.24938002895E-01  0.51100000000E-03 0. -1.
         11    1    4    4    0    0  0.49936595605E-01 -0.73947443145E-01 -0.60422475069E-01  0.10776374410E+00  0.51100000000E-03 0.  1.
</event>
<event>
 8    1  0.1063984E+005  0.1043930E+01  0.7957747E-01            NaN
         13   -1    0    0    0    0  0.00000000000E+00  0.00000000000E+00  0.74505805969E-08  0.10566000000E+00  0.10566000000E+00 0.  1.
     999900   -1    0    0    0    0 -0.00000000000E+00 -0.00000000000E+00 -0.74505805969E-08  0.93827000000E+00  0.93827000000E+00 0. -1.
     999902    2    1    2    0    0  0.80165548003E-02 -0.21801611263E-01  0.49843213915E-02  0.10201724988E+01  0.10198958321E+01 0.  0.
     999903    2    3    3    0    0 -0.72932197198E-01 -0.68587562499E-01 -0.81975768349E-01  0.13095729261E+00  0.20160029080E-01 0.  0.
         14    1    1    2    0    0 -0.80165548003E-02  0.21801611263E-01 -0.49843213915E-02  0.23757501221E-01  0.00000000000E+00 0. -1.
     999901    1    3    3    0    0  0.80948751998E-01  0.46785951236E-01  0.86960089740E-01  0.88921520617E+00  0.88000000000E+00 0. -1.
        -11    1    4    4    0    0 -0.62107499842E-02 -0.12445624512E-01 -0.54774472231E-02  0.14957624609E-01  0.51100000000E-03 0.  1.
         11    1    4    4    0    0 -0.66721447214E-01 -0.56141937987E-01 -0.76498321126E-01  0.11599966800E+00  0.51100000000E-03 0. -1.
</event>
<event>
 8    1  0.1063984E+005  0.1043930E+01  0.7957747E-01            NaN
         13   -1    0    0    0    0  0.00000000000E+00  0.00000000000E+00  0.74505805969E-08  0.10566000000E+00  0.10566000000E+00 0.  1.
     999900   -1    0    0    0    0 -0.00000000000E+00 -0.00000000000E+00 -0.74505805969E-08  0.93827000000E+00  0.93827000000E+00 0.  1.
     999902    2    1    2    0    0  0.18341223514E-01 -0.46029858832E-02  0.14260986248E-01  0.10202453280E+01  0.10199703749E+01 0.  0.
     999903    2    3    3    0    0 -0.11772828183E+00 -0.33114489248E-01 -0.32473281927E-01  0.12810637698E+00  0.20005300387E-01 0.  0.
         14    1    1    2    0    0 -0.18341223514E-01  0.46029858832E-02 -0.14260986248E-01  0.23684672001E-01  0.00000000000E+00 0. -1.
     999901    1    3    3    0    0  0.13606950534E+00  0.28511503365E-01  0.46734268175E-01  0.89213895102E+00  0.88000000000E+00 0.  1.
        -11    1    4    4    0    0 -0.28713330444E-01 -0.22559325331E-02 -0.14283158836E-01  0.32152983129E-01  0.51100000000E-03 0. -1.
         11    1    4    4    0    0 -0.89014951381E-01 -0.30858556715E-01 -0.18190123091E-01  0.95953393848E-01  0.51100000000E-03 0.  1.
</event>
<event>
 8    1  0.1063984E+005  0.1043930E+01  0.7957747E-01            NaN
         13   -1    0    0    0    0  0.00000000000E+00  0.00000000000E+00  0.74505805969E-08  0.10566000000E+00  0.10566000000E+00 0. -1.
     999900   -1    0    0    0    0 -0.00000000000E+00 -0.00000000000E+00 -0.74505805969E-08  0.93827000000E+00  0.93827000000E+00 0. -1.
     999902    2    1    2    0    0  0.19059036549E-01 -0.91929726539E-02 -0.15232809837E-01  0.10178571000E+01  0.10175231102E+01 0.  0.
     999903    2    3    3    0    0  0.10234573946E+00 -0.35773210694E-01  0.68249173553E-01  0.12959338604E+00  0.19547967294E-01 0.  0.
         14    1    1    2    0    0 -0.19059036549E-01  0.91929726539E-02  0.15232809837E-01  0.26072900029E-01  0.00000000000E+00 0. -1.
     999901    1    3    3    0    0 -0.83286702912E-01  0.26580238040E-01 -0.83481983390E-01  0.88826371393E+00  0.88000000000E+00 0. -1.
        -11    1    4    4    0    0  0.32067461248E-01 -0.18555113414E-01  0.30436242980E-01  0.47950394289E-01  0.51100000000E-03 0.  1.
         11    1    4    4    0    0  0.70278278213E-01 -0.17218097280E-01  0.37812930573E-01  0.81642991751E-01  0.51100000000E-03 0. -1.
</event>
<event>
 8    1  0.1063984E+005  0.1043930E+01  0.7957747E-01            NaN
         13   -1    0    0    0    0  0.00000000000E+00  0.00000000000E+00  0.74505805969E-08  0.10566000000E+00  0.10566000000E+00 0. -1.
     999900   -1    0    0    0    0 -0.00000000000E+00 -0.00000000000E+00 -0.74505805969E-08  0.93827000000E+00  0.93827000000E+00 0. -1.
     999902    2    1    2    0    0 -0.10800905045E-01  0.20755745021E-01 -0.31490248040E-02  0.10203211699E+01  0.10200479954E+01 0.  0.
     999903    2    3    3    0    0 -0.71676950619E-01 -0.25814861461E-01  0.10396075150E+00  0.13051938384E+00  0.20578614677E-01 0.  0.
         14    1    1    2    0    0  0.10800905045E-01 -0.20755745021E-01  0.31490248040E-02  0.23608830093E-01  0.00000000000E+00 0. -1.
     999901    1    3    3    0    0  0.60876045573E-01  0.46570606481E-01 -0.10710977631E+00  0.88980178607E+00  0.88000000000E+00 0. -1.
        -11    1    4    4    0    0 -0.58424817227E-01 -0.11804995575E-01  0.79634925042E-01  0.99472607264E-01  0.51100000000E-03 0. -1.
         11    1    4    4    0    0 -0.13252133392E-01 -0.14009865886E-01  0.24325826461E-01  0.31046776573E-01  0.51100000000E-03 0.  1.
</event>
<event>
 8    1  0.1063984E+005  0.1043930E+01  0.7957747E-01            NaN
         13   -1    0    0    0    0  0.00000000000E+00  0.00000000000E+00  0.74505805969E-08  0.10566000000E+00  0.10566000000E+00 0.  1.
     999900   -1    0    0    0    0 -0.00000000000E+00 -0.00000000000E+00 -0.74505805969E-08  0.93827000000E+00  0.93827000000E+00 0. -1.
     999902    2    1    2    0    0 -0.81298158169E-02 -0.23799400418E-01 -0.44432187918E-02  0.10183908622E+01  0.10180705775E+01 0.  0.
     999903    2    3    3    0    0  0.13343332631E-01 -0.66656398342E-01 -0.10983296301E+00  0.13080716669E+00  0.20642556231E-01 0.  0.
         14    1    1    2    0    0  0.81298158169E-02  0.23799400418E-01  0.44432187918E-02  0.25539137783E-01  0.00000000000E+00 0. -1.
     999901    1    3    3    0    0 -0.21473148447E-01  0.42856997924E-01  0.10538974422E+00  0.88758369553E+00  0.88000000000E+00 0.  1.
        -11    1    4    4    0    0  0.46121190498E-02 -0.33906418022E-02 -0.18400611721E-01  0.19277233377E-01  0.51100000000E-03 0. -1.
         11    1    4    4    0    0  0.87312135807E-02 -0.63265756540E-01 -0.91432351294E-01  0.11152993331E+00  0.51100000000E-03 0.  1.
</event>
<event>
 8    1  0.1063984E+005  0.1043930E+01  0.7957747E-01            NaN
         13   -1    0    0    0    0  0.00000000000E+00  0.00000000000E+00  0.74505805969E-08  0.10566000000E+00  0.10566000000E+00 0.  1.
     999900   -1    0    0    0    0 -0.00000000000E+00 -0.00000000000E+00 -0.74505805969E-08  0.93827000000E+00  0.93827000000E+00 0.  1.
     999902    2    1    2    0    0 -0.59198934416E-02  0.91791709909E-02 -0.20564543957E-01  0.10206447517E+01  0.10203790994E+01 0.  0.
     999903    2    3    3    0    0 -0.44134988398E-01  0.77725310319E-01 -0.97164351092E-01  0.13383784088E+00  0.21966689836E-01 0.  0.
         14    1    1    2    0    0  0.59198934416E-02 -0.91791709909E-02  0.20564543957E-01  0.23285248261E-01  0.00000000000E+00 0.  1.
     999901    1    3    3    0    0  0.38215094956E-01 -0.68546139329E-01  0.76599807135E-01  0.88680691086E+00  0.88000000000E+00 0. -1.
        -11    1    4    4    0    0 -0.17492554196E-01  0.24755640992E-01 -0.48189955583E-01  0.56932979488E-01  0.51100000000E-03 0. -1.
         11    1    4    4    0    0 -0.26642434202E-01  0.52969669328E-01 -0.48974395509E-01  0.76904861389E-01  0.51100000000E-03 0.  1.
</event>
<event>
 8    1  0.1063984E+005  0.1043930E+01  0.7957747E-01            NaN
         13   -1    0    0    0    0  0.00000000000E+00  0.00000000000E+00  0.74505805969E-08  0.10566000000E+00  0.10566000000E+00 0.  1.
     999900   -1    0    0    0    0 -0.00000000000E+00 -0.00000000000E+00 -0.74505805969E-08  0.93827000000E+00  0.93827000000E+00 0. -1.
     999902    2    1    2    0    0 -0.14028952169E-01 -0.14308571554E-01 -0.12185538506E-01  0.10204771949E+01  0.10202076608E+01 0.  0.
     999903    2    3    3    0    0  0.12036209967E-01  0.43978010918E-01 -0.12176962013E+00  0.13138474226E+00  0.18846069058E-01 0.  0.
         14    1    1    2    0    0  0.14028952169E-01  0.14308571554E-01  0.12185538506E-01  0.23452805110E-01  0.00000000000E+00 0. -1.
     999901    1    3    3    0    0 -0.26065162136E-01 -0.58286582472E-01  0.10958408162E+00  0.88909245263E+00  0.88000000000E+00 0.  1.
        -11    1    4    4    0    0  0.13785038454E-01  0.40409644002E-01 -0.92956297712E-01  0.10229418859E+00  0.51100000000E-03 0.  1.
         11    1    4    4    0    0 -0.17488284862E-02  0.35683669157E-02 -0.28813322415E-01  0.29090553675E-01  0.51100000000E-03 0. -1.
</event>
<event>
 8    1  0.1063984E+005  0.1043930E+01  0.7957747E-01            NaN
         13   -1    0    0    0    0  0.00000000000E+00  0.00000000000E+00  0.74505805969E-08  0.10566000000E+00  0.10566000000E+00 0. -1.
     999900   -1    0    0    0    0 -0.00000000000E+00 -0.00000000000E+00 -0.74505805969E-08  0.93827000000E+00  0.93827000000E+00 0.  1.
     999902    2    1    2    0    0  0.10863937313E-01  0.20024818218E-01 -0.92495757967E-02  0.10193419311E+01  0.10190453373E+01 0.  0.
     999903    2    3    3    0    0 -0.64643957803E-01 -0.13092764107E-01  0.10791674504E+00  0.12775561269E+00  0.18033606440E-01 0.  0.
         14    1    1    2    0    0 -0.10863937313E-01 -0.20024818218E-01  0.92495757967E-02  0.24588068876E-01  0.00000000000E+00 0. -1.
     999901    1    3    3    0    0  0.75507895117E-01  0.33117582326E-01 -0.11716632084E+00  0.89158631844E+00  0.88000000000E+00 0.  1.
        -11    1    4    4    0    0 -0.43593347917E-01 -0.16396231748E-01  0.66692481040E-01  0.81347185240E-01  0.51100000000E-03 0.  1.
         11    1    4    4    0    0 -0.21050609886E-01  0.33034676408E-02  0.41224263998E-01  0.46408427448E-01  0.51100000000E-03 0. -1.
</event>
<event>
 8    1  0.1063984E+005  0.1043930E+01  0.7957747E-01            NaN
         13   -1    0    0    0    0  0.00000000000E+00  0.00000000000E+00  0.74505805969E-08  0.10566000000E+00  0.10566000000E+00 0. -1.
     999900   -1    0    0    0    0 -0.00000000000E+00 -0.00000000000E+00 -0.74505805969E-08  0.93827000000E+00  0.93827000000E+00 0. -1.
     999902    2    1    2    0    0  0.18474295394E-01 -0.60993010138E-02 -0.49319859175E-02  0.10238594856E+01  0.10236627475E+01 0.  0.
     999903    2    3    3    0    0 -0.63378319053E-01  0.88768306224E-01  0.71148017324E-01  0.13173400099E+00  0.19879213578E-01 0.  0.
         14    1    1    2    0    0 -0.18474295394E-01  0.60993010138E-02  0.49319859175E-02  0.20070514399E-01  0.00000000000E+00 0. -1.
     999901    1    3    3    0    0  0.81852614447E-01 -0.94867607238E-01 -0.76080003242E-01  0.89212548461E+00  0.88000000000E+00 0.  1.
        -11    1    4    4    0    0 -0.21193698390E-01  0.20474868768E-01  0.11129976640E-01  0.31504453709E-01  0.51100000000E-03 0. -1.
         11    1    4    4    0    0 -0.42184620663E-01  0.68293437455E-01  0.60018040685E-01  0.10022954728E+00  0.51100000000E-03 0.  1.
</event>
<event>
 8    1  0.1063984E+005  0.1043930E+01  0.7957747E-01            NaN
         13   -1    0    0    0    0  0.00000000000E+00  0.00000000000E+00  0.74505805969E-08  0.10566000000E+00  0.10566000000E+00 0.  1.
     999900   -1    0    0    0    0 -0.00000000000E+00 -0.00000000000E+00 -0.74505805969E-08  0.93827000000E+00  0.93827000000E+00 0. -1.
     999902    2    1    2    0    0  0.60300194023E-02 -0.22687194147E-01 -0.11019721939E-02  0.10204292712E+01  0.10201586216E+01 0.  0.
     999903    2    3    3    0    0  0.60064361574E-01  0.85282761783E-01  0.73582905867E-01  0.12905109525E+00  0.18943710320E-01 0.  0.
         14    1    1    2    0    0 -0.60300194023E-02  0.22687194147E-01  0.11019721939E-02  0.23500728818E-01  0.00000000000E+00 0. -1.
     999901    1    3    3    0    0 -0.54034342172E-01 -0.10796995593E+00 -0.74684878061E-01  0.89137817593E+00  0.88000000000E+00 0. -1.
        -11    1    4    4    0    0  0.40746949770E-01  0.65045484904E-01  0.44637635918E-01  0.88791940419E-01  0.51100000000E-03 0.  1.
         11    1    4    4    0    0  0.19317411804E-01  0.20237276878E-01  0.28945269949E-01  0.40259154831E-01  0.51100000000E-03 0. -1.
</event>
<event>
 8    1  0.1063984E+005  0.1043930E+01  0.7957747E-01            NaN
         13   -1    0    0    0    0  0.00000000000E+00  0.00000000000E+00  0.74505805969E-08  0.10566000000E+00  0.10566000000E+00 0. -1.
     999900   -1    0    0    0    0 -0.00000000000E+00 -0.00000000000E+00 -0.74505805969E-08  0.93827000000E+00  0.93827000000E+00 0.  1.
     999902    2    1    2    0    0  0.20117684181E-01 -0.60570883754E-03 -0.16715721090E-01  0.10177669835E+01  0.10174306509E+01 0.  0.
     999903    2    3    3    0    0  0.72499954935E-01 -0.94501395375E-01  0.45372534217E-01  0.12905147578E+00  0.20220270694E-01 0.  0.
         14    1    1    2    0    0 -0.20117684181E-01  0.60570883754E-03  0.16715721090E-01  0.26163016484E-01  0.00000000000E+00 0. -1.
     999901    1    3    3    0    0 -0.52382270754E-01  0.93895686537E-01 -0.62088255307E-01  0.88871550773E+00  0.88000000000E+00 0.  1.
        -11    1    4    4    0    0  0.71627482530E-01 -0.84753458428E-01  0.42629013464E-01  0.11887446689E+00  0.51100000000E-03 0.  1.
         11    1    4    4    0    0  0.87247240447E-03 -0.97479369462E-02  0.27435207533E-02  0.10177008889E-01  0.51100000000E-03 0. -1.
</event>
<event>
 8    1  0.1063984E+005  0.1043930E+01  0.7957747E-01            NaN
         13   -1    0    0    0    0  0.00000000000E+00  0.00000000000E+00  0.74505805969E-08  0.10566000000E+00  0.10566000000E+00 0. -1.
     999900   -1    0    0    0    0 -0.00000000000E+00 -0.00000000000E+00 -0.74505805969E-08  0.93827000000E+00  0.93827000000E+00 0. -1.
     999902    2    1    2    0    0 -0.36814630882E-02 -0.23292655379E-01  0.16260318844E-01  0.10152856474E+01  0.10148814940E+01 0.  0.
     999903    2    3    3    0    0  0.17345966431E-01  0.11383388112E+00 -0.36708210422E-01  0.12284433009E+00  0.22004583193E-01 0.  0.
         14    1    1    2    0    0  0.36814630882E-02  0.23292655379E-01 -0.16260318844E-01  0.28644352567E-01  0.00000000000E+00 0.  1.
     999901    1    3    3    0    0 -0.21027429519E-01 -0.13712653650E+00  0.52968529266E-01  0.89244131734E+00  0.88000000000E+00 0.  1.
        -11    1    4    4    0    0 -0.40342566519E-02  0.34327833571E-01 -0.15112654305E-01  0.37727030436E-01  0.51100000000E-03 0. -1.
         11    1    4    4    0    0  0.21380223083E-01  0.79506047548E-01 -0.21595556118E-01  0.85117299656E-01  0.51100000000E-03 0.  1.
</event>
<event>
 8    1  0.1063984E+005  0.1043930E+01  0.7957747E-01            NaN
         13   -1    0    0    0    0  0.00000000000E+00  0.00000000000E+00  0.74505805969E-08  0.10566000000E+00  0.10566000000E+00 0.  1.
     999900   -1    0    0    0    0 -0.00000000000E+00 -0.00000000000E+00 -0.74505805969E-08  0.93827000000E+00  0.93827000000E+00 0. -1.
     999902    2    1    2    0    0 -0.21958236260E-01  0.50021274074E-02  0.73753150222E-02  0.10202323062E+01  0.10199570471E+01 0.  0.
     999903    2    3    3    0    0 -0.36452090189E-01  0.41953953494E-01  0.11846202628E+00  0.13236082529E+00  0.19931063901E-01 0.  0.
         14    1    1    2    0    0  0.21958236260E-01 -0.50021274074E-02 -0.73753150222E-02  0.23697693768E-01  0.00000000000E+00 0. -1.
     999901    1    3    3    0    0  0.14493853929E-01 -0.36951826086E-01 -0.11108671126E+00  0.88787148094E+00  0.88000000000E+00 0. -1.
        -11    1    4    4    0    0 -0.16140631289E-01  0.21581379240E-01  0.35651285266E-01  0.44693972417E-01  0.51100000000E-03 0. -1.
         11    1    4    4    0    0 -0.20311458900E-01  0.20372574254E-01  0.82810741013E-01  0.87666852872E-01  0.51100000000E-03 0.  1.
</event>
<event>
 8    1  0.1063984E+005  0.1043930E+01  0.7957747E-01            NaN
         13   -1    0    0    0    0  0.00000000000E+00  0.00000000000E+00  0.74505805969E-08  0.10566000000E+00  0.10566000000E+00 0.  1.
     999900   -1    0    0    0    0 -0.00000000000E+00 -0.00000000000E+00 -0.74505805969E-08  0.93827000000E+00  0.93827000000E+00 0. -1.
     999902    2    1    2    0    0  0.51654168640E-02  0.50512955087E-03 -0.20175162299E-01  0.10230979607E+01  0.10228858506E+01 0.  0.
     999903    2    3    3    0    0 -0.12342254230E+00  0.41735674723E-01 -0.15455476889E-01  0.13278504014E+00  0.20445161451E-01 0.  0.
         14    1    1    2    0    0 -0.51654168640E-02 -0.50512955087E-03  0.20175162299E-01  0.20832039291E-01  0.00000000000E+00 0.  1.
     999901    1    3    3    0    0  0.12858795917E+00 -0.41230545172E-01 -0.47196854103E-02  0.89031292057E+00  0.88000000000E+00 0. -1.
        -11    1    4    4    0    0 -0.80613196515E-01  0.16836773001E-01 -0.93047330749E-02  0.82878245372E-01  0.51100000000E-03 0.  1.
         11    1    4    4    0    0 -0.42809345787E-01  0.24898901722E-01 -0.61507438136E-02  0.49906794770E-01  0.51100000000E-03 0. -1.
</event>
<event>
 8    1  0.1063984E+005  0.1043930E+01  0.7957747E-01            NaN
         13   -1    0    0    0    0  0.00000000000E+00  0.00000000000E+00  0.74505805969E-08  0.10566000000E+00  0.10566000000E+00 0.  1.
     999900   -1    0    0    0    0 -0.00000000000E+00 -0.00000000000E+00 -0.74505805969E-08  0.93827000000E+00  0.93827000000E+00 0.  1.
     999902    2    1    2    0    0  0.18890408654E-01  0.39644954228E-02  0.13185743803E-01  0.10205541877E+01  0.10202864408E+01 0.  0.
     999903    2    3    3    0    0 -0.46303717317E-01 -0.65582396399E-01  0.10155556668E+00  0.13100583607E+00  0.20097537276E-01 0.  0.
         14    1    1    2    0    0 -0.18890408654E-01 -0.39644954228E-02 -0.13185743803E-01  0.23375812344E-01  0.00000000000E+00 0.  1.
     999901    1    3    3    0    0  0.65194125971E-01  0.69546891822E-01 -0.88369822878E-01  0.88954835159E+00  0.88000000000E+00 0. -1.
        -11    1    4    4    0    0 -0.45891596886E-01 -0.52932845525E-01  0.84631628223E-01  0.10986673025E+00  0.51100000000E-03 0. -1.
         11    1    4    4    0    0 -0.41212043029E-03 -0.12649550873E-01  0.16923938457E-01  0.21139105810E-01  0.51100000000E-03 0.  1.
</event>
<event>
 8    1  0.1063984E+005  0.1043930E+01  0.7957747E-01            NaN
         13   -1    0    0    0    0  0.00000000000E+00  0.00000000000E+00  0.74505805969E-08  0.10566000000E+00  0.10566000000E+00 0.  1.
     999900   -1    0    0    0    0 -0.00000000000E+00 -0.00000000000E+00 -0.74505805969E-08  0.93827000000E+00  0.93827000000E+00 0.  1.
     999902    2    1    2    0    0  0.76528988773E-02 -0.21460281665E-01  0.60448216619E-02  0.10203577617E+01  0.10200854432E+01 0.  0.
     999903    2    3    3    0    0  0.77244873971E-01  0.90021027508E-01  0.48879284985E-01  0.12956827110E+00  0.18116192362E-01 0.  0.
         14    1    1    2    0    0 -0.76528988773E-02  0.21460281665E-01 -0.60448216619E-02  0.23572238317E-01  0.00000000000E+00 0. -1.
     999901    1    3    3    0    0 -0.69591975094E-01 -0.11148130917E+00 -0.42834463323E-01  0.89078949059E+00  0.88000000000E+00 0.  1.
        -11    1    4    4    0    0  0.43211870928E-01  0.45367267960E-01  0.16655039815E-01  0.64831367898E-01  0.51100000000E-03 0. -1.
         11    1    4    4    0    0  0.34033003042E-01  0.44653759548E-01  0.32224245170E-01  0.64736903198E-01  0.51100000000E-03 0.  1.
</event>
<event>
 8    1  0.1063984E+005  0.1043930E+01  0.7957747E-01            NaN
         13   -1    0    0    0    0  0.00000000000E+00  0.00000000000E+00  0.74505805969E-08  0.10566000000E+00  0.10566000000E+00 0. -1.
     999900   -1    0    0    0    0 -0.00000000000E+00 -0.00000000000E+00 -0.74505805969E-08  0.93827000000E+00  0.93827000000E+00 0. -1.
     999902    2    1    2    0    0 -0.68098373226E-02  0.20913317669E-01  0.94444470469E-02  0.10199938700E+01  0.10197129775E+01 0.  0.
     999903    2    3    3    0    0  0.86890508851E-02  0.82312958546E-02 -0.12672576318E+00  0.12929561840E+00  0.22686649109E-01 0.  0.
         14    1    1    2    0    0  0.68098373226E-02 -0.20913317669E-01 -0.94444470469E-02  0.23936130019E-01  0.00000000000E+00 0. -1.
     999901    1    3    3    0    0 -0.15498888208E-01  0.12682021814E-01  0.13617021023E+00  0.89069825158E+00  0.88000000000E+00 0.  1.
        -11    1    4    4    0    0  0.37020881190E-03  0.14788841446E-01 -0.82391375621E-01  0.83710493868E-01  0.51100000000E-03 0. -1.
         11    1    4    4    0    0  0.83188420732E-02 -0.65575455911E-02 -0.44334387558E-01  0.45585124534E-01  0.51100000000E-03 0.  1.
</event>
<event>
 8    1  0.1063984E+005  0.1043930E+01  0.7957747E-01            NaN
         13   -1    0    0    0    0  0.00000000000E+00  0.00000000000E+00  0.74505805969E-08  0.10566000000E+00  0.10566000000E+00 0. -1.
     999900   -1    0    0    0    0 -0.00000000000E+00 -0.00000000000E+00 -0.74505805969E-08  0.93827000000E+00  0.93827000000E+00 0. -1.
     999902    2    1    2    0    0 -0.21974443705E-01 -0.71465761095E-02 -0.57675017192E-02  0.10201137492E+01  0.10198356963E+01 0.  0.
     999903    2    3    3    0    0  0.16862489735E-01  0.74387230531E-01  0.10191586646E+00  0.12896181108E+00  0.20651906841E-01 0.  0.
         14    1    1    2    0    0  0.21974443705E-01  0.71465761095E-02  0.57675017192E-02  0.23816250803E-01  0.00000000000E+00 0. -1.
     999901    1    3    3    0    0 -0.38836933440E-01 -0.81533806641E-01 -0.10768336817E+00  0.89115193811E+00  0.88000000000E+00 0. -1.
        -11    1    4    4    0    0  0.60023703805E-02  0.62341896055E-01  0.84165625524E-01  0.10491260217E+00  0.51100000000E-03 0.  1.
         11    1    4    4    0    0  0.10860119354E-01  0.12045334477E-01  0.17750240931E-01  0.24049208909E-01  0.51100000000E-03 0. -1.
</event>
<event>
 8    1  0.1063984E+005  0.1043930E+01  0.7957747E-01            NaN
         13   -1    0    0    0    0  0.00000000000E+00  0.00000000000E+00  0.74505805969E-08  0.10566000000E+00  0.10566000000E+00 0.  1.
     999900   -1    0    0    0    0 -0.00000000000E+00 -0.00000000000E+00 -0.74505805969E-08  0.93827000000E+00  0.93827000000E+00 0.  1.
     999902    2    1    2    0    0 -0.10343722987E-01  0.11014261095E-01 -0.18613102526E-01  0.10199559695E+01  0.10196741762E+01 0.  0.
     999903    2    3    3    0    0 -0.12040382067E+00  0.49976054959E-01 -0.10842435762E-01  0.13221071902E+00  0.19168456159E-01 0.  0.
         14    1    1    2    0    0  0.10343722987E-01 -0.11014261095E-01  0.18613102526E-01  0.23974030499E-01  0.00000000000E+00 0.  1.
     999901    1    3    3    0    0  0.11006009768E+00 -0.38961793864E-01 -0.77706667644E-02  0.88774525048E+00  0.88000000000E+00 0. -1.
        -11    1    4    4    0    0 -0.53076783547E-01  0.30914473229E-01 -0.16730070195E-03  0.61425879866E-01  0.51100000000E-03 0.  1.
         11    1    4    4    0    0 -0.67327037118E-01  0.19061581731E-01 -0.10675135060E-01  0.70784839159E-01  0.51100000000E-03 0. -1.
</event>
<event>
 8    1  0.1212119E+005  0.1043930E+01  0.7957747E-01            NaN
         13   -1    0    0    0    0  0.00000000000E+00  0.00000000000E+00  0.74505805969E-08  0.10566000000E+00  0.10566000000E+00 0.  1.
     999900   -1    0    0    0    0 -0.00000000000E+00 -0.00000000000E+00 -0.74505805969E-08  0.93827000000E+00  0.93827000000E+00 0.  1.
     999902    2    1    2    0    0 -0.13296454694E-01 -0.41514553390E-02 -0.17422619051E-01  0.10216235448E+01  0.10213799926E+01 0.  0.
     999903    2    3    3    0    0 -0.11611478157E+00 -0.53756601078E-02  0.59831928275E-01  0.13227469755E+00  0.20129474700E-01 0.  0.
         14    1    1    2    0    0  0.13296454694E-01  0.41514553390E-02  0.17422619051E-01  0.22306455197E-01  0.00000000000E+00 0.  1.
     999901    1    3    3    0    0  0.10281832687E+00  0.12242047689E-02 -0.77254547326E-01  0.88934884725E+00  0.88000000000E+00 0. -1.
        -11    1    4    4    0    0 -0.86679053247E-01 -0.41281447101E-02  0.54083738007E-01  0.10225268548E+00  0.51100000000E-03 0.  1.
         11    1    4    4    0    0 -0.29435728322E-01 -0.12475153977E-02  0.57481902675E-02  0.30022012072E-01  0.51100000000E-03 0. -1.
</event>
<event>
 8    1  0.1063984E+005  0.1043930E+01  0.7957747E-01            NaN
         13   -1    0    0    0    0  0.00000000000E+00  0.00000000000E+00  0.74505805969E-08  0.10566000000E+00  0.10566000000E+00 0.  1.
     999900   -1    0    0    0    0 -0.00000000000E+00 -0.00000000000E+00 -0.74505805969E-08  0.93827000000E+00  0.93827000000E+00 0.  1.
     999902    2    1    2    0    0  0.20572709823E-01  0.94253858955E-02 -0.34029654196E-03  0.10212983829E+01  0.10210475978E+01 0.  0.
     999903    2    3    3    0    0  0.43116230280E-01 -0.89032287601E-01 -0.84350591073E-01  0.13154569069E+00  0.20087035033E-01 0.  0.
         14    1    1    2    0    0 -0.20572709823E-01 -0.94253858955E-02  0.34029654196E-03  0.22631617054E-01  0.00000000000E+00 0.  1.
     999901    1    3    3    0    0 -0.22543520457E-01  0.98457673496E-01  0.84010294531E-01  0.88975269225E+00  0.88000000000E+00 0. -1.
        -11    1    4    4    0    0  0.17472262731E-01 -0.48119458602E-01 -0.32239353546E-01  0.60501233865E-01  0.51100000000E-03 0.  1.
         11    1    4    4    0    0  0.25643967549E-01 -0.40912828998E-01 -0.52111237527E-01  0.71044456828E-01  0.51100000000E-03 0. -1.
</event>
<event>
 8    1  0.1063984E+005  0.1043930E+01  0.7957747E-01            NaN
         13   -1    0    0    0    0  0.00000000000E+00  0.00000000000E+00  0.74505805969E-08  0.10566000000E+00  0.10566000000E+00 0.  1.
     999900   -1    0    0    0    0 -0.00000000000E+00 -0.00000000000E+00 -0.74505805969E-08  0.93827000000E+00  0.93827000000E+00 0. -1.
     999902    2    1    2    0    0 -0.12491476426E-01  0.24740947697E-01 -0.96360062098E-02  0.10145871288E+01  0.10141627275E+01 0.  0.
     999903    2    3    3    0    0 -0.82203683222E-01  0.73167519644E-01  0.61641700790E-01  0.12763423478E+00  0.19490180738E-01 0.  0.
         14    1    1    2    0    0  0.12491476426E-01 -0.24740947697E-01  0.96360062098E-02  0.29342871228E-01  0.00000000000E+00 0. -1.
     999901    1    3    3    0    0  0.69712206796E-01 -0.48426571947E-01 -0.71277707000E-01  0.88695289399E+00  0.88000000000E+00 0.  1.
        -11    1    4    4    0    0 -0.32861912364E-01  0.42225131947E-01  0.30391421977E-01  0.61536710206E-01  0.51100000000E-03 0.  1.
         11    1    4    4    0    0 -0.49341770858E-01  0.30942387697E-01  0.31250278813E-01  0.66097524573E-01  0.51100000000E-03 0. -1.
</event>
<event>
 8    1  0.1063984E+005  0.1043930E+01  0.7957747E-01            NaN
         13   -1    0    0    0    0  0.00000000000E+00  0.00000000000E+00  0.74505805969E-08  0.10566000000E+00  0.10566000000E+00 0. -1.
     999900   -1    0    0    0    0 -0.00000000000E+00 -0.00000000000E+00 -0.74505805969E-08  0.93827000000E+00  0.93827000000E+00 0. -1.
     999902    2    1    2    0    0  0.12961977358E-01  0.19076749507E-01 -0.69351904111E-03  0.10208558544E+01  0.10205950515E+01 0.  0.
     999903    2    3    3    0    0 -0.21303213203E-01  0.12266122959E+00  0.42744555586E-01  0.13305479886E+00  0.19413354445E-01 0.  0.
         14    1    1    2    0    0 -0.12961977358E-01 -0.19076749507E-01  0.69351904111E-03  0.23074145649E-01  0.00000000000E+00 0.  1.
     999901    1    3    3    0    0  0.34265190561E-01 -0.10358448008E+00 -0.43438074627E-01  0.88780105549E+00  0.88000000000E+00 0.  1.
        -11    1    4    4    0    0 -0.24479506485E-01  0.97670455175E-01  0.36413528236E-01  0.10707460115E+00  0.51100000000E-03 0.  1.
         11    1    4    4    0    0  0.31762932820E-02  0.24990774415E-01  0.63310273496E-02  0.25980197713E-01  0.51100000000E-03 0. -1.
</event>
<event>
 8    1  0.1063984E+005  0.1043930E+01  0.7957747E-01            NaN
         13   -1    0    0    0    0  0.00000000000E+00  0.00000000000E+00  0.74505805969E-08  0.10566000000E+00  0.10566000000E+00 0. -1.
     999900   -1    0    0    0    0 -0.00000000000E+00 -0.00000000000E+00 -0.74505805969E-08  0.93827000000E+00  0.93827000000E+00 0.  1.
     999902    2    1    2    0    0 -0.22194572333E-01 -0.77719664460E-02 -0.18802266137E-02  0.10203389476E+01  0.10200661891E+01 0.  0.
     999903    2    3    3    0    0  0.41227489885E-01  0.59699488759E-02 -0.12134754428E+00  0.12989881020E+00  0.20325554814E-01 0.  0.
         14    1    1    2    0    0  0.22194572333E-01  0.77719664460E-02  0.18802266137E-02  0.23591052448E-01  0.00000000000E+00 0. -1.
     999901    1    3    3    0    0 -0.63422062218E-01 -0.13741915322E-01  0.11946731766E+00  0.89044013735E+00  0.88000000000E+00 0. -1.
        -11    1    4    4    0    0  0.10229465071E-02  0.12486080026E-02 -0.29214884050E-01  0.29263902894E-01  0.51100000000E-03 0.  1.
         11    1    4    4    0    0  0.40204543378E-01  0.47213408733E-02 -0.92132660226E-01  0.10063490731E+00  0.51100000000E-03 0. -1.
</event>
<event>
 8    1  0.1063984E+005  0.1043930E+01  0.7957747E-01            NaN
         13   -1    0    0    0    0  0.00000000000E+00  0.00000000000E+00  0.74505805969E-08  0.10566000000E+00  0.10566000000E+00 0.  1.
     999900   -1    0    0    0    0 -0.00000000000E+00 -0.00000000000E+00 -0.74505805969E-08  0.93827000000E+00  0.93827000000E+00 0.  1.
     999902    2    1    2    0    0  0.20769715898E-02  0.16801702536E-01 -0.15995878281E-01  0.10206388184E+01  0.10203730291E+01 0.  0.
     999903    2    3    3    0    0  0.75714572407E-01  0.97120661126E-01  0.42977740460E-01  0.13195916909E+00  0.20025404844E-01 0.  0.
         14    1    1    2    0    0 -0.20769715898E-02 -0.16801702536E-01  0.15995878281E-01  0.23291181616E-01  0.00000000000E+00 0. -1.
     999901    1    3    3    0    0 -0.73637600818E-01 -0.80318958590E-01 -0.58973618741E-01  0.88867964929E+00  0.88000000000E+00 0.  1.
        -11    1    4    4    0    0  0.12442454132E-01  0.21659079939E-01  0.16644147713E-01  0.30020312835E-01  0.51100000000E-03 0. -1.
         11    1    4    4    0    0  0.63272118275E-01  0.75461581188E-01  0.26333592747E-01  0.10193885625E+00  0.51100000000E-03 0.  1.
</event>
<event>
 8    1  0.1063984E+005  0.1043930E+01  0.7957747E-01            NaN
         13   -1    0    0    0    0  0.00000000000E+00  0.00000000000E+00  0.74505805969E-08  0.10566000000E+00  0.10566000000E+00 0.  1.
     999900   -1    0    0    0    0 -0.00000000000E+00 -0.00000000000E+00 -0.74505805969E-08  0.93827000000E+00  0.93827000000E+00 0. -1.
     999902    2    1    2    0    0  0.17894792818E-01 -0.14629572618E-01  0.75694937952E-03  0.10208038032E+01  0.10205418089E+01 0.  0.
     999903    2    3    3    0    0 -0.13046174913E-01  0.59450472875E-01  0.11294243479E+00  0.13005648790E+00  0.21310444916E-01 0.  0.
         14    1    1    2    0    0 -0.17894792818E-01  0.14629572618E-01 -0.75694937952E-03  0.23126196776E-01  0.00000000000E+00 0. -1.
     999901    1    3    3    0    0  0.30940967731E-01 -0.74080045493E-01 -0.11218548541E+00  0.89074731533E+00  0.88000000000E+00 0.  1.
        -11    1    4    4    0    0 -0.10366718244E-01  0.84065392386E-02  0.22292975505E-01  0.25988009292E-01  0.51100000000E-03 0.  1.
         11    1    4    4    0    0 -0.26794566693E-02  0.51043933637E-01  0.90649459286E-01  0.10406847860E+00  0.51100000000E-03 0. -1.
</event>
<event>
 7    1  0.1063984E+005  0.1043930E+01  0.7957747E-01            NaN
         13   -1    0    0    0    0  0.00000000000E+00  0.00000000000E+00  0.74505805969E-08  0.10566000000E+00  0.10566000000E+00 0. -1.
     999900   -1    0    0    0    0 -0.00000000000E+00 -0.00000000000E+00 -0.74505805969E-08  0.93827000000E+00  0.93827000000E+00 0. -1.
     999902    2    1    2    0    0  0.14189515402E-02  0.21344668929E-01 -0.10647767289E-01  0.10200347439E+01  0.10197548213E+01 0.  0.
         14    1    1    2    0    0 -0.14189515402E-02 -0.21344668929E-01  0.10647767289E-01  0.23895256086E-01  0.00000000000E+00 0. -1.
     999901    1    3    3    0    0  0.14253504459E-01 -0.90774167124E-01 -0.78639945679E-01  0.88827211645E+00  0.88000000000E+00 0. -1.
        -11    1    3    3    0    0 -0.28205999589E-02  0.23080151825E-01  0.13473907785E-01  0.26878551010E-01  0.51100000000E-03 0.  1.
         11    1    3    3    0    0 -0.10013952960E-01  0.89038684228E-01  0.54518270605E-01  0.10488407645E+00  0.51100000000E-03 0. -1.
</event>
<event>
 8    1  0.1063984E+005  0.1043930E+01  0.7957747E-01            NaN
         13   -1    0    0    0    0  0.00000000000E+00  0.00000000000E+00  0.74505805969E-08  0.10566000000E+00  0.10566000000E+00 0.  1.
     999900   -1    0    0    0    0 -0.00000000000E+00 -0.00000000000E+00 -0.74505805969E-08  0.93827000000E+00  0.93827000000E+00 0. -1.
     999902    2    1    2    0    0  0.21917843613E-01 -0.70460548057E-02 -0.18091317160E-02  0.10208364573E+01  0.10205752108E+01 0.  0.
     999903    2    3    3    0    0 -0.10986281434E+00 -0.53630358485E-01  0.36349394864E-01  0.12898876161E+00  0.19255357384E-01 0.  0.
         14    1    1    2    0    0 -0.21917843613E-01  0.70460548057E-02  0.18091317160E-02  0.23093542702E-01  0.00000000000E+00 0.  1.
     999901    1    3    3    0    0  0.13178065795E+00  0.46584303679E-01 -0.38158526580E-01  0.89184769569E+00  0.88000000000E+00 0.  1.
        -11    1    4    4    0    0 -0.97747215730E-01 -0.40558046920E-01  0.29249282902E-01  0.10979642537E+00  0.51100000000E-03 0. -1.
         11    1    4    4    0    0 -0.12115598610E-01 -0.13072311565E-01  0.71001119615E-02  0.19192336236E-01  0.51100000000E-03 0.  1.
</event>
<event>
 8    1  0.1063984E+005  0.1043930E+01  0.7957747E-01            NaN
         13   -1    0    0    0    0  0.00000000000E+00  0.00000000000E+00  0.74505805969E-08  0.10566000000E+00  0.10566000000E+00 0. -1.
     999900   -1    0    0    0    0 -0.00000000000E+00 -0.00000000000E+00 -0.74505805969E-08  0.93827000000E+00  0.93827000000E+00 0.  1.
     999902    2    1    2    0    0  0.18399933123E-01 -0.14927338323E-01  0.12443294393E-02  0.10202038262E+01  0.10199278973E+01 0.  0.
     999903    2    3    3    0    0 -0.12123039635E+00 -0.71467630249E-03  0.38702952054E-01  0.12829476295E+00  0.16257550262E-01 0.  0.
         14    1    1    2    0    0 -0.18399933123E-01  0.14927338323E-01 -0.12443294393E-02  0.23726173819E-01  0.00000000000E+00 0.  1.
     999901    1    3    3    0    0  0.13963032947E+00 -0.14212662021E-01 -0.37458622615E-01  0.89190906323E+00  0.88000000000E+00 0.  1.
        -11    1    4    4    0    0 -0.84890785609E-01 -0.75979454943E-02  0.24633216651E-01  0.88719956834E-01  0.51100000000E-03 0. -1.
         11    1    4    4    0    0 -0.36339610742E-01  0.68832691918E-02  0.14069735403E-01  0.39574806114E-01  0.51100000000E-03 0.  1.
</event>
<event>
 8    1  0.1063984E+005  0.1043930E+01  0.7957747E-01            NaN
         13   -1    0    0    0    0  0.00000000000E+00  0.00000000000E+00  0.74505805969E-08  0.10566000000E+00  0.10566000000E+00 0. -1.
     999900   -1    0    0    0    0 -0.00000000000E+00 -0.00000000000E+00 -0.74505805969E-08  0.93827000000E+00  0.93827000000E+00 0.  1.
     999902    2    1    2    0    0  0.14019547487E-03  0.24626369849E-01  0.30802149360E-02  0.10191113483E+01  0.10188090964E+01 0.  0.
     999903    2    3    3    0    0  0.36234337995E-01  0.12529200997E+00 -0.87424082897E-02  0.13255839862E+00  0.22006461057E-01 0.  0.
         14    1    1    2    0    0 -0.14019547487E-03 -0.24626369849E-01 -0.30802149360E-02  0.24818651671E-01  0.00000000000E+00 0.  1.
     999901    1    3    3    0    0 -0.36094142520E-01 -0.10066564012E+00  0.11822623226E-01  0.88655294971E+00  0.88000000000E+00 0.  1.
        -11    1    4    4    0    0  0.32295520567E-01  0.10565526269E+00  0.52742204917E-03  0.11048336742E+00  0.51100000000E-03 0.  1.
         11    1    4    4    0    0  0.39388174281E-02  0.19636747285E-01 -0.92698303388E-02  0.22075031193E-01  0.51100000000E-03 0. -1.
</event>
<event>
 8    1  0.1063984E+005  0.1043930E+01  0.7957747E-01            NaN
         13   -1    0    0    0    0  0.00000000000E+00  0.00000000000E+00  0.74505805969E-08  0.10566000000E+00  0.10566000000E+00 0.  1.
     999900   -1    0    0    0    0 -0.00000000000E+00 -0.00000000000E+00 -0.74505805969E-08  0.93827000000E+00  0.93827000000E+00 0.  1.
     999902    2    1    2    0    0  0.87508480873E-02  0.16836633018E-01 -0.68058289454E-02  0.10237714073E+01  0.10235729214E+01 0.  0.
     999903    2    3    3    0    0  0.53954634794E-01 -0.97985635766E-01  0.66205845262E-01  0.13216710023E+00  0.23929918610E-01 0.  0.
         14    1    1    2    0    0 -0.87508480873E-02 -0.16836633018E-01  0.68058289454E-02  0.20158592740E-01  0.00000000000E+00 0.  1.
     999901    1    3    3    0    0 -0.45203786707E-01  0.11482226878E+00 -0.73011674207E-01  0.89160430703E+00  0.88000000000E+00 0.  1.
        -11    1    4    4    0    0  0.37452617526E-01 -0.61279220858E-01  0.29323858239E-01  0.77575713027E-01  0.51100000000E-03 0. -1.
         11    1    4    4    0    0  0.16502017268E-01 -0.36706414907E-01  0.36881987022E-01  0.54591387205E-01  0.51100000000E-03 0.  1.
</event>
<event>
 8    1  0.1063984E+005  0.1043930E+01  0.7957747E-01            NaN
         13   -1    0    0    0    0  0.00000000000E+00  0.00000000000E+00  0.74505805969E-08  0.10566000000E+00  0.10566000000E+00 0. -1.
     999900   -1    0    0    0    0 -0.00000000000E+00 -0.00000000000E+00 -0.74505805969E-08  0.93827000000E+00  0.93827000000E+00 0. -1.
     999902    2    1    2    0    0  0.13580058267E-01  0.19726738173E-01 -0.16125479580E-02  0.10199266150E+01  0.10196441229E+01 0.  0.
     999903    2    3    3    0    0  0.48135166217E-01  0.10018227966E+00 -0.70439007598E-01  0.13290675546E+00  0.18683374180E-01 0.  0.
         14    1    1    2    0    0 -0.13580058267E-01 -0.19726738173E-01  0.16125479580E-02  0.24003385019E-01  0.00000000000E+00 0. -1.
     999901    1    3    3    0    0 -0.34555107950E-01 -0.80455541486E-01  0.68826459640E-01  0.88701985952E+00  0.88000000000E+00 0.  1.
        -11    1    4    4    0    0  0.45412852809E-01  0.77706750320E-01 -0.57921041897E-01  0.10703165168E+00  0.51100000000E-03 0. -1.
         11    1    4    4    0    0  0.27223134081E-02  0.22475529339E-01 -0.12517965701E-01  0.25875103780E-01  0.51100000000E-03 0.  1.
</event>
<event>
 8    1  0.1063984E+005  0.1043930E+01  0.7957747E-01            NaN
         13   -1    0    0    0    0  0.00000000000E+00  0.00000000000E+00  0.74505805969E-08  0.10566000000E+00  0.10566000000E+00 0.  1.
     999900   -1    0    0    0    0 -0.00000000000E+00 -0.00000000000E+00 -0.74505805969E-08  0.93827000000E+00  0.93827000000E+00 0. -1.
     999902    2    1    2    0    0  0.24495159036E-02  0.24045389639E-02  0.24249573958E-01  0.10194387001E+01  0.10191444644E+01 0.  0.
     999903    2    3    3    0    0 -0.93553614215E-01 -0.25921172235E-01  0.86551165511E-01  0.13157585298E+00  0.19922724043E-01 0.  0.
         14    1    1    2    0    0 -0.24495159036E-02 -0.24045389639E-02 -0.24249573958E-01  0.24491299944E-01  0.00000000000E+00 0. -1.
     999901    1    3    3    0    0  0.96003130119E-01  0.28325711199E-01 -0.62301591553E-01  0.88786284708E+00  0.88000000000E+00 0.  1.
        -11    1    4    4    0    0 -0.46999914321E-01 -0.18888216339E-01  0.55671672540E-01  0.75268538627E-01  0.51100000000E-03 0. -1.
         11    1    4    4    0    0 -0.46553699895E-01 -0.70329558956E-02  0.30879492971E-01  0.56307314353E-01  0.51100000000E-03 0.  1.
</event>
<event>
 8    1  0.1063984E+005  0.1043930E+01  0.7957747E-01            NaN
         13   -1    0    0    0    0  0.00000000000E+00  0.00000000000E+00  0.74505805969E-08  0.10566000000E+00  0.10566000000E+00 0. -1.
     999900   -1    0    0    0    0 -0.00000000000E+00 -0.00000000000E+00 -0.74505805969E-08  0.93827000000E+00  0.93827000000E+00 0. -1.
     999902    2    1    2    0    0 -0.11303384254E-02 -0.16418381490E-02 -0.20835412077E-01  0.10229994555E+01  0.10227853138E+01 0.  0.
     999903    2    3    3    0    0 -0.68768675312E-01 -0.10443432002E+00 -0.44250436126E-01  0.13412966620E+00  0.19925068513E-01 0.  0.
         14    1    1    2    0    0  0.11303384254E-02  0.16418381490E-02  0.20835412077E-01  0.20930544520E-01  0.00000000000E+00 0. -1.
     999901    1    3    3    0    0  0.67638336886E-01  0.10279248187E+00  0.23415024049E-01  0.88886978928E+00  0.88000000000E+00 0.  1.
        -11    1    4    4    0    0 -0.26804268001E-01 -0.58518462545E-01 -0.20669739152E-01  0.67604574396E-01  0.51100000000E-03 0. -1.
         11    1    4    4    0    0 -0.41964407311E-01 -0.45915857475E-01 -0.23580696974E-01  0.66525091803E-01  0.51100000000E-03 0.  1.
</event>
<event>
 8    1  0.1063984E+005  0.1043930E+01  0.7957747E-01            NaN
         13   -1    0    0    0    0  0.00000000000E+00  0.00000000000E+00  0.74505805969E-08  0.10566000000E+00  0.10566000000E+00 0.  1.
     999900   -1    0    0    0    0 -0.00000000000E+00 -0.00000000000E+00 -0.74505805969E-08  0.93827000000E+00  0.93827000000E+00 0. -1.
     999902    2    1    2    0    0 -0.80360937873E-03  0.24076001516E-01  0.12929105603E-02  0.10198059196E+01  0.10195205454E+01 0.  0.
     999903    2    3    3    0    0  0.52339369216E-01  0.94776985459E-02 -0.11707642252E+00  0.13017195801E+00  0.20214193090E-01 0.  0.
         14    1    1    2    0    0  0.80360937873E-03 -0.24076001516E-01 -0.12929105603E-02  0.24124080391E-01  0.00000000000E+00 0. -1.
     999901    1    3    3    0    0 -0.53142978595E-01  0.14598302970E-01  0.11836933308E+00  0.88963396160E+00  0.88000000000E+00 0.  1.
        -11    1    4    4    0    0  0.46955499483E-01  0.78834913172E-02 -0.83472462381E-01  0.96098290640E-01  0.51100000000E-03 0. -1.
         11    1    4    4    0    0  0.53838697331E-02  0.15942072287E-02 -0.33603960135E-01  0.34073667366E-01  0.51100000000E-03 0.  1.
</event>
<event>
 8    1  0.1063984E+005  0.1043930E+01  0.7957747E-01            NaN
         13   -1    0    0    0    0  0.00000000000E+00  0.00000000000E+00  0.74505805969E-08  0.10566000000E+00  0.10566000000E+00 0. -1.
     999900   -1    0    0    0    0 -0.00000000000E+00 -0.00000000000E+00 -0.74505805969E-08  0.93827000000E+00  0.93827000000E+00 0. -1.
     999902    2    1    2    0    0  0.11091518657E-01  0.18078106782E-01  0.11200066296E-01  0.10199449793E+01  0.10196629245E+01 0.  0.
     999903    2    3    3    0    0 -0.92408096325E-01 -0.37273292843E-01  0.80264025721E-01  0.12946994980E+00  0.19788871900E-01 0.  0.
         14    1    1    2    0    0 -0.11091518657E-01 -0.18078106782E-01 -0.11200066296E-01  0.23985020658E-01  0.00000000000E+00 0.  1.
     999901    1    3    3    0    0  0.10349961498E+00  0.55351399625E-01 -0.69063959425E-01  0.89047502954E+00  0.88000000000E+00 0.  1.
        -11    1    4    4    0    0 -0.60967722552E-01 -0.19678667261E-01  0.61658289817E-01  0.88917484009E-01  0.51100000000E-03 0.  1.
         11    1    4    4    0    0 -0.31440373774E-01 -0.17594625583E-01  0.18605735904E-01  0.40552465794E-01  0.51100000000E-03 0. -1.
</event>
<event>
 8    1  0.1063984E+005  0.1043930E+01  0.7957747E-01            NaN
         13   -1    0    0    0    0  0.00000000000E+00  0.00000000000E+00  0.74505805969E-08  0.10566000000E+00  0.10566000000E+00 0. -1.
     999900   -1    0    0    0    0 -0.00000000000E+00 -0.00000000000E+00 -0.74505805969E-08  0.93827000000E+00  0.93827000000E+00 0.  1.
     999902    2    1    2    0    0  0.73228662466E-02  0.13635098173E-02 -0.24399318611E-01  0.10184190165E+01  0.10180994465E+01 0.  0.
     999903    2    3    3    0    0 -0.12605081175E+00  0.22112377676E-02  0.15608291618E-01  0.12747015969E+00  0.10551119805E-01 0.  0.
         14    1    1    2    0    0 -0.73228662466E-02 -0.13635098173E-02  0.24399318611E-01  0.25510983473E-01  0.00000000000E+00 0. -1.
     999901    1    3    3    0    0  0.13337367799E+00 -0.84772795023E-03 -0.40007610228E-01  0.89094885684E+00  0.88000000000E+00 0.  1.
        -11    1    4    4    0    0 -0.77094944728E-01  0.64594417035E-02  0.98669815721E-02  0.77993418543E-01  0.51100000000E-03 0. -1.
         11    1    4    4    0    0 -0.48955867021E-01 -0.42482039359E-02  0.57413100456E-02  0.49476741146E-01  0.51100000000E-03 0.  1.
</event>
<event>
 8    1  0.1063984E+005  0.1043930E+01  0.7957747E-01            NaN
         13   -1    0    0    0    0  0.00000000000E+00  0.00000000000E+00  0.74505805969E-08  0.10566000000E+00  0.10566000000E+00 0. -1.
     999900   -1    0    0    0    0 -0.00000000000E+00 -0.00000000000E+00 -0.74505805969E-08  0.93827000000E+00  0.93827000000E+00 0. -1.
     999902    2    1    2    0    0 -0.10119509258E-01  0.20769661262E-01 -0.65174534453E-02  0.10199245736E+01  0.10196420330E+01 0.  0.
     999903    2    3    3    0    0  0.12452366804E+00 -0.21080434185E-01 -0.95718120897E-02  0.12869534115E+00  0.22811020130E-01 0.  0.
         14    1    1    2    0    0  0.10119509258E-01 -0.20769661262E-01  0.65174534453E-02  0.24005426386E-01  0.00000000000E+00 0.  1.
     999901    1    3    3    0    0 -0.13464317730E+00  0.41850095447E-01  0.30543586444E-02  0.89122923246E+00  0.88000000000E+00 0. -1.
        -11    1    4    4    0    0  0.31120122800E-01 -0.12737890962E-01  0.42792971841E-02  0.33901171287E-01  0.51100000000E-03 0. -1.
         11    1    4    4    0    0  0.93403545245E-01 -0.83425432232E-02 -0.13851109274E-01  0.94794169867E-01  0.51100000000E-03 0.  1.
</event>
<event>
 8    1  0.1063984E+005  0.1043930E+01  0.7957747E-01            NaN
         13   -1    0    0    0    0  0.00000000000E+00  0.00000000000E+00  0.74505805969E-08  0.10566000000E+00  0.10566000000E+00 0.  1.
     999900   -1    0    0    0    0 -0.00000000000E+00 -0.00000000000E+00 -0.74505805969E-08  0.93827000000E+00  0.93827000000E+00 0.  1.
     999902    2    1    2    0    0 -0.20884722494E-01  0.14073355462E-01 -0.46581212928E-02  0.10183188879E+01  0.10179967723E+01 0.  0.
     999903    2    3    3    0    0 -0.43605495802E-02 -0.24521997787E-01  0.12398081785E+00  0.12797590556E+00  0.19653153485E-01 0.  0.
         14    1    1    2    0    0  0.20884722494E-01 -0.14073355462E-01  0.46581212928E-02  0.25611112072E-01  0.00000000000E+00 0. -1.
     999901    1    3    3    0    0 -0.16524172914E-01  0.38595353249E-01 -0.12863893914E+00  0.89034298236E+00  0.88000000000E+00 0.  1.
        -11    1    4    4    0    0 -0.87897455363E-03  0.28682525235E-02  0.51803747950E-02  0.60080673117E-02  0.51100000000E-03 0. -1.
         11    1    4    4    0    0 -0.34815750265E-02 -0.27390250310E-01  0.11880044305E+00  0.12196783825E+00  0.51100000000E-03 0.  1.
</event>
<event>
 8    1  0.1063984E+005  0.1043930E+01  0.7957747E-01            NaN
         13   -1    0    0    0    0  0.00000000000E+00  0.00000000000E+00  0.74505805969E-08  0.10566000000E+00  0.10566000000E+00 0. -1.
     999900   -1    0    0    0    0 -0.00000000000E+00 -0.00000000000E+00 -0.74505805969E-08  0.93827000000E+00  0.93827000000E+00 0. -1.
     999902    2    1    2    0    0  0.20062860343E-01  0.12652817449E-01  0.30782016071E-02  0.10200116497E+01  0.10197311793E+01 0.  0.
     999903    2    3    3    0    0  0.12445316752E+00  0.33190387114E-01  0.28195510369E-01  0.13324786653E+00  0.19230559686E-01 0.  0.
         14    1    1    2    0    0 -0.20062860343E-01 -0.12652817449E-01 -0.30782016071E-02  0.23918350271E-01  0.00000000000E+00 0. -1.
     999901    1    3    3    0    0 -0.10439030718E+00 -0.20537569664E-01 -0.25117308761E-01  0.88676378320E+00  0.88000000000E+00 0. -1.
        -11    1    4    4    0    0  0.52966196096E-02  0.38171839778E-02 -0.20296295863E-02  0.68560622858E-02  0.51100000000E-03 0. -1.
         11    1    4    4    0    0  0.11915654791E+00  0.29373203136E-01  0.30225139955E-01  0.12639180424E+00  0.51100000000E-03 0.  1.
</event>
<event>
 8    1  0.1063984E+005  0.1043930E+01  0.7957747E-01            NaN
         13   -1    0    0    0    0  0.00000000000E+00  0.00000000000E+00  0.74505805969E-08  0.10566000000E+00  0.10566000000E+00 0.  1.
     999900   -1    0    0    0    0 -0.00000000000E+00 -0.00000000000E+00 -0.74505805969E-08  0.93827000000E+00  0.93827000000E+00 0. -1.
     999902    2    1    2    0    0  0.21637930953E-01  0.89577688536E-02  0.19802198658E-03  0.10205103311E+01  0.10202415670E+01 0.  0.
     999903    2    3    3    0    0  0.48306390359E-01  0.14110656991E-01  0.11907178928E+00  0.13210235526E+00  0.27208882240E-01 0.  0.
         14    1    1    2    0    0 -0.21637930953E-01 -0.89577688536E-02 -0.19802198658E-03  0.23419668902E-01  0.00000000000E+00 0. -1.
     999901    1    3    3    0    0 -0.26668459406E-01 -0.51528881378E-02 -0.11887376729E+00  0.88840797584E+00  0.88000000000E+00 0. -1.
        -11    1    4    4    0    0  0.28002228444E-01 -0.33385968605E-02  0.79211006579E-01  0.84082790815E-01  0.51100000000E-03 0. -1.
         11    1    4    4    0    0  0.20304161915E-01  0.17449253852E-01  0.39860782700E-01  0.48019564445E-01  0.51100000000E-03 0.  1.
</event>
<event>
 8    1  0.1063984E+005  0.1043930E+01  0.7957747E-01            NaN
         13   -1    0    0    0    0  0.00000000000E+00  0.00000000000E+00  0.74505805969E-08  0.10566000000E+00  0.10566000000E+00 0.  1.
     999900   -1    0    0    0    0 -0.00000000000E+00 -0.00000000000E+00 -0.74505805969E-08  0.93827000000E+00  0.93827000000E+00 0. -1.
     999902    2    1    2    0    0  0.10870595513E-01 -0.20160078053E-01  0.74311226802E-02  0.10198505445E+01  0.10195662376E+01 0.  0.
     999903    2    3    3    0    0 -0.50963227068E-01 -0.10086115351E+00 -0.63548064856E-01  0.13115817349E+00  0.19846589738E-01 0.  0.
         14    1    1    2    0    0 -0.10870595513E-01  0.20160078053E-01 -0.74311226802E-02  0.24079455521E-01  0.00000000000E+00 0.  1.
     999901    1    3    3    0    0  0.61833822582E-01  0.80701075461E-01  0.70979187536E-01  0.88869237099E+00  0.88000000000E+00 0.  1.
        -11    1    4    4    0    0 -0.37793201414E-01 -0.89568726490E-01 -0.56360262441E-01  0.11237269749E+00  0.51100000000E-03 0.  1.
         11    1    4    4    0    0 -0.13170025654E-01 -0.11292427024E-01 -0.71878024148E-02  0.18785475996E-01  0.51100000000E-03 0. -1.
</event>
<event>
 8    1  0.1063984E+005  0.1043930E+01  0.7957747E-01            NaN
         13   -1    0    0    0    0  0.00000000000E+00  0.00000000000E+00  0.74505805969E-08  0.10566000000E+00  0.10566000000E+00 0.  1.
     999900   -1    0    0    0    0 -0.00000000000E+00 -0.00000000000E+00 -0.74505805969E-08  0.93827000000E+00  0.93827000000E+00 0.  1.
     999902    2    1    2    0    0  0.71056416140E-02 -0.20506790320E-01  0.58371927993E-02  0.10214557612E+01  0.10212084903E+01 0.  0.
     999903    2    3    3    0    0 -0.56683099957E-01 -0.92573026683E-01 -0.73674803332E-01  0.13264492441E+00  0.19594903343E-01 0.  0.
         14    1    1    2    0    0 -0.71056416140E-02  0.20506790320E-01 -0.58371927993E-02  0.22474238847E-01  0.00000000000E+00 0. -1.
     999901    1    3    3    0    0  0.63788741571E-01  0.72066236364E-01  0.79511996132E-01  0.88881083674E+00  0.88000000000E+00 0. -1.
        -11    1    4    4    0    0 -0.19554509994E-01 -0.37935335549E-01 -0.18277844000E-01  0.46430692937E-01  0.51100000000E-03 0.  1.
         11    1    4    4    0    0 -0.37128589962E-01 -0.54637691134E-01 -0.55396959332E-01  0.86214231478E-01  0.51100000000E-03 0. -1.
</event>
<event>
 8    1  0.1063984E+005  0.1043930E+01  0.7957747E-01            NaN
         13   -1    0    0    0    0  0.00000000000E+00  0.00000000000E+00  0.74505805969E-08  0.10566000000E+00  0.10566000000E+00 0.  1.
     999900   -1    0    0    0    0 -0.00000000000E+00 -0.00000000000E+00 -0.74505805969E-08  0.93827000000E+00  0.93827000000E+00 0.  1.
     999902    2    1    2    0    0 -0.19489680116E-01 -0.32337214538E-02  0.11901590272E-01  0.10208659059E+01  0.10206053328E+01 0.  0.
     999903    2    3    3    0    0  0.51255841347E-01 -0.76350818562E-01  0.91875770257E-01  0.13140151192E+00  0.19198734540E-01 0.  0.
         14    1    1    2    0    0  0.19489680116E-01  0.32337214538E-02 -0.11901590272E-01  0.23064094096E-01  0.00000000000E+00 0. -1.
     999901    1    3    3    0    0 -0.70745521463E-01  0.73117097108E-01 -0.79974179985E-01  0.88946439398E+00  0.88000000000E+00 0. -1.
        -11    1    4    4    0    0  0.11062069025E-01 -0.33050615805E-01  0.34666661000E-01  0.49160462590E-01  0.51100000000E-03 0.  1.
         11    1    4    4    0    0  0.40193772323E-01 -0.43300202757E-01  0.57209109257E-01  0.82241049332E-01  0.51100000000E-03 0. -1.
</event>
<event>
 8    1  0.1063984E+005  0.1043930E+01  0.7957747E-01            NaN
         13   -1    0    0    0    0  0.00000000000E+00  0.00000000000E+00  0.74505805969E-08  0.10566000000E+00  0.10566000000E+00 0. -1.
     999900   -1    0    0    0    0 -0.00000000000E+00 -0.00000000000E+00 -0.74505805969E-08  0.93827000000E+00  0.93827000000E+00 0. -1.
     999902    2    1    2    0    0  0.15501264644E-01 -0.17127752023E-01 -0.11479348548E-02  0.10208006496E+01  0.10205385830E+01 0.  0.
     999903    2    3    3    0    0  0.10220105620E+00 -0.62640943800E-01  0.54952090542E-01  0.13359406863E+00  0.21417263852E-01 0.  0.
         14    1    1    2    0    0 -0.15501264644E-01  0.17127752023E-01  0.11479348548E-02  0.23129350388E-01  0.00000000000E+00 0. -1.
     999901    1    3    3    0    0 -0.86699791555E-01  0.45513191777E-01 -0.56100025397E-01  0.88720658098E+00  0.88000000000E+00 0.  1.
        -11    1    4    4    0    0  0.15978782433E-01 -0.14499064304E-01  0.23640581166E-02  0.21711615452E-01  0.51100000000E-03 0. -1.
         11    1    4    4    0    0  0.86222273766E-01 -0.48141879496E-01  0.52588032425E-01  0.11188245318E+00  0.51100000000E-03 0.  1.
</event>
<event>
 8    1  0.1063984E+005  0.1043930E+01  0.7957747E-01            NaN
         13   -1    0    0    0    0  0.00000000000E+00  0.00000000000E+00  0.74505805969E-08  0.10566000000E+00  0.10566000000E+00 0.  1.
     999900   -1    0    0    0    0 -0.00000000000E+00 -0.00000000000E+00 -0.74505805969E-08  0.93827000000E+00  0.93827000000E+00 0. -1.
     999902    2    1    2    0    0 -0.22216980666E-01  0.45387829549E-02 -0.32909785806E-02  0.10210165690E+01  0.10207594275E+01 0.  0.
     999903    2    3    3    0    0 -0.89612145840E-01  0.59426942185E-01 -0.77218365709E-01  0.13364963424E+00  0.18375271197E-01 0.  0.
         14    1    1    2    0    0  0.22216980666E-01 -0.45387829549E-02  0.32909785806E-02  0.22913431009E-01  0.00000000000E+00 0. -1.
     999901    1    3    3    0    0  0.67395165174E-01 -0.54888159230E-01  0.73927387128E-01  0.88736693475E+00  0.88000000000E+00 0.  1.
        -11    1    4    4    0    0 -0.20467577005E-01  0.22784782803E-01 -0.18166543574E-01  0.35613936349E-01  0.51100000000E-03 0. -1.
         11    1    4    4    0    0 -0.69144568834E-01  0.36642159382E-01 -0.59051822135E-01  0.98035697896E-01  0.51100000000E-03 0.  1.
</event>
<event>
 8    1  0.1063984E+005  0.1043930E+01  0.7957747E-01            NaN
         13   -1    0    0    0    0  0.00000000000E+00  0.00000000000E+00  0.74505805969E-08  0.10566000000E+00  0.10566000000E+00 0. -1.
     999900   -1    0    0    0    0 -0.00000000000E+00 -0.00000000000E+00 -0.74505805969E-08  0.93827000000E+00  0.93827000000E+00 0.  1.
     999902    2    1    2    0    0 -0.46000302778E-02 -0.15376614071E-01  0.17426975636E-01  0.10202382289E+01  0.10199631090E+01 0.  0.
     999903    2    3    3    0    0 -0.72758513106E-01  0.90737335748E-01  0.55691830970E-01  0.13042367052E+00  0.19536848927E-01 0.  0.
         14    1    1    2    0    0  0.46000302778E-02  0.15376614071E-01 -0.17426975636E-01  0.23691771117E-01  0.00000000000E+00 0. -1.
     999901    1    3    3    0    0  0.68158482828E-01 -0.10611394982E+00 -0.38264855334E-01  0.88981455837E+00  0.88000000000E+00 0.  1.
        -11    1    4    4    0    0 -0.33920138937E-01  0.52850025341E-01  0.37753880904E-01  0.73275627928E-01  0.51100000000E-03 0.  1.
         11    1    4    4    0    0 -0.38838374169E-01  0.37887310407E-01  0.17937950067E-01  0.57148042588E-01  0.51100000000E-03 0. -1.
</event>
<event>
 8    1  0.1063984E+005  0.1043930E+01  0.7957747E-01            NaN
         13   -1    0    0    0    0  0.00000000000E+00  0.00000000000E+00  0.74505805969E-08  0.10566000000E+00  0.10566000000E+00 0. -1.
     999900   -1    0    0    0    0 -0.00000000000E+00 -0.00000000000E+00 -0.74505805969E-08  0.93827000000E+00  0.93827000000E+00 0.  1.
     999902    2    1    2    0    0 -0.11126619964E-01  0.19063041204E-01 -0.63193204897E-02  0.10209705788E+01  0.10207123922E+01 0.  0.
     999903    2    3    3    0    0 -0.40741600539E-01  0.70779217691E-01 -0.10378697965E+00  0.13358590763E+00  0.20096813214E-01 0.  0.
         14    1    1    2    0    0  0.11126619964E-01 -0.19063041204E-01  0.63193204897E-02  0.22959421230E-01  0.00000000000E+00 0. -1.
     999901    1    3    3    0    0  0.29614980575E-01 -0.51716176487E-01  0.97467659163E-01  0.88738467114E+00  0.88000000000E+00 0. -1.
        -11    1    4    4    0    0 -0.38531071976E-01  0.64962790025E-01 -0.84614827180E-01  0.11342282705E+00  0.51100000000E-03 0.  1.
         11    1    4    4    0    0 -0.22105285628E-02  0.58164276656E-02 -0.19172152473E-01  0.20163080587E-01  0.51100000000E-03 0. -1.
</event>
<event>
 8    1  0.1063984E+005  0.1043930E+01  0.7957747E-01            NaN
         13   -1    0    0    0    0  0.00000000000E+00  0.00000000000E+00  0.74505805969E-08  0.10566000000E+00  0.10566000000E+00 0.  1.
     999900   -1    0    0    0    0 -0.00000000000E+00 -0.00000000000E+00 -0.74505805969E-08  0.93827000000E+00  0.93827000000E+00 0.  1.
     999902    2    1    2    0    0 -0.18696293914E-01 -0.12024724029E-01  0.56413428559E-02  0.10209959610E+01  0.10207383515E+01 0.  0.
     999903    2    3    3    0    0 -0.51558946167E-01  0.10471432135E+00  0.55138345857E-01  0.13130055701E+00  0.24003855185E-01 0.  0.
         14    1    1    2    0    0  0.18696293914E-01  0.12024724029E-01 -0.56413428559E-02  0.22934038966E-01  0.00000000000E+00 0. -1.
     999901    1    3    3    0    0  0.32862652253E-01 -0.11673904537E+00 -0.49497003001E-01  0.88969540402E+00  0.88000000000E+00 0.  1.
        -11    1    4    4    0    0 -0.72349781826E-02  0.38401065230E-01  0.13677520322E-01  0.41404376620E-01  0.51100000000E-03 0. -1.
         11    1    4    4    0    0 -0.44323967985E-01  0.66313256115E-01  0.41460825535E-01  0.89896180394E-01  0.51100000000E-03 0.  1.
</event>
<event>
 8    1  0.1063984E+005  0.1043930E+01  0.7957747E-01            NaN
         13   -1    0    0    0    0  0.00000000000E+00  0.00000000000E+00  0.74505805969E-08  0.10566000000E+00  0.10566000000E+00 0.  1.
     999900   -1    0    0    0    0 -0.00000000000E+00 -0.00000000000E+00 -0.74505805969E-08  0.93827000000E+00  0.93827000000E+00 0. -1.
     999902    2    1    2    0    0 -0.22521318629E-01  0.13164575289E-02  0.70466598515E-02  0.10202953164E+01  0.10200215363E+01 0.  0.
     999903    2    3    3    0    0 -0.98537414903E-01  0.85972517001E-01  0.13265932013E-01  0.13294883693E+00  0.19962777227E-01 0.  0.
         14    1    1    2    0    0  0.22521318629E-01 -0.13164575289E-02 -0.70466598515E-02  0.23634683588E-01  0.00000000000E+00 0. -1.
     999901    1    3    3    0    0  0.76016096273E-01 -0.84656059472E-01 -0.62192721614E-02  0.88734647948E+00  0.88000000000E+00 0.  1.
        -11    1    4    4    0    0 -0.52650543199E-01  0.55103498167E-01  0.63016122832E-03  0.76217671400E-01  0.51100000000E-03 0.  1.
         11    1    4    4    0    0 -0.45886871703E-01  0.30869018834E-01  0.12635770785E-01  0.56731165534E-01  0.51100000000E-03 0. -1.
</event>
<event>
 8    1  0.1063984E+005  0.1043930E+01  0.7957747E-01            NaN
         13   -1    0    0    0    0  0.00000000000E+00  0.00000000000E+00  0.74505805969E-08  0.10566000000E+00  0.10566000000E+00 0. -1.
     999900   -1    0    0    0    0 -0.00000000000E+00 -0.00000000000E+00 -0.74505805969E-08  0.93827000000E+00  0.93827000000E+00 0.  1.
     999902    2    1    2    0    0 -0.18338747093E-01  0.65153834607E-02 -0.12187214318E-01  0.10209672463E+01  0.10207089839E+01 0.  0.
     999903    2    3    3    0    0 -0.69646281016E-02  0.36082272197E-01 -0.12750131688E+00  0.13287889832E+00  0.70554519028E-02 0.  0.
         14    1    1    2    0    0  0.18338747093E-01 -0.65153834607E-02  0.12187214318E-01  0.22962753742E-01  0.00000000000E+00 0.  1.
     999901    1    3    3    0    0 -0.11374118992E-01 -0.29566888736E-01  0.11531410256E+00  0.88808834794E+00  0.88000000000E+00 0. -1.
        -11    1    4    4    0    0 -0.40859726390E-02  0.20036051379E-01 -0.82981453040E-01  0.85465321604E-01  0.51100000000E-03 0.  1.
         11    1    4    4    0    0 -0.28786554626E-02  0.16046220818E-01 -0.44519863839E-01  0.47413576717E-01  0.51100000000E-03 0. -1.
</event>
<event>
 8    1  0.1063984E+005  0.1043930E+01  0.7957747E-01            NaN
         13   -1    0    0    0    0  0.00000000000E+00  0.00000000000E+00  0.74505805969E-08  0.10566000000E+00  0.10566000000E+00 0.  1.
     999900   -1    0    0    0    0 -0.00000000000E+00 -0.00000000000E+00 -0.74505805969E-08  0.93827000000E+00  0.93827000000E+00 0.  1.
     999902    2    1    2    0    0  0.13722128436E-01  0.89420528553E-03  0.19972941753E-01  0.10196809832E+01  0.10193926097E+01 0.  0.
     999903    2    3    3    0    0  0.46217876175E-02  0.28018097285E-01 -0.12342942725E+00  0.12761441556E+00  0.15628206924E-01 0.  0.
         14    1    1    2    0    0 -0.13722128436E-01 -0.89420528553E-03 -0.19972941753E-01  0.24249016767E-01  0.00000000000E+00 0. -1.
     999901    1    3    3    0    0  0.91003408183E-02 -0.27123891999E-01  0.14340236900E+00  0.89206656767E+00  0.88000000000E+00 0. -1.
        -11    1    4    4    0    0  0.38200298579E-02  0.15251463775E-01 -0.36474641401E-01  0.39722290489E-01  0.51100000000E-03 0. -1.
         11    1    4    4    0    0  0.80175775958E-03  0.12766633510E-01 -0.86954785850E-01  0.87892125073E-01  0.51100000000E-03 0.  1.
</event>
<event>
 8    1  0.1063984E+005  0.1043930E+01  0.7957747E-01            NaN
         13   -1    0    0    0    0  0.00000000000E+00  0.00000000000E+00  0.74505805969E-08  0.10566000000E+00  0.10566000000E+00 0.  1.
     999900   -1    0    0    0    0 -0.00000000000E+00 -0.00000000000E+00 -0.74505805969E-08  0.93827000000E+00  0.93827000000E+00 0. -1.
     999902    2    1    2    0    0 -0.74925221741E-02  0.17944811143E-01 -0.12777899580E-01  0.10206613762E+01  0.10203961074E+01 0.  0.
     999903    2    3    3    0    0 -0.78844750757E-01 -0.80627594792E-01  0.60046714180E-01  0.12930786379E+00  0.19940210376E-01 0.  0.
         14    1    1    2    0    0  0.74925221741E-02 -0.17944811143E-01  0.12777899580E-01  0.23268623792E-01  0.00000000000E+00 0.  1.
     999901    1    3    3    0    0  0.71352228582E-01  0.98572405934E-01 -0.72824613760E-01  0.89135351242E+00  0.88000000000E+00 0.  1.
        -11    1    4    4    0    0 -0.53058297032E-02 -0.14681524087E-01  0.10305218306E-01  0.18712499130E-01  0.51100000000E-03 0. -1.
         11    1    4    4    0    0 -0.73538921053E-01 -0.65946070705E-01  0.49741495874E-01  0.11059536466E+00  0.51100000000E-03 0.  1.
</event>
<event>
 8    1  0.1063984E+005  0.1043930E+01  0.7957747E-01            NaN
         13   -1    0    0    0    0  0.00000000000E+00  0.00000000000E+00  0.74505805969E-08  0.10566000000E+00  0.10566000000E+00 0. -1.
     999900   -1    0    0    0    0 -0.00000000000E+00 -0.00000000000E+00 -0.74505805969E-08  0.93827000000E+00  0.93827000000E+00 0.  1.
     999902    2    1    2    0    0 -0.11546492715E-01 -0.20331305182E-01  0.53521993323E-02  0.10199439728E+01  0.10196618940E+01 0.  0.
     999903    2    3    3    0    0  0.65989750593E-02 -0.12477176050E+00  0.40587633153E-01  0.13288219223E+00  0.19969535681E-01 0.  0.
         14    1    1    2    0    0  0.11546492715E-01  0.20331305182E-01 -0.53521993323E-02  0.23986027226E-01  0.00000000000E+00 0.  1.
     999901    1    3    3    0    0 -0.18145467774E-01  0.10444045532E+00 -0.35235433821E-01  0.88706178055E+00  0.88000000000E+00 0. -1.
        -11    1    4    4    0    0 -0.17243445280E-02 -0.70489407822E-01  0.14096203384E-01  0.71907538200E-01  0.51100000000E-03 0. -1.
         11    1    4    4    0    0  0.83233195873E-02 -0.54282352681E-01  0.26491429769E-01  0.60974654028E-01  0.51100000000E-03 0.  1.
</event>
<event>
 8    1  0.1063984E+005  0.1043930E+01  0.7957747E-01            NaN
         13   -1    0    0    0    0  0.00000000000E+00  0.00000000000E+00  0.74505805969E-08  0.10566000000E+00  0.10566000000E+00 0.  1.
     999900   -1    0    0    0    0 -0.00000000000E+00 -0.00000000000E+00 -0.74505805969E-08  0.93827000000E+00  0.93827000000E+00 0. -1.
     999902    2    1    2    0    0 -0.44347869112E-02 -0.18360390619E-01 -0.77443433514E-02  0.10235156391E+01  0.10233120332E+01 0.  0.
     999903    2    3    3    0    0  0.66023002243E-01 -0.40813048642E-02  0.11288766066E+00  0.13238137716E+00  0.20137309021E-01 0.  0.
         14    1    1    2    0    0  0.44347869112E-02  0.18360390619E-01  0.77443433514E-02  0.20414360940E-01  0.00000000000E+00 0.  1.
     999901    1    3    3    0    0 -0.70457789155E-01 -0.14279085755E-01 -0.12063200401E+00  0.89113426190E+00  0.88000000000E+00 0. -1.
        -11    1    4    4    0    0  0.41646871338E-01 -0.11597160144E-01  0.77682357182E-01  0.88903125671E-01  0.51100000000E-03 0.  1.
         11    1    4    4    0    0  0.24376130906E-01  0.75158552801E-02  0.35205303478E-01  0.43478251488E-01  0.51100000000E-03 0. -1.
</event>
<event>
 8    1  0.1063984E+005  0.1043930E+01  0.7957747E-01            NaN
         13   -1    0    0    0    0  0.00000000000E+00  0.00000000000E+00  0.74505805969E-08  0.10566000000E+00  0.10566000000E+00 0. -1.
     999900   -1    0    0    0    0 -0.00000000000E+00 -0.00000000000E+00 -0.74505805969E-08  0.93827000000E+00  0.93827000000E+00 0. -1.
     999902    2    1    2    0    0  0.11868277598E-01 -0.18945777152E-01  0.77887667118E-02  0.10202558924E+01  0.10199811874E+01 0.  0.
     999903    2    3    3    0    0 -0.68080558321E-01  0.96041357849E-01 -0.45874695688E-01  0.12756690690E+00  0.17604635575E-01 0.  0.
         14    1    1    2    0    0 -0.11868277598E-01  0.18945777152E-01 -0.77887667118E-02  0.23674107627E-01  0.00000000000E+00 0.  1.
     999901    1    3    3    0    0  0.79948835919E-01 -0.11498713500E+00  0.53663462400E-01  0.89268898547E+00  0.88000000000E+00 0. -1.
        -11    1    4    4    0    0 -0.64797311156E-01  0.82623298309E-01 -0.38060633294E-01  0.11168784126E+00  0.51100000000E-03 0.  1.
         11    1    4    4    0    0 -0.32832471647E-02  0.13418059540E-01 -0.78140623943E-02  0.15879065649E-01  0.51100000000E-03 0. -1.
</event>
<event>
 8    1  0.1063984E+005  0.1043930E+01  0.7957747E-01            NaN
         13   -1    0    0    0    0  0.00000000000E+00  0.00000000000E+00  0.74505805969E-08  0.10566000000E+00  0.10566000000E+00 0. -1.
     999900   -1    0    0    0    0 -0.00000000000E+00 -0.00000000000E+00 -0.74505805969E-08  0.93827000000E+00  0.93827000000E+00 0. -1.
     999902    2    1    2    0    0 -0.15253530508E-01 -0.18177671207E-01  0.22744190388E-02  0.10200915666E+01  0.10198129894E+01 0.  0.
     999903    2    3    3    0    0 -0.42328897855E-01  0.61144622997E-01 -0.10451517972E+00  0.12968204272E+00  0.19068531545E-01 0.  0.
         14    1    1    2    0    0  0.15253530508E-01  0.18177671207E-01 -0.22744190388E-02  0.23838433368E-01  0.00000000000E+00 0. -1.
     999901    1    3    3    0    0  0.27075367346E-01 -0.79322294204E-01  0.10678959876E+00  0.89040952392E+00  0.88000000000E+00 0. -1.
        -11    1    4    4    0    0 -0.35939860176E-01  0.56155626726E-01 -0.81631534524E-01  0.10539969882E+00  0.51100000000E-03 0. -1.
         11    1    4    4    0    0 -0.63890376790E-02  0.49889962711E-02 -0.22883645201E-01  0.24282343893E-01  0.51100000000E-03 0.  1.
</event>
<event>
 8    1  0.1063984E+005  0.1043930E+01  0.7957747E-01            NaN
         13   -1    0    0    0    0  0.00000000000E+00  0.00000000000E+00  0.74505805969E-08  0.10566000000E+00  0.10566000000E+00 0. -1.
     999900   -1    0    0    0    0 -0.00000000000E+00 -0.00000000000E+00 -0.74505805969E-08  0.93827000000E+00  0.93827000000E+00 0.  1.
     999902    2    1    2    0    0 -0.21275105382E-01 -0.10871748523E-01 -0.93357991442E-02  0.10182788369E+01  0.10179557001E+01 0.  0.
     999903    2    3    3    0    0  0.72154197999E-01  0.43683712643E-01  0.91391583345E-01  0.12594967189E+00  0.19909879530E-01 0.  0.
         14    1    1    2    0    0  0.21275105382E-01  0.10871748523E-01  0.93357991442E-02  0.25651163143E-01  0.00000000000E+00 0. -1.
     999901    1    3    3    0    0 -0.93429303380E-01 -0.54555461166E-01 -0.10072738249E+00  0.89232916497E+00  0.88000000000E+00 0.  1.
        -11    1    4    4    0    0  0.16460011556E-01  0.12123824323E-02  0.15005235257E-01  0.22311881536E-01  0.51100000000E-03 0. -1.
         11    1    4    4    0    0  0.55694186443E-01  0.42471330211E-01  0.76386348089E-01  0.10363779035E+00  0.51100000000E-03 0.  1.
</event>
<event>
 8    1  0.1063984E+005  0.1043930E+01  0.7957747E-01            NaN
         13   -1    0    0    0    0  0.00000000000E+00  0.00000000000E+00  0.74505805969E-08  0.10566000000E+00  0.10566000000E+00 0. -1.
     999900   -1    0    0    0    0 -0.00000000000E+00 -0.00000000000E+00 -0.74505805969E-08  0.93827000000E+00  0.93827000000E+00 0.  1.
     999902    2    1    2    0    0 -0.21627475991E-01  0.51558360870E-02 -0.76182069790E-02  0.10204275014E+01  0.10201568106E+01 0.  0.
     999903    2    3    3    0    0 -0.12671030074E+00 -0.35782095629E-01 -0.15510905495E-02  0.13320987069E+00  0.20164451084E-01 0.  0.
         14    1    1    2    0    0  0.21627475991E-01 -0.51558360870E-02  0.76182069790E-02  0.23502498614E-01  0.00000000000E+00 0.  1.
     999901    1    3    3    0    0  0.10508282475E+00  0.40937931716E-01 -0.60671164295E-02  0.88721763069E+00  0.88000000000E+00 0.  1.
        -11    1    4    4    0    0 -0.80873114341E-01 -0.26756803852E-01 -0.98669333922E-02  0.85755493534E-01  0.51100000000E-03 0. -1.
         11    1    4    4    0    0 -0.45837186397E-01 -0.90252917772E-02  0.83158428426E-02  0.47454377160E-01  0.51100000000E-03 0.  1.
</event>
<event>
 8    1  0.1063984E+005  0.1043930E+01  0.7957747E-01            NaN
         13   -1    0    0    0    0  0.00000000000E+00  0.00000000000E+00  0.74505805969E-08  0.10566000000E+00  0.10566000000E+00 0.  1.
     999900   -1    0    0    0    0 -0.00000000000E+00 -0.00000000000E+00 -0.74505805969E-08  0.93827000000E+00  0.93827000000E+00 0.  1.
     999902    2    1    2    0    0  0.22092438766E-01  0.63118012532E-02  0.54542010617E-02  0.10203151107E+01  0.10200417943E+01 0.  0.
     999903    2    3    3    0    0 -0.80709880937E-01 -0.54388736202E-01 -0.80819477558E-01  0.12807298003E+00  0.19966991628E-01 0.  0.
         14    1    1    2    0    0 -0.22092438766E-01 -0.63118012532E-02 -0.54542010617E-02  0.23614889263E-01  0.00000000000E+00 0.  1.
     999901    1    3    3    0    0  0.10280231970E+00  0.60700537456E-01  0.86273678620E-01  0.89224213071E+00  0.88000000000E+00 0. -1.
        -11    1    4    4    0    0 -0.71585694108E-01 -0.49773832777E-01 -0.63169907461E-01  0.10766914303E+00  0.51100000000E-03 0. -1.
         11    1    4    4    0    0 -0.91241868289E-02 -0.46149034251E-02 -0.17649570098E-01  0.20403837006E-01  0.51100000000E-03 0.  1.
</event>
<event>
 8    1  0.1063984E+005  0.1043930E+01  0.7957747E-01            NaN
         13   -1    0    0    0    0  0.00000000000E+00  0.00000000000E+00  0.74505805969E-08  0.10566000000E+00  0.10566000000E+00 0.  1.
     999900   -1    0    0    0    0 -0.00000000000E+00 -0.00000000000E+00 -0.74505805969E-08  0.93827000000E+00  0.93827000000E+00 0.  1.
     999902    2    1    2    0    0  0.75873993132E-02  0.20178946203E-01  0.99935226799E-02  0.10201680768E+01  0.10198913059E+01 0.  0.
     999903    2    3    3    0    0  0.85759062316E-01 -0.82946793368E-01  0.47175823311E-01  0.12992751913E+00  0.20513766657E-01 0.  0.
         14    1    1    2    0    0 -0.75873993132E-02 -0.20178946203E-01 -0.99935226799E-02  0.23761923191E-01  0.00000000000E+00 0. -1.
     999901    1    3    3    0    0 -0.78171663002E-01  0.10312573957E+00 -0.37182300631E-01  0.89024055768E+00  0.88000000000E+00 0.  1.
        -11    1    4    4    0    0  0.40384965514E-01 -0.31202448557E-01  0.11129746152E-01  0.52236678741E-01  0.51100000000E-03 0. -1.
         11    1    4    4    0    0  0.45374096802E-01 -0.51744344811E-01  0.36046077159E-01  0.77690840387E-01  0.51100000000E-03 0.  1.
</event>
<event>
 8    1  0.1063984E+005  0.1043930E+01  0.7957747E-01            NaN
         13   -1    0    0    0    0  0.00000000000E+00  0.00000000000E+00  0.74505805969E-08  0.10566000000E+00  0.10566000000E+00 0.  1.
     999900   -1    0    0    0    0 -0.00000000000E+00 -0.00000000000E+00 -0.74505805969E-08  0.93827000000E+00  0.93827000000E+00 0.  1.
     999902    2    1    2    0    0  0.15410908008E-01 -0.96432913556E-02  0.15279632194E-01  0.10201822356E+01  0.10199057984E+01 0.  0.
     999903    2    3    3    0    0  0.38555919653E-01  0.15527477268E-01 -0.12057818343E+00  0.12910053047E+00  0.20004678416E-01 0.  0.
         14    1    1    2    0    0 -0.15410908008E-01  0.96432913556E-02 -0.15279632194E-01  0.23747764396E-01  0.00000000000E+00 0. -1.
     999901    1    3    3    0    0 -0.23145011645E-01 -0.25170768624E-01  0.13585781562E+00  0.89108170513E+00  0.88000000000E+00 0. -1.
        -11    1    4    4    0    0  0.18849164199E-01  0.68910545474E-02 -0.86468493910E-01  0.88768458271E-01  0.51100000000E-03 0. -1.
         11    1    4    4    0    0  0.19706755454E-01  0.86364227209E-02 -0.34109689518E-01  0.40332072200E-01  0.51100000000E-03 0.  1.
</event>
<event>
 8    1  0.1063984E+005  0.1043930E+01  0.7957747E-01            NaN
         13   -1    0    0    0    0  0.00000000000E+00  0.00000000000E+00  0.74505805969E-08  0.10566000000E+00  0.10566000000E+00 0. -1.
     999900   -1    0    0    0    0 -0.00000000000E+00 -0.00000000000E+00 -0.74505805969E-08  0.93827000000E+00  0.93827000000E+00 0. -1.
     999902    2    1    2    0    0  0.15987092359E-01  0.20239414115E-01 -0.69614204288E-02  0.10172151655E+01  0.10168643030E+01 0.  0.
     999903    2    3    3    0    0  0.32238714962E-02 -0.11935099414E+00 -0.33819695524E-01  0.12571656833E+00  0.20145237600E-01 0.  0.
         14    1    1    2    0    0 -0.15987092359E-01 -0.20239414115E-01  0.69614204288E-02  0.26714834459E-01  0.00000000000E+00 0. -1.
     999901    1    3    3    0    0  0.12763220862E-01  0.13959040826E+00  0.26858275095E-01  0.89149859721E+00  0.88000000000E+00 0. -1.
        -11    1    4    4    0    0  0.44348081600E-02 -0.98081853934E-01 -0.35346899027E-01  0.10435220164E+00  0.51100000000E-03 0. -1.
         11    1    4    4    0    0 -0.12109366638E-02 -0.21269140207E-01  0.15272035039E-02  0.21364366695E-01  0.51100000000E-03 0.  1.
</event>
<event>
 8    1  0.1063984E+005  0.1043930E+01  0.7957747E-01            NaN
         13   -1    0    0    0    0  0.00000000000E+00  0.00000000000E+00  0.74505805969E-08  0.10566000000E+00  0.10566000000E+00 0. -1.
     999900   -1    0    0    0    0 -0.00000000000E+00 -0.00000000000E+00 -0.74505805969E-08  0.93827000000E+00  0.93827000000E+00 0. -1.
     999902    2    1    2    0    0  0.23653441980E-01 -0.93480294482E-02  0.48024972250E-04  0.10184962964E+01  0.10181786840E+01 0.  0.
     999903    2    3    3    0    0 -0.77778461588E-01 -0.16631817442E-01 -0.97374460484E-01  0.12729899766E+00  0.19928442271E-01 0.  0.
         14    1    1    2    0    0 -0.23653441980E-01  0.93480294482E-02 -0.48024972250E-04  0.25433703593E-01  0.00000000000E+00 0.  1.
     999901    1    3    3    0    0  0.10143190357E+00  0.72837879942E-02  0.97422485456E-01  0.89119729875E+00  0.88000000000E+00 0. -1.
        -11    1    4    4    0    0 -0.17084787994E-01  0.97274214191E-05 -0.33609303173E-01  0.37705920705E-01  0.51100000000E-03 0. -1.
         11    1    4    4    0    0 -0.60693673594E-01 -0.16641544864E-01 -0.63765157311E-01  0.89593076952E-01  0.51100000000E-03 0.  1.
</event>
<event>
 8    1  0.1063984E+005  0.1043930E+01  0.7957747E-01            NaN
         13   -1    0    0    0    0  0.00000000000E+00  0.00000000000E+00  0.74505805969E-08  0.10566000000E+00  0.10566000000E+00 0.  1.
     999900   -1    0    0    0    0 -0.00000000000E+00 -0.00000000000E+00 -0.74505805969E-08  0.93827000000E+00  0.93827000000E+00 0.  1.
     999902    2    1    2    0    0  0.22035767219E-01 -0.54708294440E-02  0.72700164311E-02  0.10200897368E+01  0.10198111163E+01 0.  0.
     999903    2    3    3    0    0 -0.33414014892E-01  0.10049946086E+00  0.72087919656E-01  0.12963718816E+00  0.19811470597E-01 0.  0.
         14    1    1    2    0    0 -0.22035767219E-01  0.54708294440E-02 -0.72700164311E-02  0.23840263225E-01  0.00000000000E+00 0.  1.
     999901    1    3    3    0    0  0.55449782111E-01 -0.10597029031E+00 -0.64817903225E-01  0.89045254862E+00  0.88000000000E+00 0.  1.
        -11    1    4    4    0    0 -0.22588135003E-01  0.37326412867E-01  0.30354850389E-01  0.53152262450E-01  0.51100000000E-03 0. -1.
         11    1    4    4    0    0 -0.10825879889E-01  0.63173047998E-01  0.41733069267E-01  0.76484925706E-01  0.51100000000E-03 0.  1.
</event>
<event>
 8    1  0.1063984E+005  0.1043930E+01  0.7957747E-01            NaN
         13   -1    0    0    0    0  0.00000000000E+00  0.00000000000E+00  0.74505805969E-08  0.10566000000E+00  0.10566000000E+00 0. -1.
     999900   -1    0    0    0    0 -0.00000000000E+00 -0.00000000000E+00 -0.74505805969E-08  0.93827000000E+00  0.93827000000E+00 0.  1.
     999902    2    1    2    0    0  0.34906924790E-02  0.19311588714E-01 -0.65211831819E-02  0.10232503428E+01  0.10230413558E+01 0.  0.
     999903    2    3    3    0    0  0.97177877357E-01 -0.31696807218E-01  0.81833161631E-01  0.13241610718E+00  0.19726420443E-01 0.  0.
         14    1    1    2    0    0 -0.34906924790E-02 -0.19311588714E-01  0.65211831819E-02  0.20679657220E-01  0.00000000000E+00 0. -1.
     999901    1    3    3    0    0 -0.93687184878E-01  0.51008395932E-01 -0.88354344813E-01  0.89083423560E+00  0.88000000000E+00 0.  1.
        -11    1    4    4    0    0  0.30979795363E-01 -0.34262775309E-02  0.33214250726E-01  0.45551450808E-01  0.51100000000E-03 0. -1.
         11    1    4    4    0    0  0.66198081994E-01 -0.28270529687E-01  0.48618910905E-01  0.86864656374E-01  0.51100000000E-03 0.  1.
</event>
<event>
 8    1  0.1063984E+005  0.1043930E+01  0.7957747E-01            NaN
         13   -1    0    0    0    0  0.00000000000E+00  0.00000000000E+00  0.74505805969E-08  0.10566000000E+00  0.10566000000E+00 0.  1.
     999900   -1    0    0    0    0 -0.00000000000E+00 -0.00000000000E+00 -0.74505805969E-08  0.93827000000E+00  0.93827000000E+00 0. -1.
     999902    2    1    2    0    0  0.91850944925E-02 -0.19505482563E-01 -0.10951101144E-01  0.10197482625E+01  0.10194615061E+01 0.  0.
     999903    2    3    3    0    0 -0.36795951890E-01 -0.11469085604E+00  0.48693969738E-01  0.13141721701E+00  0.19785037339E-01 0.  0.
         14    1    1    2    0    0 -0.91850944925E-02  0.19505482563E-01  0.10951101144E-01  0.24181737471E-01  0.00000000000E+00 0. -1.
     999901    1    3    3    0    0  0.45981046383E-01  0.95185373480E-01 -0.59645070882E-01  0.88833104552E+00  0.88000000000E+00 0. -1.
        -11    1    4    4    0    0 -0.25811569826E-01 -0.86743665679E-01  0.27259484702E-01  0.94520057658E-01  0.51100000000E-03 0. -1.
         11    1    4    4    0    0 -0.10984382064E-01 -0.27947190364E-01  0.21434485036E-01  0.36897159353E-01  0.51100000000E-03 0.  1.
</event>
<event>
 8    1  0.1063984E+005  0.1043930E+01  0.7957747E-01            NaN
         13   -1    0    0    0    0  0.00000000000E+00  0.00000000000E+00  0.74505805969E-08  0.10566000000E+00  0.10566000000E+00 0. -1.
     999900   -1    0    0    0    0 -0.00000000000E+00 -0.00000000000E+00 -0.74505805969E-08  0.93827000000E+00  0.93827000000E+00 0.  1.
     999902    2    1    2    0    0  0.20182752811E-01  0.37680397951E-02 -0.12798289515E-01  0.10197362436E+01  0.10194491987E+01 0.  0.
     999903    2    3    3    0    0 -0.10766696668E+00  0.56820526050E-01 -0.36294015921E-01  0.12860653012E+00  0.20040860812E-01 0.  0.
         14    1    1    2    0    0 -0.20182752811E-01 -0.37680397951E-02  0.12798289515E-01  0.24193756414E-01  0.00000000000E+00 0. -1.
     999901    1    3    3    0    0  0.12784971949E+00 -0.53052486255E-01  0.23495726406E-01  0.89112971347E+00  0.88000000000E+00 0.  1.
        -11    1    4    4    0    0 -0.76085358174E-01  0.29513035616E-01 -0.24959269654E-01  0.85341825985E-01  0.51100000000E-03 0.  1.
         11    1    4    4    0    0 -0.31581608506E-01  0.27307490434E-01 -0.11334746267E-01  0.43264704131E-01  0.51100000000E-03 0. -1.
</event>
<event>
 8    1  0.1298048E+005  0.1043930E+01  0.7957747E-01            NaN
         13   -1    0    0    0    0  0.00000000000E+00  0.00000000000E+00  0.74505805969E-08  0.10566000000E+00  0.10566000000E+00 0. -1.
     999900   -1    0    0    0    0 -0.00000000000E+00 -0.00000000000E+00 -0.74505805969E-08  0.93827000000E+00  0.93827000000E+00 0. -1.
     999902    2    1    2    0    0  0.69518476484E-03  0.11282740267E-02 -0.24177036847E-01  0.10197166691E+01  0.10194291539E+01 0.  0.
     999903    2    3    3    0    0  0.13394758234E-01  0.62326122114E-01 -0.11483765127E+00  0.13285376941E+00  0.19961784787E-01 0.  0.
         14    1    1    2    0    0 -0.69518476484E-03 -0.11282740267E-02  0.24177036847E-01  0.24213330932E-01  0.00000000000E+00 0. -1.
     999901    1    3    3    0    0 -0.12699573470E-01 -0.61197848088E-01  0.90660614424E-01  0.88686289966E+00  0.88000000000E+00 0.  1.
        -11    1    4    4    0    0  0.16084230492E-01  0.28764617630E-01 -0.61521488551E-01  0.69794415052E-01  0.51100000000E-03 0.  1.
         11    1    4    4    0    0 -0.26894722573E-02  0.33561504484E-01 -0.53316162719E-01  0.63059354360E-01  0.51100000000E-03 0. -1.
</event>
<event>
 8    1  0.1063984E+005  0.1043930E+01  0.7957747E-01            NaN
         13   -1    0    0    0    0  0.00000000000E+00  0.00000000000E+00  0.74505805969E-08  0.10566000000E+00  0.10566000000E+00 0.  1.
     999900   -1    0    0    0    0 -0.00000000000E+00 -0.00000000000E+00 -0.74505805969E-08  0.93827000000E+00  0.93827000000E+00 0.  1.
     999902    2    1    2    0    0 -0.11651323712E-01 -0.51592541222E-02  0.20227604290E-01  0.10200233645E+01  0.10197431720E+01 0.  0.
     999903    2    3    3    0    0  0.10697322746E+00  0.43103496827E-01  0.57906363688E-01  0.12995552088E+00  0.15300575849E-01 0.  0.
         14    1    1    2    0    0  0.11651323712E-01  0.51592541222E-02 -0.20227604290E-01  0.23906635536E-01  0.00000000000E+00 0. -1.
     999901    1    3    3    0    0 -0.11862455117E+00 -0.48262750949E-01 -0.37678759398E-01  0.89006784358E+00  0.88000000000E+00 0.  1.
        -11    1    4    4    0    0  0.30129859985E-01  0.67681180973E-02  0.20613656084E-01  0.37132193895E-01  0.51100000000E-03 0. -1.
         11    1    4    4    0    0  0.76843367470E-01  0.36335378729E-01  0.37292707605E-01  0.92823326988E-01  0.51100000000E-03 0.  1.
</event>
<event>
 8    1  0.1063984E+005  0.1043930E+01  0.7957747E-01            NaN
         13   -1    0    0    0    0  0.00000000000E+00  0.00000000000E+00  0.74505805969E-08  0.10566000000E+00  0.10566000000E+00 0.  1.
     999900   -1    0    0    0    0 -0.00000000000E+00 -0.00000000000E+00 -0.74505805969E-08  0.93827000000E+00  0.93827000000E+00 0. -1.
     999902    2    1    2    0    0  0.25013113913E-01  0.15485294516E-01 -0.65882058097E-02  0.10137827834E+01  0.10133344350E+01 0.  0.
     999903    2    3    3    0    0 -0.31808905853E-01  0.11265912275E+00  0.41375765122E-01  0.12531666848E+00  0.16983198416E-01 0.  0.
         14    1    1    2    0    0 -0.25013113913E-01 -0.15485294516E-01  0.65882058097E-02  0.30147216615E-01  0.00000000000E+00 0.  1.
     999901    1    3    3    0    0  0.56822019765E-01 -0.97173828238E-01 -0.47963970932E-01  0.88846611490E+00  0.88000000000E+00 0. -1.
        -11    1    4    4    0    0 -0.19822851143E-01  0.59067074906E-01  0.13599707094E-01  0.63773645963E-01  0.51100000000E-03 0. -1.
         11    1    4    4    0    0 -0.11986054710E-01  0.53592047848E-01  0.27776058028E-01  0.61543022518E-01  0.51100000000E-03 0.  1.
</event>
<event>
 8    1  0.1063984E+005  0.1043930E+01  0.7957747E-01            NaN
         13   -1    0    0    0    0  0.00000000000E+00  0.00000000000E+00  0.74505805969E-08  0.10566000000E+00  0.10566000000E+00 0. -1.
     999900   -1    0    0    0    0 -0.00000000000E+00 -0.00000000000E+00 -0.74505805969E-08  0.93827000000E+00  0.93827000000E+00 0.  1.
     999902    2    1    2    0    0  0.19292610032E-01 -0.12983877128E-01 -0.32770063256E-02  0.10204454383E+01  0.10201751653E+01 0.  0.
     999903    2    3    3    0    0  0.12628265624E+00 -0.38348738756E-01 -0.84972859203E-02  0.13358722106E+00  0.18852234134E-01 0.  0.
         14    1    1    2    0    0 -0.19292610032E-01  0.12983877128E-01  0.32770063256E-02  0.23484561686E-01  0.00000000000E+00 0.  1.
     999901    1    3    3    0    0 -0.10699004621E+00  0.25364861628E-01  0.52202795947E-02  0.88685821725E+00  0.88000000000E+00 0. -1.
        -11    1    4    4    0    0  0.49790959645E-01 -0.23389401706E-01  0.13186739212E-02  0.55029117714E-01  0.51100000000E-03 0.  1.
         11    1    4    4    0    0  0.76491696593E-01 -0.14959337051E-01 -0.98159598414E-02  0.78558103345E-01  0.51100000000E-03 0. -1.
</event>
<event>
 8    1  0.1063984E+005  0.1043930E+01  0.7957747E-01            NaN
         13   -1    0    0    0    0  0.00000000000E+00  0.00000000000E+00  0.74505805969E-08  0.10566000000E+00  0.10566000000E+00 0. -1.
     999900   -1    0    0    0    0 -0.00000000000E+00 -0.00000000000E+00 -0.74505805969E-08  0.93827000000E+00  0.93827000000E+00 0. -1.
     999902    2    1    2    0    0  0.15545788270E-01 -0.10762435878E-01  0.13766241476E-01  0.10205417345E+01  0.10202736990E+01 0.  0.
     999903    2    3    3    0    0  0.11566581600E+00 -0.48830296973E-01 -0.37816933832E-01  0.13254736178E+00  0.19383078643E-01 0.  0.
         14    1    1    2    0    0 -0.15545788270E-01  0.10762435878E-01 -0.13766241476E-01  0.23388265505E-01  0.00000000000E+00 0. -1.
     999901    1    3    3    0    0 -0.10012002773E+00  0.38067861095E-01  0.51583175307E-01  0.88799437272E+00  0.88000000000E+00 0. -1.
        -11    1    4    4    0    0  0.16862204964E-01 -0.16644089178E-02 -0.96123212148E-02  0.19487484533E-01  0.51100000000E-03 0. -1.
         11    1    4    4    0    0  0.98803611032E-01 -0.47165888055E-01 -0.28204612617E-01  0.11305987725E+00  0.51100000000E-03 0.  1.
</event>
<event>
 8    1  0.1063984E+005  0.1043930E+01  0.7957747E-01            NaN
         13   -1    0    0    0    0  0.00000000000E+00  0.00000000000E+00  0.74505805969E-08  0.10566000000E+00  0.10566000000E+00 0. -1.
     999900   -1    0    0    0    0 -0.00000000000E+00 -0.00000000000E+00 -0.74505805969E-08  0.93827000000E+00  0.93827000000E+00 0.  1.
     999902    2    1    2    0    0  0.18915856399E-01  0.12989069930E-01 -0.39908706276E-02  0.10206393880E+01  0.10203736118E+01 0.  0.
     999903    2    3    3    0    0  0.58189880996E-01 -0.79143692855E-01  0.83673807656E-01  0.13063040440E+00  0.20327569900E-01 0.  0.
         14    1    1    2    0    0 -0.18915856399E-01 -0.12989069930E-01  0.39908706276E-02  0.23290612043E-01  0.00000000000E+00 0.  1.
     999901    1    3    3    0    0 -0.39274024597E-01  0.92132762784E-01 -0.87664678284E-01  0.89000898355E+00  0.88000000000E+00 0.  1.
        -11    1    4    4    0    0  0.29568265732E-01 -0.31501479114E-01  0.25492090250E-01  0.50167054040E-01  0.51100000000E-03 0.  1.
         11    1    4    4    0    0  0.28621615265E-01 -0.47642213740E-01  0.58181717406E-01  0.80463350364E-01  0.51100000000E-03 0. -1.
</event>
<event>
 8    1  0.1063984E+005  0.1043930E+01  0.7957747E-01            NaN
         13   -1    0    0    0    0  0.00000000000E+00  0.00000000000E+00  0.74505805969E-08  0.10566000000E+00  0.10566000000E+00 0.  1.
     999900   -1    0    0    0    0 -0.00000000000E+00 -0.00000000000E+00 -0.74505805969E-08  0.93827000000E+00  0.93827000000E+00 0.  1.
     999902    2    1    2    0    0 -0.51796228457E-02  0.16239155406E-01 -0.16859749122E-01  0.10199552257E+01  0.10196734147E+01 0.  0.
     999903    2    3    3    0    0  0.26546791426E-01 -0.27901942001E-01 -0.12443781013E+00  0.13173901272E+00  0.19676086484E-01 0.  0.
         14    1    1    2    0    0  0.51796228457E-02 -0.16239155406E-01  0.16859749122E-01  0.23974774275E-01  0.00000000000E+00 0.  1.
     999901    1    3    3    0    0 -0.31726414272E-01  0.44141097407E-01  0.10757806101E+00  0.88821621301E+00  0.88000000000E+00 0. -1.
        -11    1    4    4    0    0  0.13943794023E-01 -0.27253720333E-01 -0.88283938796E-01  0.93442547237E-01  0.51100000000E-03 0. -1.
         11    1    4    4    0    0  0.12602997403E-01 -0.64822166809E-03 -0.36153871331E-01  0.38296465478E-01  0.51100000000E-03 0.  1.
</event>
<event>
 8    1  0.1063984E+005  0.1043930E+01  0.7957747E-01            NaN
         13   -1    0    0    0    0  0.00000000000E+00  0.00000000000E+00  0.74505805969E-08  0.10566000000E+00  0.10566000000E+00 0. -1.
     999900   -1    0    0    0    0 -0.00000000000E+00 -0.00000000000E+00 -0.74505805969E-08  0.93827000000E+00  0.93827000000E+00 0.  1.
     999902    2    1    2    0    0 -0.49169859883E-02 -0.24116455598E-01  0.15387353828E-02  0.10192693453E+01  0.10189709763E+01 0.  0.
     999903    2    3    3    0    0  0.71253215767E-01 -0.72271688588E-01  0.81391923348E-01  0.13107040494E+00  0.15955818237E-01 0.  0.
         14    1    1    2    0    0  0.49169859883E-02  0.24116455598E-01 -0.15387353828E-02  0.24660654663E-01  0.00000000000E+00 0. -1.
     999901    1    3    3    0    0 -0.76170201755E-01  0.48155232990E-01 -0.79853187965E-01  0.88819894040E+00  0.88000000000E+00 0.  1.
        -11    1    4    4    0    0  0.30255364720E-01 -0.29151076591E-01  0.23938723246E-01  0.48357997812E-01  0.51100000000E-03 0.  1.
         11    1    4    4    0    0  0.40997851047E-01 -0.43120611997E-01  0.57453200101E-01  0.82712407125E-01  0.51100000000E-03 0. -1.
</event>
<event>
 8    1  0.1063984E+005  0.1043930E+01  0.7957747E-01            NaN
         13   -1    0    0    0    0  0.00000000000E+00  0.00000000000E+00  0.74505805969E-08  0.10566000000E+00  0.10566000000E+00 0.  1.
     999900   -1    0    0    0    0 -0.00000000000E+00 -0.00000000000E+00 -0.74505805969E-08  0.93827000000E+00  0.93827000000E+00 0. -1.
     999902    2    1    2    0    0 -0.18221367547E-02  0.32324676923E-03  0.23511019059E-01  0.10203462622E+01  0.10200736749E+01 0.  0.
     999903    2    3    3    0    0 -0.13284432338E-02  0.28627150078E-02  0.13226025677E+00  0.13364840537E+00  0.18951539159E-01 0.  0.
         14    1    1    2    0    0  0.18221367547E-02 -0.32324676923E-03 -0.23511019059E-01  0.23583737787E-01  0.00000000000E+00 0. -1.
     999901    1    3    3    0    0 -0.49369352088E-03 -0.25394682386E-02 -0.10874923771E+00  0.88669785685E+00  0.88000000000E+00 0. -1.
        -11    1    4    4    0    0 -0.46388961115E-02 -0.32560466925E-02  0.13080803366E-01  0.14264982821E-01  0.51100000000E-03 0.  1.
         11    1    4    4    0    0  0.33104528777E-02  0.61187617003E-02  0.11917945341E+00  0.11938342255E+00  0.51100000000E-03 0. -1.
</event>
<event>
 8    1  0.1063984E+005  0.1043930E+01  0.7957747E-01            NaN
         13   -1    0    0    0    0  0.00000000000E+00  0.00000000000E+00  0.74505805969E-08  0.10566000000E+00  0.10566000000E+00 0.  1.
     999900   -1    0    0    0    0 -0.00000000000E+00 -0.00000000000E+00 -0.74505805969E-08  0.93827000000E+00  0.93827000000E+00 0.  1.
     999902    2    1    2    0    0  0.77668782548E-02  0.15685185839E-01  0.17005192723E-01  0.10195265979E+01  0.10192344960E+01 0.  0.
     999903    2    3    3    0    0  0.93956615294E-01  0.76906311638E-02 -0.85937933449E-01  0.12930759629E+00  0.21169191930E-01 0.  0.
         14    1    1    2    0    0 -0.77668782548E-02 -0.15685185839E-01 -0.17005192723E-01  0.24403402061E-01  0.00000000000E+00 0. -1.
     999901    1    3    3    0    0 -0.86189737039E-01  0.79945546754E-02  0.10294312617E+00  0.89021900165E+00  0.88000000000E+00 0.  1.
        -11    1    4    4    0    0  0.56549344827E-01  0.86897225374E-04 -0.38484635234E-01  0.68404416682E-01  0.51100000000E-03 0.  1.
         11    1    4    4    0    0  0.37407270467E-01  0.76037339384E-02 -0.47453298215E-01  0.60903179605E-01  0.51100000000E-03 0. -1.
</event>
<event>
 8    1  0.1063984E+005  0.1043930E+01  0.7957747E-01            NaN
         13   -1    0    0    0    0  0.00000000000E+00  0.00000000000E+00  0.74505805969E-08  0.10566000000E+00  0.10566000000E+00 0. -1.
     999900   -1    0    0    0    0 -0.00000000000E+00 -0.00000000000E+00 -0.74505805969E-08  0.93827000000E+00  0.93827000000E+00 0. -1.
     999902    2    1    2    0    0 -0.26234511617E-02  0.10103983702E-01 -0.20828737160E-01  0.10206317324E+01  0.10203657794E+01 0.  0.
     999903    2    3    3    0    0  0.46346323373E-01  0.10844802389E+00 -0.58242049582E-01  0.13301168697E+00  0.19774148647E-01 0.  0.
         14    1    1    2    0    0  0.26234511617E-02 -0.10103983702E-01  0.20828737160E-01  0.23298267625E-01  0.00000000000E+00 0. -1.
     999901    1    3    3    0    0 -0.48969774535E-01 -0.98344040191E-01  0.37413312422E-01  0.88762004541E+00  0.88000000000E+00 0.  1.
        -11    1    4    4    0    0  0.48079130213E-01  0.10076774694E+00 -0.53511236970E-01  0.12381217706E+00  0.51100000000E-03 0. -1.
         11    1    4    4    0    0 -0.17328068396E-02  0.76802769492E-02 -0.47308126114E-02  0.91995099068E-02  0.51100000000E-03 0.  1.
</event>
<event>
 8    1  0.1063984E+005  0.1043930E+01  0.7957747E-01            NaN
         13   -1    0    0    0    0  0.00000000000E+00  0.00000000000E+00  0.74505805969E-08  0.10566000000E+00  0.10566000000E+00 0. -1.
     999900   -1    0    0    0    0 -0.00000000000E+00 -0.00000000000E+00 -0.74505805969E-08  0.93827000000E+00  0.93827000000E+00 0.  1.
     999902    2    1    2    0    0 -0.12440926490E-01  0.19957581387E-02 -0.17464566305E-01  0.10223946621E+01  0.10221678308E+01 0.  0.
     999903    2    3    3    0    0  0.99176487483E-01 -0.72167379468E-01  0.39115922054E-01  0.13045297692E+00  0.21066976565E-01 0.  0.
         14    1    1    2    0    0  0.12440926490E-01 -0.19957581387E-02  0.17464566305E-01  0.21535337905E-01  0.00000000000E+00 0. -1.
     999901    1    3    3    0    0 -0.11161741397E+00  0.74163137607E-01 -0.56580488359E-01  0.89194168517E+00  0.88000000000E+00 0. -1.
        -11    1    4    4    0    0  0.72851323381E-01 -0.60799563326E-01  0.23330014312E-01  0.97716185495E-01  0.51100000000E-03 0.  1.
         11    1    4    4    0    0  0.26325164102E-01 -0.11367816142E-01  0.15785907741E-01  0.32736791429E-01  0.51100000000E-03 0. -1.
</event>
<event>
 8    1  0.1063984E+005  0.1043930E+01  0.7957747E-01            NaN
         13   -1    0    0    0    0  0.00000000000E+00  0.00000000000E+00  0.74505805969E-08  0.10566000000E+00  0.10566000000E+00 0. -1.
     999900   -1    0    0    0    0 -0.00000000000E+00 -0.00000000000E+00 -0.74505805969E-08  0.93827000000E+00  0.93827000000E+00 0.  1.
     999902    2    1    2    0    0 -0.32671748307E-02  0.12600026186E-01  0.94187359589E-02  0.10278630252E+01  0.10277374426E+01 0.  0.
     999903    2    3    3    0    0 -0.12512482925E+00 -0.40092230731E-01  0.35086852272E-01  0.13753465093E+00  0.20520310548E-01 0.  0.
         14    1    1    2    0    0  0.32671748307E-02 -0.12600026186E-01 -0.94187359589E-02  0.16066974772E-01  0.00000000000E+00 0.  1.
     999901    1    3    3    0    0  0.12185765442E+00  0.52692256917E-01 -0.25668116313E-01  0.89032837429E+00  0.88000000000E+00 0.  1.
        -11    1    4    4    0    0 -0.25159712866E-01 -0.46298845196E-03  0.32006083832E-02  0.25371845121E-01  0.51100000000E-03 0. -1.
         11    1    4    4    0    0 -0.99965116384E-01 -0.39629242279E-01  0.31886243889E-01  0.11216280581E+00  0.51100000000E-03 0.  1.
</event>
<event>
 8    1  0.1063984E+005  0.1043930E+01  0.7957747E-01            NaN
         13   -1    0    0    0    0  0.00000000000E+00  0.00000000000E+00  0.74505805969E-08  0.10566000000E+00  0.10566000000E+00 0.  1.
     999900   -1    0    0    0    0 -0.00000000000E+00 -0.00000000000E+00 -0.74505805969E-08  0.93827000000E+00  0.93827000000E+00 0. -1.
     999902    2    1    2    0    0  0.10657884148E-01  0.15314065279E-01  0.84303860834E-02  0.10234560532E+01  0.10232512449E+01 0.  0.
     999903    2    3    3    0    0  0.92785110398E-01  0.18739478042E-01  0.94522416071E-01  0.13544228504E+00  0.21210391011E-01 0.  0.
         14    1    1    2    0    0 -0.10657884148E-01 -0.15314065279E-01 -0.84303860834E-02  0.20473946844E-01  0.00000000000E+00 0. -1.
     999901    1    3    3    0    0 -0.82127226250E-01 -0.34254127630E-02 -0.86092029988E-01  0.88801376812E+00  0.88000000000E+00 0. -1.
        -11    1    4    4    0    0  0.55220445744E-01  0.21378076729E-01  0.54348814993E-01  0.80376455538E-01  0.51100000000E-03 0. -1.
         11    1    4    4    0    0  0.37564664654E-01 -0.26385986869E-02  0.40173601079E-01  0.55065829497E-01  0.51100000000E-03 0.  1.
</event>
<event>
 8    1  0.1063984E+005  0.1043930E+01  0.7957747E-01            NaN
         13   -1    0    0    0    0  0.00000000000E+00  0.00000000000E+00  0.74505805969E-08  0.10566000000E+00  0.10566000000E+00 0. -1.
     999900   -1    0    0    0    0 -0.00000000000E+00 -0.00000000000E+00 -0.74505805969E-08  0.93827000000E+00  0.93827000000E+00 0.  1.
     999902    2    1    2    0    0 -0.10622550616E-01  0.21972423375E-01 -0.11557176478E-02  0.10194972013E+01  0.10192043866E+01 0.  0.
     999903    2    3    3    0    0  0.31374621755E-02 -0.73899685998E-01  0.10280453778E+00  0.12810024479E+00  0.19232588724E-01 0.  0.
         14    1    1    2    0    0  0.10622550616E-01 -0.21972423375E-01  0.11557176478E-02  0.24432798731E-01  0.00000000000E+00 0. -1.
     999901    1    3    3    0    0 -0.13760012792E-01  0.95872109373E-01 -0.10396025542E+00  0.89139695648E+00  0.88000000000E+00 0. -1.
        -11    1    4    4    0    0  0.18359721658E-02 -0.65618281590E-01  0.99215679813E-01  0.11896697825E+00  0.51100000000E-03 0.  1.
         11    1    4    4    0    0  0.13014900097E-02 -0.82814044082E-02  0.35888579620E-02  0.91332665400E-02  0.51100000000E-03 0. -1.
</event>
<event>
 8    1  0.1063984E+005  0.1043930E+01  0.7957747E-01            NaN
         13   -1    0    0    0    0  0.00000000000E+00  0.00000000000E+00  0.74505805969E-08  0.10566000000E+00  0.10566000000E+00 0. -1.
     999900   -1    0    0    0    0 -0.00000000000E+00 -0.00000000000E+00 -0.74505805969E-08  0.93827000000E+00  0.93827000000E+00 0. -1.
     999902    2    1    2    0    0  0.50567046902E-02  0.13095339658E-01  0.19724720682E-01  0.10197200271E+01  0.10194325926E+01 0.  0.
     999903    2    3    3    0    0  0.62819599530E-01 -0.74617267067E-01 -0.80209007711E-01  0.12785860092E+00  0.20007455626E-01 0.  0.
         14    1    1    2    0    0 -0.50567046902E-02 -0.13095339658E-01 -0.19724720682E-01  0.24209972926E-01  0.00000000000E+00 0.  1.
     999901    1    3    3    0    0 -0.57762894840E-01  0.87712606725E-01  0.99933728393E-01  0.89186142616E+00  0.88000000000E+00 0.  1.
        -11    1    4    4    0    0  0.30190453511E-01 -0.49472542692E-01 -0.41081495985E-01  0.71041863693E-01  0.51100000000E-03 0.  1.
         11    1    4    4    0    0  0.32629146019E-01 -0.25144724375E-01 -0.39127511726E-01  0.56816737223E-01  0.51100000000E-03 0. -1.
</event>
<event>
 8    1  0.1063984E+005  0.1043930E+01  0.7957747E-01            NaN
         13   -1    0    0    0    0  0.00000000000E+00  0.00000000000E+00  0.74505805969E-08  0.10566000000E+00  0.10566000000E+00 0. -1.
     999900   -1    0    0    0    0 -0.00000000000E+00 -0.00000000000E+00 -0.74505805969E-08  0.93827000000E+00  0.93827000000E+00 0.  1.
     999902    2    1    2    0    0  0.12916066653E-01  0.18344596904E-01 -0.80500791628E-02  0.10200940442E+01  0.10198155256E+01 0.  0.
     999903    2    3    3    0    0  0.16335657186E-01  0.13029043222E+00 -0.77915003898E-02  0.13299561084E+00  0.19613123159E-01 0.  0.
         14    1    1    2    0    0 -0.12916066653E-01 -0.18344596904E-01  0.80500791628E-02  0.23835955779E-01  0.00000000000E+00 0.  1.
     999901    1    3    3    0    0 -0.34195905331E-02 -0.11194583532E+00 -0.25857877300E-03  0.88709843338E+00  0.88000000000E+00 0.  1.
        -11    1    4    4    0    0  0.42762299699E-02  0.24132455864E-01  0.60812294911E-02  0.25256762300E-01  0.51100000000E-03 0. -1.
         11    1    4    4    0    0  0.12059427216E-01  0.10615797636E+00 -0.13872729881E-01  0.10773884854E+00  0.51100000000E-03 0.  1.
</event>
<event>
 7    1  0.1063984E+005  0.1043930E+01  0.7957747E-01            NaN
         13   -1    0    0    0    0  0.00000000000E+00  0.00000000000E+00  0.74505805969E-08  0.10566000000E+00  0.10566000000E+00 0.  1.
     999900   -1    0    0    0    0 -0.00000000000E+00 -0.00000000000E+00 -0.74505805969E-08  0.93827000000E+00  0.93827000000E+00 0. -1.
     999903    2    1    2    0    0  0.58871329601E-01  0.66883818071E-01 -0.73468992476E-01  0.11795313774E+00  0.23999401637E-01 0.  0.
         14    1    1    2    0    0 -0.29868171610E-01 -0.23348307279E-01 -0.13269871721E-01  0.40166411634E-01  0.00000000000E+00 0.  1.
     999901    1    1    2    0    0 -0.29003157991E-01 -0.43535510792E-01  0.86738864197E-01  0.88581045062E+00  0.88000000000E+00 0.  1.
        -11    1    3    3    0    0  0.30197423249E-01  0.24897964620E-01 -0.45145950057E-01  0.59751242169E-01  0.51100000000E-03 0.  1.
         11    1    3    3    0    0  0.28673906352E-01  0.41985853450E-01 -0.28323042419E-01  0.58201895573E-01  0.51100000000E-03 0. -1.
</event>
<event>
 8    1  0.1063984E+005  0.1043930E+01  0.7957747E-01            NaN
         13   -1    0    0    0    0  0.00000000000E+00  0.00000000000E+00  0.74505805969E-08  0.10566000000E+00  0.10566000000E+00 0.  1.
     999900   -1    0    0    0    0 -0.00000000000E+00 -0.00000000000E+00 -0.74505805969E-08  0.93827000000E+00  0.93827000000E+00 0.  1.
     999902    2    1    2    0    0  0.54952313821E-02 -0.78736108929E-02  0.12035670789E-01  0.10285336145E+01  0.10284183718E+01 0.  0.
     999903    2    3    3    0    0  0.11125975781E+00  0.30652194441E-01 -0.72507615350E-01  0.13734455485E+00  0.16967077911E-01 0.  0.
         14    1    1    2    0    0 -0.54952313821E-02  0.78736108929E-02 -0.12035670789E-01  0.15396385543E-01  0.00000000000E+00 0. -1.
     999901    1    3    3    0    0 -0.10576452642E+00 -0.38525805334E-01  0.84543286139E-01  0.89118905960E+00  0.88000000000E+00 0.  1.
        -11    1    4    4    0    0  0.10380398195E+00  0.24043993586E-01 -0.67958782228E-01  0.12638052658E+00  0.51100000000E-03 0.  1.
         11    1    4    4    0    0  0.74557758593E-02  0.66082008553E-02 -0.45488331218E-02  0.10964028273E-01  0.51100000000E-03 0. -1.
</event>
<event>
 8    1  0.1063984E+005  0.1043930E+01  0.7957747E-01            NaN
         13   -1    0    0    0    0  0.00000000000E+00  0.00000000000E+00  0.74505805969E-08  0.10566000000E+00  0.10566000000E+00 0.  1.
     999900   -1    0    0    0    0 -0.00000000000E+00 -0.00000000000E+00 -0.74505805969E-08  0.93827000000E+00  0.93827000000E+00 0. -1.
     999902    2    1    2    0    0  0.18328812174E-02  0.20918685090E-01  0.12682230784E-01  0.10193985953E+01  0.10191033835E+01 0.  0.
     999903    2    3    3    0    0  0.98039003585E-01  0.48594697698E-01  0.70877890539E-01  0.13181292930E+00  0.19439189671E-01 0.  0.
         14    1    1    2    0    0 -0.18328812174E-02 -0.20918685090E-01 -0.12682230784E-01  0.24531404711E-01  0.00000000000E+00 0. -1.
     999901    1    3    3    0    0 -0.96206122368E-01 -0.27676012609E-01 -0.58195659756E-01  0.88758566599E+00  0.88000000000E+00 0. -1.
        -11    1    4    4    0    0  0.31558602365E-01  0.22923206940E-01  0.17402916073E-01  0.42714650981E-01  0.51100000000E-03 0.  1.
         11    1    4    4    0    0  0.66480401220E-01  0.25671490758E-01  0.53474974467E-01  0.89098278319E-01  0.51100000000E-03 0. -1.
</event>
<event>
 8    1  0.1063984E+005  0.1043930E+01  0.7957747E-01            NaN
         13   -1    0    0    0    0  0.00000000000E+00  0.00000000000E+00  0.74505805969E-08  0.10566000000E+00  0.10566000000E+00 0.  1.
     999900   -1    0    0    0    0 -0.00000000000E+00 -0.00000000000E+00 -0.74505805969E-08  0.93827000000E+00  0.93827000000E+00 0. -1.
     999902    2    1    2    0    0  0.90342023049E-02 -0.64045260594E-02  0.21210575501E-01  0.10200025413E+01  0.10197218547E+01 0.  0.
     999903    2    3    3    0    0  0.36483568430E-01  0.12209692339E+00  0.18751997472E-01  0.13024294750E+00  0.19310062073E-01 0.  0.
         14    1    1    2    0    0 -0.90342023049E-02  0.64045260594E-02 -0.21210575501E-01  0.23927458670E-01  0.00000000000E+00 0. -1.
     999901    1    3    3    0    0 -0.27449366125E-01 -0.12850144945E+00  0.24585780289E-02  0.88975959383E+00  0.88000000000E+00 0. -1.
        -11    1    4    4    0    0  0.13921413582E-01  0.79188691398E-01  0.11652757980E-01  0.81244707464E-01  0.51100000000E-03 0. -1.
         11    1    4    4    0    0  0.22562154848E-01  0.42908231991E-01  0.70992394920E-02  0.48998240033E-01  0.51100000000E-03 0.  1.
</event>
<event>
 7    1  0.1063984E+005  0.1043930E+01  0.7957747E-01            NaN
         13   -1    0    0    0    0  0.00000000000E+00  0.00000000000E+00  0.74505805969E-08  0.10566000000E+00  0.10566000000E+00 0.  1.
     999900   -1    0    0    0    0 -0.00000000000E+00 -0.00000000000E+00 -0.74505805969E-08  0.93827000000E+00  0.93827000000E+00 0.  1.
     999903    2    1    2    0    0  0.61532841569E-01  0.46392175683E-01  0.84256474078E-01  0.11509813001E+00  0.14487979521E-01 0.  0.
         14    1    1    2    0    0  0.29768721527E-01 -0.19410391874E-01  0.14133527926E-01  0.38245218076E-01  0.00000000000E+00 0.  1.
     999901    1    1    2    0    0 -0.91301563096E-01 -0.26981783809E-01 -0.98390002003E-01  0.89058665192E+00  0.88000000000E+00 0.  1.
        -11    1    3    3    0    0  0.24712573219E-01  0.27156977178E-01  0.36045907463E-01  0.51456595791E-01  0.51100000000E-03 0. -1.
         11    1    3    3    0    0  0.36820268350E-01  0.19235198505E-01  0.48210566614E-01  0.63641534214E-01  0.51100000000E-03 0.  1.
</event>
<event>
 8    1  0.1063984E+005  0.1043930E+01  0.7957747E-01            NaN
         13   -1    0    0    0    0  0.00000000000E+00  0.00000000000E+00  0.74505805969E-08  0.10566000000E+00  0.10566000000E+00 0.  1.
     999900   -1    0    0    0    0 -0.00000000000E+00 -0.00000000000E+00 -0.74505805969E-08  0.93827000000E+00  0.93827000000E+00 0.  1.
     999902    2    1    2    0    0 -0.49798350113E-02  0.22109646207E-01  0.69348806073E-02  0.10202292029E+01  0.10199538709E+01 0.  0.
     999903    2    3    3    0    0  0.11997216217E+00  0.20357095449E-01 -0.41854604885E-01  0.13006265284E+00  0.18887950715E-01 0.  0.
         14    1    1    2    0    0  0.49798350113E-02 -0.22109646207E-01 -0.69348806073E-02  0.23700797058E-01  0.00000000000E+00 0.  1.
     999901    1    3    3    0    0 -0.12495199718E+00  0.17525507580E-02  0.48789485492E-01  0.89016655011E+00  0.88000000000E+00 0. -1.
        -11    1    4    4    0    0  0.39246738633E-01 -0.11546254520E-02 -0.89630841543E-02  0.40277011456E-01  0.51100000000E-03 0.  1.
         11    1    4    4    0    0  0.80725423535E-01  0.21511720901E-01 -0.32891520731E-01  0.89785641380E-01  0.51100000000E-03 0. -1.
</event>
<event>
 8    1  0.1063984E+005  0.1043930E+01  0.7957747E-01            NaN
         13   -1    0    0    0    0  0.00000000000E+00  0.00000000000E+00  0.74505805969E-08  0.10566000000E+00  0.10566000000E+00 0.  1.
     999900   -1    0    0    0    0 -0.00000000000E+00 -0.00000000000E+00 -0.74505805969E-08  0.93827000000E+00  0.93827000000E+00 0.  1.
     999902    2    1    2    0    0  0.12937719399E-01 -0.12636896168E-01  0.14121016736E-01  0.10209848732E+01  0.10207270118E+01 0.  0.
     999903    2    3    3    0    0 -0.79860608000E-01 -0.50087396199E-01  0.90513960151E-01  0.13202483403E+00  0.18743421531E-01 0.  0.
         14    1    1    2    0    0 -0.12937719399E-01  0.12636896168E-01 -0.14121016736E-01  0.22945126752E-01  0.00000000000E+00 0. -1.
     999901    1    3    3    0    0  0.92798327399E-01  0.37450500031E-01 -0.76392943414E-01  0.88896003922E+00  0.88000000000E+00 0. -1.
        -11    1    4    4    0    0 -0.36841923010E-01 -0.14914143284E-01  0.46220614243E-01  0.60961998516E-01  0.51100000000E-03 0. -1.
         11    1    4    4    0    0 -0.43018684989E-01 -0.35173252915E-01  0.44293345908E-01  0.71062835515E-01  0.51100000000E-03 0.  1.
</event>
<event>
 8    1  0.1063984E+005  0.1043930E+01  0.7957747E-01            NaN
         13   -1    0    0    0    0  0.00000000000E+00  0.00000000000E+00  0.74505805969E-08  0.10566000000E+00  0.10566000000E+00 0. -1.
     999900   -1    0    0    0    0 -0.00000000000E+00 -0.00000000000E+00 -0.74505805969E-08  0.93827000000E+00  0.93827000000E+00 0. -1.
     999902    2    1    2    0    0  0.18272929771E-01  0.13402755106E-01  0.69355949225E-02  0.10202311333E+01  0.10199558466E+01 0.  0.
     999903    2    3    3    0    0  0.78228734868E-01  0.98299912052E-01 -0.38545343183E-01  0.13294834772E+00  0.20172060176E-01 0.  0.
         14    1    1    2    0    0 -0.18272929771E-01 -0.13402755106E-01 -0.69355949225E-02  0.23698866720E-01  0.00000000000E+00 0.  1.
     999901    1    3    3    0    0 -0.59955805096E-01 -0.84897156945E-01  0.45480938106E-01  0.88728278556E+00  0.88000000000E+00 0.  1.
        -11    1    4    4    0    0  0.71644978469E-02  0.46939495450E-02  0.16512930999E-02  0.87379105988E-02  0.51100000000E-03 0. -1.
         11    1    4    4    0    0  0.71064237021E-01  0.93605962507E-01 -0.40196636283E-01  0.12421043712E+00  0.51100000000E-03 0.  1.
</event>
<event>
 8    1  0.1063984E+005  0.1043930E+01  0.7957747E-01            NaN
         13   -1    0    0    0    0  0.00000000000E+00  0.00000000000E+00  0.74505805969E-08  0.10566000000E+00  0.10566000000E+00 0.  1.
     999900   -1    0    0    0    0 -0.00000000000E+00 -0.00000000000E+00 -0.74505805969E-08  0.93827000000E+00  0.93827000000E+00 0.  1.
     999902    2    1    2    0    0  0.10465842783E-01  0.17380094768E-01 -0.12997406344E-01  0.10198357241E+01  0.10195510630E+01 0.  0.
     999903    2    3    3    0    0  0.11272422932E+00 -0.56303213633E-01 -0.29722087627E-01  0.13069809555E+00  0.17938393061E-01 0.  0.
         14    1    1    2    0    0 -0.10465842783E-01 -0.17380094768E-01  0.12997406344E-01  0.24094275897E-01  0.00000000000E+00 0.  1.
     999901    1    3    3    0    0 -0.10225838653E+00  0.73683308401E-01  0.16724681283E-01  0.88913762856E+00  0.88000000000E+00 0.  1.
        -11    1    4    4    0    0  0.77055582768E-01 -0.38841573498E-01 -0.28794776641E-01  0.90970494944E-01  0.51100000000E-03 0. -1.
         11    1    4    4    0    0  0.35668646550E-01 -0.17461640135E-01 -0.92731098565E-03  0.39727600602E-01  0.51100000000E-03 0.  1.
</event>
<event>
 8    1  0.1063984E+005  0.1043930E+01  0.7957747E-01            NaN
         13   -1    0    0    0    0  0.00000000000E+00  0.00000000000E+00  0.74505805969E-08  0.10566000000E+00  0.10566000000E+00 0.  1.
     999900   -1    0    0    0    0 -0.00000000000E+00 -0.00000000000E+00 -0.74505805969E-08  0.93827000000E+00  0.93827000000E+00 0.  1.
     999902    2    1    2    0    0  0.18563029410E-01 -0.10471169520E-01  0.11280437336E-01  0.10198161094E+01  0.10195309791E+01 0.  0.
     999903    2    3    3    0    0  0.77064311785E-01 -0.10323396071E+00  0.25757896309E-01  0.13289055884E+00  0.20006814110E-01 0.  0.
         14    1    1    2    0    0 -0.18563029410E-01  0.10471169520E-01 -0.11280437336E-01  0.24113890571E-01  0.00000000000E+00 0.  1.
     999901    1    3    3    0    0 -0.58501282375E-01  0.92762791194E-01 -0.14477458973E-01  0.88692555059E+00  0.88000000000E+00 0. -1.
        -11    1    4    4    0    0  0.50156407734E-01 -0.81838488638E-01  0.19322284655E-01  0.97912283523E-01  0.51100000000E-03 0.  1.
         11    1    4    4    0    0  0.26907904051E-01 -0.21395472076E-01  0.64356116533E-02  0.34978275317E-01  0.51100000000E-03 0. -1.
</event>
<event>
 8    1  0.1063984E+005  0.1043930E+01  0.7957747E-01            NaN
         13   -1    0    0    0    0  0.00000000000E+00  0.00000000000E+00  0.74505805969E-08  0.10566000000E+00  0.10566000000E+00 0.  1.
     999900   -1    0    0    0    0 -0.00000000000E+00 -0.00000000000E+00 -0.74505805969E-08  0.93827000000E+00  0.93827000000E+00 0.  1.
     999902    2    1    2    0    0 -0.23107207501E-01  0.10932328581E-02 -0.26076207118E-02  0.10206504407E+01  0.10203849196E+01 0.  0.
     999903    2    3    3    0    0  0.90515359963E-01 -0.83962933196E-01 -0.31201596573E-01  0.12881959647E+00  0.19445931856E-01 0.  0.
         14    1    1    2    0    0  0.23107207501E-01 -0.10932328581E-02  0.26076207118E-02  0.23279559325E-01  0.00000000000E+00 0.  1.
     999901    1    3    3    0    0 -0.11362256746E+00  0.85056166054E-01  0.28593975861E-01  0.89183084421E+00  0.88000000000E+00 0.  1.
        -11    1    4    4    0    0  0.35944972781E-01 -0.43262674138E-01 -0.75706558292E-02  0.56756285930E-01  0.51100000000E-03 0. -1.
         11    1    4    4    0    0  0.54570387181E-01 -0.40700259058E-01 -0.23630940744E-01  0.72063310540E-01  0.51100000000E-03 0.  1.
</event>
<event>
 8    1  0.1063984E+005  0.1043930E+01  0.7957747E-01            NaN
         13   -1    0    0    0    0  0.00000000000E+00  0.00000000000E+00  0.74505805969E-08  0.10566000000E+00  0.10566000000E+00 0. -1.
     999900   -1    0    0    0    0 -0.00000000000E+00 -0.00000000000E+00 -0.74505805969E-08  0.93827000000E+00  0.93827000000E+00 0. -1.
     999902    2    1    2    0    0  0.17681071488E-01 -0.14015031295E-01 -0.70739771824E-02  0.10202850736E+01  0.10200110533E+01 0.  0.
     999903    2    3    3    0    0  0.13566362182E-02  0.11780222005E+00  0.49015910285E-01  0.12855173318E+00  0.15613620113E-01 0.  0.
         14    1    1    2    0    0 -0.17681071488E-01  0.14015031295E-01  0.70739771824E-02  0.23644926397E-01  0.00000000000E+00 0. -1.
     999901    1    3    3    0    0  0.16324435270E-01 -0.13181725134E+00 -0.56089887468E-01  0.89173334042E+00  0.88000000000E+00 0.  1.
        -11    1    4    4    0    0 -0.47509595821E-02  0.65316214849E-01  0.21209294903E-01  0.68839486128E-01  0.51100000000E-03 0.  1.
         11    1    4    4    0    0  0.61075958003E-02  0.52486005200E-01  0.27806615383E-01  0.59712247055E-01  0.51100000000E-03 0. -1.
</event>
<event>
 8    1  0.1063984E+005  0.1043930E+01  0.7957747E-01            NaN
         13   -1    0    0    0    0  0.00000000000E+00  0.00000000000E+00  0.74505805969E-08  0.10566000000E+00  0.10566000000E+00 0. -1.
     999900   -1    0    0    0    0 -0.00000000000E+00 -0.00000000000E+00 -0.74505805969E-08  0.93827000000E+00  0.93827000000E+00 0. -1.
     999902    2    1    2    0    0  0.13853690296E-01  0.18426310452E-01  0.51731987910E-02  0.10203034125E+01  0.10200298221E+01 0.  0.
     999903    2    3    3    0    0 -0.29909167254E-01  0.23862675600E-01 -0.12264567664E+00  0.12997627785E+00  0.19694802143E-01 0.  0.
         14    1    1    2    0    0 -0.13853690296E-01 -0.18426310452E-01 -0.51731987910E-02  0.23626587511E-01  0.00000000000E+00 0.  1.
     999901    1    3    3    0    0  0.43762857550E-01 -0.54363651481E-02  0.12781887543E+00  0.89032713464E+00  0.88000000000E+00 0.  1.
        -11    1    4    4    0    0 -0.31537579871E-01  0.18472730533E-01 -0.95685389952E-01  0.10242956452E+00  0.51100000000E-03 0.  1.
         11    1    4    4    0    0  0.16284126167E-02  0.53899450671E-02 -0.26960286688E-01  0.27546713321E-01  0.51100000000E-03 0. -1.
</event>
<event>
 8    1  0.1063984E+005  0.1043930E+01  0.7957747E-01            NaN
         13   -1    0    0    0    0  0.00000000000E+00  0.00000000000E+00  0.74505805969E-08  0.10566000000E+00  0.10566000000E+00 0.  1.
     999900   -1    0    0    0    0 -0.00000000000E+00 -0.00000000000E+00 -0.74505805969E-08  0.93827000000E+00  0.93827000000E+00 0. -1.
     999902    2    1    2    0    0 -0.12313219458E-01  0.88711885313E-02 -0.19037971088E-01  0.10195833842E+01  0.10192926565E+01 0.  0.
     999903    2    3    3    0    0  0.50939435379E-03 -0.12498786276E+00 -0.27431050082E-01  0.12932886505E+00  0.18742131829E-01 0.  0.
         14    1    1    2    0    0  0.12313219458E-01 -0.88711885313E-02  0.19037971088E-01  0.24346615833E-01  0.00000000000E+00 0.  1.
     999901    1    3    3    0    0 -0.12822613812E-01  0.13385905129E+00  0.83930789940E-02  0.89025451912E+00  0.88000000000E+00 0. -1.
        -11    1    4    4    0    0 -0.48708675431E-02 -0.11050501435E+00 -0.27016245500E-01  0.11386492958E+00  0.51100000000E-03 0. -1.
         11    1    4    4    0    0  0.53802618969E-02 -0.14482848415E-01 -0.41480458207E-03  0.15463935467E-01  0.51100000000E-03 0.  1.
</event>
<event>
 8    1  0.1150556E+005  0.1043930E+01  0.7957747E-01            NaN
         13   -1    0    0    0    0  0.00000000000E+00  0.00000000000E+00  0.74505805969E-08  0.10566000000E+00  0.10566000000E+00 0.  1.
     999900   -1    0    0    0    0 -0.00000000000E+00 -0.00000000000E+00 -0.74505805969E-08  0.93827000000E+00  0.93827000000E+00 0. -1.
     999902    2    1    2    0    0 -0.51637696431E-02 -0.22719271768E-01  0.35718663815E-02  0.10203590845E+01  0.10200867970E+01 0.  0.
     999903    2    3    3    0    0 -0.12834937453E+00 -0.15266872857E-01 -0.14469388634E-01  0.13156455350E+00  0.19830007109E-01 0.  0.
         14    1    1    2    0    0  0.51637696431E-02  0.22719271768E-01 -0.35718663815E-02  0.23570915468E-01  0.00000000000E+00 0.  1.
     999901    1    3    3    0    0  0.12318560489E+00 -0.74523989105E-02  0.18041255015E-01  0.88879453103E+00  0.88000000000E+00 0.  1.
        -11    1    4    4    0    0 -0.78596097163E-01 -0.11156690574E-01  0.68923208062E-03  0.79388628882E-01  0.51100000000E-03 0.  1.
         11    1    4    4    0    0 -0.49753277368E-01 -0.41101822833E-02 -0.15158620715E-01  0.52175924623E-01  0.51100000000E-03 0. -1.
</event>
<event>
 8    1  0.1063984E+005  0.1043930E+01  0.7957747E-01            NaN
         13   -1    0    0    0    0  0.00000000000E+00  0.00000000000E+00  0.74505805969E-08  0.10566000000E+00  0.10566000000E+00 0. -1.
     999900   -1    0    0    0    0 -0.00000000000E+00 -0.00000000000E+00 -0.74505805969E-08  0.93827000000E+00  0.93827000000E+00 0.  1.
     999902    2    1    2    0    0 -0.12367438794E-01 -0.16332977123E-01  0.10899705686E-01  0.10207238959E+01  0.10204600670E+01 0.  0.
     999903    2    3    3    0    0 -0.31714975551E-01  0.12268180177E+00 -0.15204456993E-01  0.12921906514E+00  0.20241717441E-01 0.  0.
         14    1    1    2    0    0  0.12367438794E-01  0.16332977123E-01 -0.10899705686E-01  0.23206104112E-01  0.00000000000E+00 0. -1.
     999901    1    3    3    0    0  0.19347536756E-01 -0.13901477889E+00  0.26104162679E-01  0.89150483074E+00  0.88000000000E+00 0. -1.
        -11    1    4    4    0    0 -0.12132273450E-01  0.66166956899E-01 -0.16969942307E-01  0.69379379553E-01  0.51100000000E-03 0. -1.
         11    1    4    4    0    0 -0.19582702101E-01  0.56514844870E-01  0.17654853145E-02  0.59839685592E-01  0.51100000000E-03 0.  1.
</event>
<event>
 8    1  0.1063984E+005  0.1043930E+01  0.7957747E-01            NaN
         13   -1    0    0    0    0  0.00000000000E+00  0.00000000000E+00  0.74505805969E-08  0.10566000000E+00  0.10566000000E+00 0. -1.
     999900   -1    0    0    0    0 -0.00000000000E+00 -0.00000000000E+00 -0.74505805969E-08  0.93827000000E+00  0.93827000000E+00 0. -1.
     999902    2    1    2    0    0  0.16283910420E-02 -0.24210245151E-01  0.31415944413E-02  0.10194625268E+01  0.10191688704E+01 0.  0.
     999903    2    3    3    0    0 -0.90685649104E-01 -0.41289971398E-01 -0.81196291950E-01  0.13045944577E+00  0.22317716553E-01 0.  0.
         14    1    1    2    0    0 -0.16283910420E-02  0.24210245151E-01 -0.31415944413E-02  0.24467473170E-01  0.00000000000E+00 0.  1.
     999901    1    3    3    0    0  0.92314040146E-01  0.17079726247E-01  0.84337886392E-01  0.88900308106E+00  0.88000000000E+00 0.  1.
        -11    1    4    4    0    0 -0.54920841909E-01 -0.14415229184E-01 -0.52304899471E-01  0.77202081177E-01  0.51100000000E-03 0. -1.
         11    1    4    4    0    0 -0.35764807195E-01 -0.26874742214E-01 -0.28891392480E-01  0.53257364591E-01  0.51100000000E-03 0.  1.
</event>
<event>
 8    1  0.1063984E+005  0.1043930E+01  0.7957747E-01            NaN
         13   -1    0    0    0    0  0.00000000000E+00  0.00000000000E+00  0.74505805969E-08  0.10566000000E+00  0.10566000000E+00 0.  1.
     999900   -1    0    0    0    0 -0.00000000000E+00 -0.00000000000E+00 -0.74505805969E-08  0.93827000000E+00  0.93827000000E+00 0. -1.
     999902    2    1    2    0    0  0.21832160224E-01  0.30745883944E-02 -0.97495861593E-02  0.10198229317E+01  0.10195379646E+01 0.  0.
     999903    2    3    3    0    0  0.97222667808E-01  0.59252720049E-01 -0.65173840915E-01  0.13308082759E+00  0.22354980730E-01 0.  0.
         14    1    1    2    0    0 -0.21832160224E-01 -0.30745883944E-02  0.97495861593E-02  0.24107068343E-01  0.00000000000E+00 0.  1.
     999901    1    3    3    0    0 -0.75390507584E-01 -0.56178131655E-01  0.55424254756E-01  0.88674210407E+00  0.88000000000E+00 0.  1.
        -11    1    4    4    0    0  0.72343679600E-01  0.32322051558E-01 -0.41658706013E-01  0.89521125455E-01  0.51100000000E-03 0. -1.
         11    1    4    4    0    0  0.24878988208E-01  0.26930668492E-01 -0.23515134902E-01  0.43559702135E-01  0.51100000000E-03 0.  1.
</event>
<event>
 8    1  0.1063984E+005  0.1043930E+01  0.7957747E-01            NaN
         13   -1    0    0    0    0  0.00000000000E+00  0.00000000000E+00  0.74505805969E-08  0.10566000000E+00  0.10566000000E+00 0. -1.
     999900   -1    0    0    0    0 -0.00000000000E+00 -0.00000000000E+00 -0.74505805969E-08  0.93827000000E+00  0.93827000000E+00 0.  1.
     999902    2    1    2    0    0  0.21433226106E-01 -0.32072681348E-02 -0.96782497261E-02  0.10201952519E+01  0.10199191212E+01 0.  0.
     999903    2    3    3    0    0 -0.17592701274E-01  0.12624450911E+00  0.10596450518E-01  0.12963820761E+00  0.21132933782E-01 0.  0.
         14    1    1    2    0    0 -0.21433226106E-01  0.32072681348E-02  0.96782497261E-02  0.23734748113E-01  0.00000000000E+00 0.  1.
     999901    1    3    3    0    0  0.39025927381E-01 -0.12945177725E+00 -0.20274700244E-01  0.89055704428E+00  0.88000000000E+00 0. -1.
        -11    1    4    4    0    0 -0.89154199823E-02  0.30086929840E-01 -0.51777070024E-02  0.31808455346E-01  0.51100000000E-03 0. -1.
         11    1    4    4    0    0 -0.86772812918E-02  0.96157579271E-01  0.15774157521E-01  0.97829752265E-01  0.51100000000E-03 0.  1.
</event>
<event>
 8    1  0.1063984E+005  0.1043930E+01  0.7957747E-01            NaN
         13   -1    0    0    0    0  0.00000000000E+00  0.00000000000E+00  0.74505805969E-08  0.10566000000E+00  0.10566000000E+00 0.  1.
     999900   -1    0    0    0    0 -0.00000000000E+00 -0.00000000000E+00 -0.74505805969E-08  0.93827000000E+00  0.93827000000E+00 0. -1.
     999902    2    1    2    0    0 -0.77559986963E-02 -0.23502561037E-01 -0.33099628412E-02  0.10189603836E+01  0.10186543975E+01 0.  0.
     999903    2    3    3    0    0  0.58201766689E-01 -0.10912831333E+00 -0.40186971898E-01  0.13158103398E+00  0.20053462959E-01 0.  0.
         14    1    1    2    0    0  0.77559986963E-02  0.23502561037E-01  0.33099628412E-02  0.24969616438E-01  0.00000000000E+00 0. -1.
     999901    1    3    3    0    0 -0.65957765386E-01  0.85625752293E-01  0.36877009057E-01  0.88737934958E+00  0.88000000000E+00 0.  1.
        -11    1    4    4    0    0  0.50891694627E-01 -0.90398793694E-01 -0.25941964534E-01  0.10693527542E+00  0.51100000000E-03 0.  1.
         11    1    4    4    0    0  0.73100720624E-02 -0.18729519635E-01 -0.14245007364E-01  0.24645758563E-01  0.51100000000E-03 0. -1.
</event>
<event>
 8    1  0.1063984E+005  0.1043930E+01  0.7957747E-01            NaN
         13   -1    0    0    0    0  0.00000000000E+00  0.00000000000E+00  0.74505805969E-08  0.10566000000E+00  0.10566000000E+00 0.  1.
     999900   -1    0    0    0    0 -0.00000000000E+00 -0.00000000000E+00 -0.74505805969E-08  0.93827000000E+00  0.93827000000E+00 0. -1.
     999902    2    1    2    0    0 -0.42938746436E-02  0.23419841722E-01  0.16917880137E-01  0.10147214223E+01  0.10143009532E+01 0.  0.
     999903    2    3    3    0    0 -0.62781828661E-01  0.10988401752E+00  0.88642583555E-02  0.12851503812E+00  0.20530090837E-01 0.  0.
         14    1    1    2    0    0  0.42938746436E-02 -0.23419841722E-01 -0.16917880137E-01  0.29208577748E-01  0.00000000000E+00 0. -1.
     999901    1    3    3    0    0  0.58487954017E-01 -0.86464175795E-01  0.80536217813E-02  0.88620638414E+00  0.88000000000E+00 0. -1.
        -11    1    4    4    0    0 -0.20641630709E-01  0.40706986238E-01  0.12835247453E-01  0.47414558366E-01  0.51100000000E-03 0. -1.
         11    1    4    4    0    0 -0.42140197952E-01  0.69177031280E-01 -0.39709890974E-02  0.81100479749E-01  0.51100000000E-03 0.  1.
</event>
<event>
 8    1  0.1063984E+005  0.1043930E+01  0.7957747E-01            NaN
         13   -1    0    0    0    0  0.00000000000E+00  0.00000000000E+00  0.74505805969E-08  0.10566000000E+00  0.10566000000E+00 0.  1.
     999900   -1    0    0    0    0 -0.00000000000E+00 -0.00000000000E+00 -0.74505805969E-08  0.93827000000E+00  0.93827000000E+00 0. -1.
     999902    2    1    2    0    0 -0.15892001601E-01  0.16491672727E-01  0.98618537327E-03  0.10210061359E+01  0.10207487575E+01 0.  0.
     999903    2    3    3    0    0 -0.32763265369E-01 -0.11185409594E+00  0.53889631937E-01  0.12996402098E+00  0.20044549953E-01 0.  0.
         14    1    1    2    0    0  0.15892001601E-01 -0.16491672727E-01 -0.98618537327E-03  0.22923864112E-01  0.00000000000E+00 0. -1.
     999901    1    3    3    0    0  0.16871263768E-01  0.12834576867E+00 -0.52903446564E-01  0.89104211491E+00  0.88000000000E+00 0. -1.
        -11    1    4    4    0    0 -0.24946331184E-01 -0.78207005850E-01  0.47463194971E-01  0.94824423022E-01  0.51100000000E-03 0.  1.
         11    1    4    4    0    0 -0.78169341848E-02 -0.33647090093E-01  0.64264369662E-02  0.35139597961E-01  0.51100000000E-03 0. -1.
</event>
<event>
 8    1  0.1063984E+005  0.1043930E+01  0.7957747E-01            NaN
         13   -1    0    0    0    0  0.00000000000E+00  0.00000000000E+00  0.74505805969E-08  0.10566000000E+00  0.10566000000E+00 0. -1.
     999900   -1    0    0    0    0 -0.00000000000E+00 -0.00000000000E+00 -0.74505805969E-08  0.93827000000E+00  0.93827000000E+00 0.  1.
     999902    2    1    2    0    0  0.18007841280E-01  0.14388496321E-01 -0.27800492759E-02  0.10207127683E+01  0.10204486834E+01 0.  0.
     999903    2    3    3    0    0 -0.92950344530E-01 -0.81365544098E-01 -0.28587587590E-01  0.12821818328E+00  0.19040326796E-01 0.  0.
         14    1    1    2    0    0 -0.18007841280E-01 -0.14388496321E-01  0.27800492759E-02  0.23217231703E-01  0.00000000000E+00 0. -1.
     999901    1    3    3    0    0  0.11095818581E+00  0.95754040419E-01  0.25807538314E-01  0.89249458502E+00  0.88000000000E+00 0.  1.
        -11    1    4    4    0    0 -0.78272075881E-01 -0.58409445170E-01 -0.24154228007E-01  0.10060749972E+00  0.51100000000E-03 0.  1.
         11    1    4    4    0    0 -0.14678268648E-01 -0.22956098928E-01 -0.44333595826E-02  0.27610683561E-01  0.51100000000E-03 0. -1.
</event>
<event>
 8    1  0.1063984E+005  0.1043930E+01  0.7957747E-01            NaN
         13   -1    0    0    0    0  0.00000000000E+00  0.00000000000E+00  0.74505805969E-08  0.10566000000E+00  0.10566000000E+00 0. -1.
     999900   -1    0    0    0    0 -0.00000000000E+00 -0.00000000000E+00 -0.74505805969E-08  0.93827000000E+00  0.93827000000E+00 0.  1.
     999902    2    1    2    0    0  0.26537121122E-01  0.22454234514E-01  0.40077681573E-03  0.10091654769E+01  0.10085665014E+01 0.  0.
     999903    2    3    3    0    0 -0.11087244996E+00 -0.17228474232E-01  0.28338148547E-01  0.11718083333E+00  0.18405883657E-01 0.  0.
         14    1    1    2    0    0 -0.26537121122E-01 -0.22454234514E-01 -0.40077681573E-03  0.34764523110E-01  0.00000000000E+00 0.  1.
     999901    1    3    3    0    0  0.13740957108E+00  0.39682708746E-01 -0.27937371731E-01  0.89198464355E+00  0.88000000000E+00 0.  1.
        -11    1    4    4    0    0 -0.92915744321E-01 -0.16537303286E-01  0.16914623726E-01  0.95881090730E-01  0.51100000000E-03 0.  1.
         11    1    4    4    0    0 -0.17956705640E-01 -0.69117094642E-03  0.11423524820E-01  0.21299742605E-01  0.51100000000E-03 0. -1.
</event>
<event>
 8    1  0.1063984E+005  0.1043930E+01  0.7957747E-01            NaN
         13   -1    0    0    0    0  0.00000000000E+00  0.00000000000E+00  0.74505805969E-08  0.10566000000E+00  0.10566000000E+00 0. -1.
     999900   -1    0    0    0    0 -0.00000000000E+00 -0.00000000000E+00 -0.74505805969E-08  0.93827000000E+00  0.93827000000E+00 0. -1.
     999902    2    1    2    0    0  0.31450025541E-02 -0.22852549323E-01  0.56376881643E-02  0.10201831354E+01  0.10199067193E+01 0.  0.
     999903    2    3    3    0    0 -0.71449127740E-01  0.96083393953E-01 -0.39598844872E-01  0.12790717649E+00  0.21334967430E-01 0.  0.
         14    1    1    2    0    0 -0.31450025541E-02  0.22852549323E-01 -0.56376881643E-02  0.23746864624E-01  0.00000000000E+00 0.  1.
     999901    1    3    3    0    0  0.74594130294E-01 -0.11893594328E+00  0.45236533037E-01  0.89227595888E+00  0.88000000000E+00 0. -1.
        -11    1    4    4    0    0 -0.89270659199E-02  0.11946943625E-01 -0.12925484867E-01  0.19742118630E-01  0.51100000000E-03 0. -1.
         11    1    4    4    0    0 -0.62522061820E-01  0.84136450328E-01 -0.26673360005E-01  0.10816505786E+00  0.51100000000E-03 0.  1.
</event>
<event>
 8    1  0.1063984E+005  0.1043930E+01  0.7957747E-01            NaN
         13   -1    0    0    0    0  0.00000000000E+00  0.00000000000E+00  0.74505805969E-08  0.10566000000E+00  0.10566000000E+00 0. -1.
     999900   -1    0    0    0    0 -0.00000000000E+00 -0.00000000000E+00 -0.74505805969E-08  0.93827000000E+00  0.93827000000E+00 0.  1.
     999902    2    1    2    0    0  0.25313106954E-02  0.23391138208E-01 -0.68927464184E-02  0.10194134172E+01  0.10191185663E+01 0.  0.
     999903    2    3    3    0    0  0.75218188741E-01  0.54595069975E-01 -0.91295113692E-01  0.13184323561E+00  0.20234708006E-01 0.  0.
         14    1    1    2    0    0 -0.25313106954E-02 -0.23391138208E-01  0.68927464184E-02  0.24516582831E-01  0.00000000000E+00 0. -1.
     999901    1    3    3    0    0 -0.72686878045E-01 -0.31203931766E-01  0.84402367274E-01  0.88757018156E+00  0.88000000000E+00 0. -1.
        -11    1    4    4    0    0  0.34598535934E-01  0.20095725031E-01 -0.52068953901E-01  0.65668363270E-01  0.51100000000E-03 0. -1.
         11    1    4    4    0    0  0.40619652806E-01  0.34499344944E-01 -0.39226159791E-01  0.66174872336E-01  0.51100000000E-03 0.  1.
</event>
<event>
 8    1  0.1063984E+005  0.1043930E+01  0.7957747E-01            NaN
         13   -1    0    0    0    0  0.00000000000E+00  0.00000000000E+00  0.74505805969E-08  0.10566000000E+00  0.10566000000E+00 0.  1.
     999900   -1    0    0    0    0 -0.00000000000E+00 -0.00000000000E+00 -0.74505805969E-08  0.93827000000E+00  0.93827000000E+00 0.  1.
     999902    2    1    2    0    0 -0.10021110671E-01 -0.15918646762E-01  0.15134668604E-01  0.10197870058E+01  0.10195011786E+01 0.  0.
     999903    2    3    3    0    0 -0.10111649023E+00  0.52370117801E-01  0.62000835051E-01  0.13121615266E+00  0.20159398251E-01 0.  0.
         14    1    1    2    0    0  0.10021110671E-01  0.15918646762E-01 -0.15134668604E-01  0.24142994172E-01  0.00000000000E+00 0.  1.
     999901    1    3    3    0    0  0.91095379556E-01 -0.68288764563E-01 -0.46866166447E-01  0.88857085317E+00  0.88000000000E+00 0. -1.
        -11    1    4    4    0    0 -0.71030619786E-01  0.36588888468E-01  0.32645068693E-01  0.86313714655E-01  0.51100000000E-03 0.  1.
         11    1    4    4    0    0 -0.30085870441E-01  0.15781229333E-01  0.29355766358E-01  0.44902438006E-01  0.51100000000E-03 0. -1.
</event>
<event>
 8    1  0.1063984E+005  0.1043930E+01  0.7957747E-01            NaN
         13   -1    0    0    0    0  0.00000000000E+00  0.00000000000E+00  0.74505805969E-08  0.10566000000E+00  0.10566000000E+00 0.  1.
     999900   -1    0    0    0    0 -0.00000000000E+00 -0.00000000000E+00 -0.74505805969E-08  0.93827000000E+00  0.93827000000E+00 0.  1.
     999902    2    1    2    0    0 -0.79762786303E-03 -0.23380363915E-01  0.63299826376E-02  0.10196947714E+01  0.10194067296E+01 0.  0.
     999903    2    3    3    0    0 -0.30944002444E-01 -0.12582825782E+00  0.23270723032E-01  0.13307683586E+00  0.19432857188E-01 0.  0.
         14    1    1    2    0    0  0.79762786303E-03  0.23380363915E-01 -0.63299826376E-02  0.24235228639E-01  0.00000000000E+00 0. -1.
     999901    1    3    3    0    0  0.30146374581E-01  0.10244789391E+00 -0.16940740394E-01  0.88661793550E+00  0.88000000000E+00 0.  1.
        -11    1    4    4    0    0 -0.16234442087E-01 -0.40050190661E-01  0.14583646640E-01  0.45612703846E-01  0.51100000000E-03 0.  1.
         11    1    4    4    0    0 -0.14709560357E-01 -0.85778067161E-01  0.86870763918E-02  0.87464132014E-01  0.51100000000E-03 0. -1.
</event>
<event>
 8    1  0.1063984E+005  0.1043930E+01  0.7957747E-01            NaN
         13   -1    0    0    0    0  0.00000000000E+00  0.00000000000E+00  0.74505805969E-08  0.10566000000E+00  0.10566000000E+00 0. -1.
     999900   -1    0    0    0    0 -0.00000000000E+00 -0.00000000000E+00 -0.74505805969E-08  0.93827000000E+00  0.93827000000E+00 0. -1.
     999902    2    1    2    0    0  0.23673857631E-01  0.15108221901E-02  0.61961391335E-02  0.10194121237E+01  0.10191172414E+01 0.  0.
     999903    2    3    3    0    0  0.56648664587E-01  0.11277154750E+00 -0.28779579512E-01  0.13110497647E+00  0.20826846456E-01 0.  0.
         14    1    1    2    0    0 -0.23673857631E-01 -0.15108221901E-02 -0.61961391335E-02  0.24517876314E-01  0.00000000000E+00 0.  1.
     999901    1    3    3    0    0 -0.32974806957E-01 -0.11126072531E+00  0.34975718646E-01  0.88830714721E+00  0.88000000000E+00 0. -1.
        -11    1    4    4    0    0  0.18191562326E-01  0.42444216532E-01 -0.74608786595E-03  0.46187251758E-01  0.51100000000E-03 0. -1.
         11    1    4    4    0    0  0.38457102261E-01  0.70327330973E-01 -0.28033491646E-01  0.84917724716E-01  0.51100000000E-03 0.  1.
</event>
<event>
 8    1  0.1063984E+005  0.1043930E+01  0.7957747E-01            NaN
         13   -1    0    0    0    0  0.00000000000E+00  0.00000000000E+00  0.74505805969E-08  0.10566000000E+00  0.10566000000E+00 0. -1.
     999900   -1    0    0    0    0 -0.00000000000E+00 -0.00000000000E+00 -0.74505805969E-08  0.93827000000E+00  0.93827000000E+00 0. -1.
     999902    2    1    2    0    0  0.10207700786E-01 -0.17432942465E-01  0.11787584593E-01  0.10205408617E+01  0.10202728060E+01 0.  0.
     999903    2    3    3    0    0 -0.55658552086E-01 -0.11802883009E+00  0.97384359722E-02  0.13236177231E+00  0.19902825993E-01 0.  0.
         14    1    1    2    0    0 -0.10207700786E-01  0.17432942465E-01 -0.11787584593E-01  0.23389138267E-01  0.00000000000E+00 0.  1.
     999901    1    3    3    0    0  0.65866252872E-01  0.10059588762E+00  0.20491486207E-02  0.88817908942E+00  0.88000000000E+00 0.  1.
        -11    1    4    4    0    0 -0.11242536966E-01 -0.40236673261E-01  0.91896203559E-02  0.42779606775E-01  0.51100000000E-03 0.  1.
         11    1    4    4    0    0 -0.44416015120E-01 -0.77792156826E-01  0.54881561632E-03  0.89582165537E-01  0.51100000000E-03 0. -1.
</event>
<event>
 8    1  0.1063984E+005  0.1043930E+01  0.7957747E-01            NaN
         13   -1    0    0    0    0  0.00000000000E+00  0.00000000000E+00  0.74505805969E-08  0.10566000000E+00  0.10566000000E+00 0.  1.
     999900   -1    0    0    0    0 -0.00000000000E+00 -0.00000000000E+00 -0.74505805969E-08  0.93827000000E+00  0.93827000000E+00 0.  1.
     999902    2    1    2    0    0 -0.14129701700E-01  0.96114064383E-02 -0.13461403599E-01  0.10221759891E+01  0.10219444778E+01 0.  0.
     999903    2    3    3    0    0  0.69236087151E-01  0.24605697405E-01 -0.10904236060E+00  0.13295700433E+00  0.19704123594E-01 0.  0.
         14    1    1    2    0    0  0.14129701700E-01 -0.96114064383E-02  0.13461403599E-01  0.21754010911E-01  0.00000000000E+00 0.  1.
     999901    1    3    3    0    0 -0.83365788850E-01 -0.14994290967E-01  0.95580957002E-01  0.88921898476E+00  0.88000000000E+00 0. -1.
        -11    1    4    4    0    0  0.54124099357E-01  0.22571205733E-01 -0.97687242653E-01  0.11393829891E+00  0.51100000000E-03 0. -1.
         11    1    4    4    0    0  0.15111987794E-01  0.20344916719E-02 -0.11355117948E-01  0.19018705425E-01  0.51100000000E-03 0.  1.
</event>
<event>
 8    1  0.1063984E+005  0.1043930E+01  0.7957747E-01            NaN
         13   -1    0    0    0    0  0.00000000000E+00  0.00000000000E+00  0.74505805969E-08  0.10566000000E+00  0.10566000000E+00 0. -1.
     999900   -1    0    0    0    0 -0.00000000000E+00 -0.00000000000E+00 -0.74505805969E-08  0.93827000000E+00  0.93827000000E+00 0.  1.
     999902    2    1    2    0    0 -0.19278161511E-02  0.16992420784E-01  0.16510286137E-01  0.10201592535E+01  0.10198822747E+01 0.  0.
     999903    2    3    3    0    0 -0.53953332521E-01 -0.10887438318E+00  0.40409695408E-01  0.12936169603E+00  0.18355149507E-01 0.  0.
         14    1    1    2    0    0  0.19278161511E-02 -0.16992420784E-01 -0.16510286137E-01  0.23770746466E-01  0.00000000000E+00 0. -1.
     999901    1    3    3    0    0  0.52025516369E-01  0.12586680397E+00 -0.23899409271E-01  0.89079755751E+00  0.88000000000E+00 0.  1.
        -11    1    4    4    0    0 -0.18412371583E-01 -0.37836665989E-01  0.49494723549E-02  0.42372008662E-01  0.51100000000E-03 0. -1.
         11    1    4    4    0    0 -0.35540960937E-01 -0.71037717192E-01  0.35460223053E-01  0.86989687366E-01  0.51100000000E-03 0.  1.
</event>
<event>
 8    1  0.1063984E+005  0.1043930E+01  0.7957747E-01            NaN
         13   -1    0    0    0    0  0.00000000000E+00  0.00000000000E+00  0.74505805969E-08  0.10566000000E+00  0.10566000000E+00 0. -1.
     999900   -1    0    0    0    0 -0.00000000000E+00 -0.00000000000E+00 -0.74505805969E-08  0.93827000000E+00  0.93827000000E+00 0. -1.
     999902    2    1    2    0    0 -0.71167499788E-02  0.97380900227E-02  0.19452877194E-01  0.10210412919E+01  0.10207847113E+01 0.  0.
     999903    2    3    3    0    0 -0.40634221003E-01 -0.11922539449E+00  0.29572400251E-01  0.13095286598E+00  0.20206227870E-01 0.  0.
         14    1    1    2    0    0  0.71167499788E-02 -0.97380900227E-02 -0.19452877194E-01  0.22888708104E-01  0.00000000000E+00 0.  1.
     999901    1    3    3    0    0  0.33517471024E-01  0.12896348451E+00 -0.10119523057E-01  0.89008842592E+00  0.88000000000E+00 0. -1.
        -11    1    4    4    0    0 -0.10675080604E-01 -0.33801185665E-01 -0.82129369458E-03  0.35460021751E-01  0.51100000000E-03 0. -1.
         11    1    4    4    0    0 -0.29959140399E-01 -0.85424208823E-01  0.30393693945E-01  0.95492844230E-01  0.51100000000E-03 0.  1.
</event>
<event>
 8    1  0.1063984E+005  0.1043930E+01  0.7957747E-01            NaN
         13   -1    0    0    0    0  0.00000000000E+00  0.00000000000E+00  0.74505805969E-08  0.10566000000E+00  0.10566000000E+00 0. -1.
     999900   -1    0    0    0    0 -0.00000000000E+00 -0.00000000000E+00 -0.74505805969E-08  0.93827000000E+00  0.93827000000E+00 0.  1.
     999902    2    1    2    0    0  0.60549221906E-02  0.62641587501E-02 -0.21956105852E-01  0.10203085616E+01  0.10200350918E+01 0.  0.
     999903    2    3    3    0    0 -0.55420436521E-01 -0.39780291553E-01 -0.11180132350E+00  0.13240570979E+00  0.19438098370E-01 0.  0.
         14    1    1    2    0    0 -0.60549221906E-02 -0.62641587501E-02  0.21956105852E-01  0.23621438393E-01  0.00000000000E+00 0. -1.
     999901    1    3    3    0    0  0.61475358712E-01  0.46044450304E-01  0.89845217648E-01  0.88790285182E+00  0.88000000000E+00 0. -1.
        -11    1    4    4    0    0 -0.10728302999E-01 -0.17600810875E-01 -0.26413384354E-01  0.33508402271E-01  0.51100000000E-03 0. -1.
         11    1    4    4    0    0 -0.44692133522E-01 -0.22179480679E-01 -0.85387939145E-01  0.98897307518E-01  0.51100000000E-03 0.  1.
</event>
<event>
 8    1  0.1063984E+005  0.1043930E+01  0.7957747E-01            NaN
         13   -1    0    0    0    0  0.00000000000E+00  0.00000000000E+00  0.74505805969E-08  0.10566000000E+00  0.10566000000E+00 0.  1.
     999900   -1    0    0    0    0 -0.00000000000E+00 -0.00000000000E+00 -0.74505805969E-08  0.93827000000E+00  0.93827000000E+00 0. -1.
     999902    2    1    2    0    0  0.11813788511E-01  0.19867960658E-01 -0.58180761750E-02  0.10200940719E+01  0.10198155539E+01 0.  0.
     999903    2    3    3    0    0 -0.43046210125E-01 -0.72189296396E-01  0.94366644580E-01  0.12794994881E+00  0.20046323135E-01 0.  0.
         14    1    1    2    0    0 -0.11813788511E-01 -0.19867960658E-01  0.58180761750E-02  0.23835928135E-01  0.00000000000E+00 0.  1.
     999901    1    3    3    0    0  0.54859998635E-01  0.92057257054E-01 -0.10018472075E+00  0.89214412305E+00  0.88000000000E+00 0. -1.
        -11    1    4    4    0    0 -0.22885263961E-01 -0.33237049759E-01  0.59605065263E-01  0.71982370822E-01  0.51100000000E-03 0.  1.
         11    1    4    4    0    0 -0.20160946164E-01 -0.38952246637E-01  0.34761579317E-01  0.55967577989E-01  0.51100000000E-03 0. -1.
</event>
<event>
 8    1  0.1063984E+005  0.1043930E+01  0.7957747E-01            NaN
         13   -1    0    0    0    0  0.00000000000E+00  0.00000000000E+00  0.74505805969E-08  0.10566000000E+00  0.10566000000E+00 0.  1.
     999900   -1    0    0    0    0 -0.00000000000E+00 -0.00000000000E+00 -0.74505805969E-08  0.93827000000E+00  0.93827000000E+00 0. -1.
     999902    2    1    2    0    0 -0.99130010110E-02 -0.18678076130E-01  0.11104641599E-01  0.10200458801E+01  0.10197662214E+01 0.  0.
     999903    2    3    3    0    0 -0.52810221938E-01  0.10173903122E-02 -0.11665543431E+00  0.12956807583E+00  0.19734267026E-01 0.  0.
         14    1    1    2    0    0  0.99130010110E-02  0.18678076130E-01 -0.11104641599E-01  0.23884119871E-01  0.00000000000E+00 0.  1.
     999901    1    3    3    0    0  0.42897220927E-01 -0.19695466442E-01  0.12776007591E+00  0.89047780430E+00  0.88000000000E+00 0.  1.
        -11    1    4    4    0    0 -0.12961737859E-01 -0.83344690679E-02 -0.29964850415E-01  0.33699011919E-01  0.51100000000E-03 0.  1.
         11    1    4    4    0    0 -0.39848484079E-01  0.93518593801E-02 -0.86690583894E-01  0.95869063906E-01  0.51100000000E-03 0. -1.
</event>
<event>
 8    1  0.1063984E+005  0.1043930E+01  0.7957747E-01            NaN
         13   -1    0    0    0    0  0.00000000000E+00  0.00000000000E+00  0.74505805969E-08  0.10566000000E+00  0.10566000000E+00 0.  1.
     999900   -1    0    0    0    0 -0.00000000000E+00 -0.00000000000E+00 -0.74505805969E-08  0.93827000000E+00  0.93827000000E+00 0. -1.
     999902    2    1    2    0    0  0.76460763329E-02  0.20200260988E-01  0.78710949826E-02  0.10209415863E+01  0.10206827399E+01 0.  0.
     999903    2    3    3    0    0 -0.61739548398E-01 -0.99124299686E-01  0.51384998782E-01  0.12911975685E+00  0.19851823194E-01 0.  0.
         14    1    1    2    0    0 -0.76460763329E-02 -0.20200260988E-01 -0.78710949826E-02  0.22988413680E-01  0.00000000000E+00 0.  1.
     999901    1    3    3    0    0  0.69385624731E-01  0.11932456067E+00 -0.43513903799E-01  0.89182182947E+00  0.88000000000E+00 0.  1.
        -11    1    4    4    0    0 -0.36275171490E-01 -0.73798240788E-01  0.39961153652E-01  0.91428788312E-01  0.51100000000E-03 0. -1.
         11    1    4    4    0    0 -0.25464376909E-01 -0.25326058897E-01  0.11423845130E-01  0.37690968536E-01  0.51100000000E-03 0.  1.
</event>
<event>
 8    1  0.1063984E+005  0.1043930E+01  0.7957747E-01            NaN
         13   -1    0    0    0    0  0.00000000000E+00  0.00000000000E+00  0.74505805969E-08  0.10566000000E+00  0.10566000000E+00 0.  1.
     999900   -1    0    0    0    0 -0.00000000000E+00 -0.00000000000E+00 -0.74505805969E-08  0.93827000000E+00  0.93827000000E+00 0. -1.
     999902    2    1    2    0    0 -0.19205027476E-01 -0.27632846625E-02 -0.14723178646E-01  0.10195734647E+01  0.10192824972E+01 0.  0.
     999903    2    3    3    0    0 -0.87012263237E-01 -0.72561830286E-01 -0.66950410763E-01  0.13267023324E+00  0.16813093677E-01 0.  0.
         14    1    1    2    0    0  0.19205027476E-01  0.27632846625E-02  0.14723178646E-01  0.24356535302E-01  0.00000000000E+00 0.  1.
     999901    1    3    3    0    0  0.67807235761E-01  0.69798545623E-01  0.52227232118E-01  0.88690323146E+00  0.88000000000E+00 0.  1.
        -11    1    4    4    0    0 -0.34672064160E-01 -0.39805204858E-01 -0.30923013061E-01  0.61180881202E-01  0.51100000000E-03 0.  1.
         11    1    4    4    0    0 -0.52340199077E-01 -0.32756625428E-01 -0.36027397703E-01  0.71489352040E-01  0.51100000000E-03 0. -1.
</event>
<event>
 8    1  0.1063984E+005  0.1043930E+01  0.7957747E-01            NaN
         13   -1    0    0    0    0  0.00000000000E+00  0.00000000000E+00  0.74505805969E-08  0.10566000000E+00  0.10566000000E+00 0. -1.
     999900   -1    0    0    0    0 -0.00000000000E+00 -0.00000000000E+00 -0.74505805969E-08  0.93827000000E+00  0.93827000000E+00 0.  1.
     999902    2    1    2    0    0  0.10859938704E-01  0.27205015923E-02  0.20782670638E-01  0.10203236704E+01  0.10200505544E+01 0.  0.
     999903    2    3    3    0    0 -0.89403795670E-01  0.73805224934E-01  0.57743420828E-01  0.13101385299E+00  0.19750370064E-01 0.  0.
         14    1    1    2    0    0 -0.10859938704E-01 -0.27205015923E-02 -0.20782670638E-01  0.23606329583E-01  0.00000000000E+00 0.  1.
     999901    1    3    3    0    0  0.10026373437E+00 -0.71084723342E-01 -0.36960750190E-01  0.88930981743E+00  0.88000000000E+00 0.  1.
        -11    1    4    4    0    0 -0.53839608256E-01  0.39295216644E-01  0.42947216117E-01  0.79294022230E-01  0.51100000000E-03 0. -1.
         11    1    4    4    0    0 -0.35564187414E-01  0.34510008290E-01  0.14796204711E-01  0.51719830756E-01  0.51100000000E-03 0.  1.
</event>
<event>
 8    1  0.1063984E+005  0.1043930E+01  0.7957747E-01            NaN
         13   -1    0    0    0    0  0.00000000000E+00  0.00000000000E+00  0.74505805969E-08  0.10566000000E+00  0.10566000000E+00 0. -1.
     999900   -1    0    0    0    0 -0.00000000000E+00 -0.00000000000E+00 -0.74505805969E-08  0.93827000000E+00  0.93827000000E+00 0.  1.
     999902    2    1    2    0    0  0.11445830592E-01  0.92796173648E-02  0.18845953959E-01  0.10200074517E+01  0.10197268817E+01 0.  0.
     999903    2    3    3    0    0  0.84535137721E-01 -0.17806604539E-01  0.98811638831E-01  0.13295039548E+00  0.21184971466E-01 0.  0.
         14    1    1    2    0    0 -0.11445830592E-01 -0.92796173648E-02 -0.18845953959E-01  0.23922548297E-01  0.00000000000E+00 0.  1.
     999901    1    3    3    0    0 -0.73089307129E-01  0.27086221903E-01 -0.79965684871E-01  0.88705705622E+00  0.88000000000E+00 0. -1.
        -11    1    4    4    0    0  0.54086759248E-01 -0.96746621096E-03  0.62373135033E-01  0.82565020510E-01  0.51100000000E-03 0. -1.
         11    1    4    4    0    0  0.30448378472E-01 -0.16839138328E-01  0.36438503797E-01  0.50385374973E-01  0.51100000000E-03 0.  1.
</event>
<event>
 8    1  0.1063984E+005  0.1043930E+01  0.7957747E-01            NaN
         13   -1    0    0    0    0  0.00000000000E+00  0.00000000000E+00  0.74505805969E-08  0.10566000000E+00  0.10566000000E+00 0.  1.
     999900   -1    0    0    0    0 -0.00000000000E+00 -0.00000000000E+00 -0.74505805969E-08  0.93827000000E+00  0.93827000000E+00 0. -1.
     999902    2    1    2    0    0  0.15117618383E-01  0.10013175048E-01 -0.14697058384E-01  0.10205888435E+01  0.10203218992E+01 0.  0.
     999903    2    3    3    0    0  0.34749410571E-03  0.13064063857E+00 -0.11320689665E-02  0.13213335761E+00  0.19769810691E-01 0.  0.
         14    1    1    2    0    0 -0.15117618383E-01 -0.10013175048E-01  0.14697058384E-01  0.23341156468E-01  0.00000000000E+00 0.  1.
     999901    1    3    3    0    0  0.14770124277E-01 -0.12062746352E+00 -0.13564989417E-01  0.88845548592E+00  0.88000000000E+00 0.  1.
        -11    1    4    4    0    0  0.84609283437E-03  0.12914118038E+00 -0.35573588034E-02  0.12919394826E+00  0.51100000000E-03 0. -1.
         11    1    4    4    0    0 -0.49859872866E-03  0.14994581892E-02  0.24252898369E-02  0.29394093533E-02  0.51100000000E-03 0.  1.
</event>
<event>
 8    1  0.1063984E+005  0.1043930E+01  0.7957747E-01            NaN
         13   -1    0    0    0    0  0.00000000000E+00  0.00000000000E+00  0.74505805969E-08  0.10566000000E+00  0.10566000000E+00 0.  1.
     999900   -1    0    0    0    0 -0.00000000000E+00 -0.00000000000E+00 -0.74505805969E-08  0.93827000000E+00  0.93827000000E+00 0.  1.
     999902    2    1    2    0    0  0.42479124650E-02 -0.37815550955E-02 -0.22588397681E-01  0.10206366398E+01  0.10203708002E+01 0.  0.
     999903    2    3    3    0    0 -0.12673693175E-01  0.83927033828E-01  0.94599012381E-01  0.12838553928E+00  0.18152246365E-01 0.  0.
         14    1    1    2    0    0 -0.42479124650E-02  0.37815550955E-02  0.22588397681E-01  0.23293360192E-01  0.00000000000E+00 0.  1.
     999901    1    3    3    0    0  0.16921605640E-01 -0.87708588923E-01 -0.11718741006E+00  0.89225110052E+00  0.88000000000E+00 0. -1.
        -11    1    4    4    0    0 -0.21415445371E-03  0.22168243713E-01  0.36349515347E-01  0.42579634550E-01  0.51100000000E-03 0. -1.
         11    1    4    4    0    0 -0.12459538721E-01  0.61758790115E-01  0.58249497034E-01  0.85805904734E-01  0.51100000000E-03 0.  1.
</event>
<event>
 8    1  0.1063984E+005  0.1043930E+01  0.7957747E-01            NaN
         13   -1    0    0    0    0  0.00000000000E+00  0.00000000000E+00  0.74505805969E-08  0.10566000000E+00  0.10566000000E+00 0. -1.
     999900   -1    0    0    0    0 -0.00000000000E+00 -0.00000000000E+00 -0.74505805969E-08  0.93827000000E+00  0.93827000000E+00 0.  1.
     999902    2    1    2    0    0 -0.14749235864E-01  0.15544318802E-01 -0.10891193894E-01  0.10198928639E+01  0.10196095674E+01 0.  0.
     999903    2    3    3    0    0 -0.10582155281E+00  0.75921403217E-01 -0.18259514904E-01  0.13310435962E+00  0.20520725147E-01 0.  0.
         14    1    1    2    0    0  0.14749235864E-01 -0.15544318802E-01  0.10891193894E-01  0.24037136061E-01  0.00000000000E+00 0. -1.
     999901    1    3    3    0    0  0.91072316943E-01 -0.60377084415E-01  0.73683210094E-02  0.88678850432E+00  0.88000000000E+00 0. -1.
        -11    1    4    4    0    0 -0.82722492093E-01  0.61026363278E-01 -0.59101225977E-02  0.10296804545E+00  0.51100000000E-03 0.  1.
         11    1    4    4    0    0 -0.23099060714E-01  0.14895039939E-01 -0.12349392306E-01  0.30136314174E-01  0.51100000000E-03 0. -1.
</event>
<event>
 8    1  0.1063984E+005  0.1043930E+01  0.7957747E-01            NaN
         13   -1    0    0    0    0  0.00000000000E+00  0.00000000000E+00  0.74505805969E-08  0.10566000000E+00  0.10566000000E+00 0.  1.
     999900   -1    0    0    0    0 -0.00000000000E+00 -0.00000000000E+00 -0.74505805969E-08  0.93827000000E+00  0.93827000000E+00 0.  1.
     999902    2    1    2    0    0  0.12203133966E-02  0.98958889722E-02  0.24930412997E-01  0.10170796131E+01  0.10167251330E+01 0.  0.
     999903    2    3    3    0    0 -0.56257210051E-02  0.12655765273E+00  0.16005469069E-01  0.12930909664E+00  0.20400471378E-01 0.  0.
         14    1    1    2    0    0 -0.12203133966E-02 -0.98958889722E-02 -0.24930412997E-01  0.26850386878E-01  0.00000000000E+00 0. -1.
     999901    1    3    3    0    0  0.68460344017E-02 -0.11666176376E+00  0.89249439279E-02  0.88777051648E+00  0.88000000000E+00 0. -1.
        -11    1    4    4    0    0 -0.11070943453E-01  0.75319949363E-01  0.15932671411E-01  0.77780278351E-01  0.51100000000E-03 0.  1.
         11    1    4    4    0    0  0.54452224481E-02  0.51237703366E-01  0.72797657455E-04  0.51528818289E-01  0.51100000000E-03 0. -1.
</event>
<event>
 8    1  0.1063984E+005  0.1043930E+01  0.7957747E-01            NaN
         13   -1    0    0    0    0  0.00000000000E+00  0.00000000000E+00  0.74505805969E-08  0.10566000000E+00  0.10566000000E+00 0. -1.
     999900   -1    0    0    0    0 -0.00000000000E+00 -0.00000000000E+00 -0.74505805969E-08  0.93827000000E+00  0.93827000000E+00 0. -1.
     999902    2    1    2    0    0  0.67410158990E-02 -0.86877982576E-02 -0.20646063574E-01  0.10205381408E+01  0.10202700220E+01 0.  0.
     999903    2    3    3    0    0 -0.38993492836E-02  0.95748911351E-01 -0.88168888230E-01  0.13173018884E+00  0.19900523880E-01 0.  0.
         14    1    1    2    0    0 -0.67410158990E-02  0.86877982576E-02  0.20646063574E-01  0.23391859161E-01  0.00000000000E+00 0. -1.
     999901    1    3    3    0    0  0.10640365183E-01 -0.10443670961E+00  0.67522824656E-01  0.88880795200E+00  0.88000000000E+00 0.  1.
        -11    1    4    4    0    0 -0.22501827057E-02  0.48820191179E-01 -0.58296206785E-01  0.76073538340E-01  0.51100000000E-03 0.  1.
         11    1    4    4    0    0 -0.16491665779E-02  0.46928720171E-01 -0.29872681445E-01  0.55656650502E-01  0.51100000000E-03 0. -1.
</event>
<event>
 8    1  0.1063984E+005  0.1043930E+01  0.7957747E-01            NaN
         13   -1    0    0    0    0  0.00000000000E+00  0.00000000000E+00  0.74505805969E-08  0.10566000000E+00  0.10566000000E+00 0.  1.
     999900   -1    0    0    0    0 -0.00000000000E+00 -0.00000000000E+00 -0.74505805969E-08  0.93827000000E+00  0.93827000000E+00 0.  1.
     999902    2    1    2    0    0  0.21271666165E-02 -0.22300645830E-01  0.57458342394E-02  0.10208029973E+01  0.10205409845E+01 0.  0.
     999903    2    3    3    0    0 -0.84110877544E-01 -0.94852001877E-01 -0.33774460670E-01  0.13273624687E+00  0.20165690144E-01 0.  0.
         14    1    1    2    0    0 -0.21271666165E-02  0.22300645830E-01 -0.57458342394E-02  0.23127002688E-01  0.00000000000E+00 0.  1.
     999901    1    3    3    0    0  0.86238044161E-01  0.72551356048E-01  0.39520294909E-01  0.88806675044E+00  0.88000000000E+00 0. -1.
        -11    1    4    4    0    0 -0.15718103948E-01 -0.31140963909E-01 -0.84728862641E-02  0.35900826557E-01  0.51100000000E-03 0. -1.
         11    1    4    4    0    0 -0.68392773596E-01 -0.63711037969E-01 -0.25301574406E-01  0.96835420315E-01  0.51100000000E-03 0.  1.
</event>
<event>
 8    1  0.1063984E+005  0.1043930E+01  0.7957747E-01            NaN
         13   -1    0    0    0    0  0.00000000000E+00  0.00000000000E+00  0.74505805969E-08  0.10566000000E+00  0.10566000000E+00 0.  1.
     999900   -1    0    0    0    0 -0.00000000000E+00 -0.00000000000E+00 -0.74505805969E-08  0.93827000000E+00  0.93827000000E+00 0.  1.
     999902    2    1    2    0    0  0.96396960957E-02  0.21163283401E-01  0.41813283537E-02  0.10203018005E+01  0.10200281723E+01 0.  0.
     999903    2    3    3    0    0 -0.23115975244E-01  0.81922976135E-01  0.99458913161E-01  0.13247158450E+00  0.20271234844E-01 0.  0.
         14    1    1    2    0    0 -0.96396960957E-02 -0.21163283401E-01 -0.41813283537E-02  0.23628199507E-01  0.00000000000E+00 0. -1.
     999901    1    3    3    0    0  0.32755671340E-01 -0.60759692734E-01 -0.95277584807E-01  0.88783021599E+00  0.88000000000E+00 0.  1.
        -11    1    4    4    0    0 -0.26105290244E-01  0.64635994236E-01  0.75349068759E-01  0.10265009115E+00  0.51100000000E-03 0. -1.
         11    1    4    4    0    0  0.29893150000E-02  0.17286981899E-01  0.24109844402E-01  0.29821493347E-01  0.51100000000E-03 0.  1.
</event>
<event>
 8    1  0.1063984E+005  0.1043930E+01  0.7957747E-01            NaN
         13   -1    0    0    0    0  0.00000000000E+00  0.00000000000E+00  0.74505805969E-08  0.10566000000E+00  0.10566000000E+00 0. -1.
     999900   -1    0    0    0    0 -0.00000000000E+00 -0.00000000000E+00 -0.74505805969E-08  0.93827000000E+00  0.93827000000E+00 0.  1.
     999902    2    1    2    0    0  0.36596487713E-02  0.17122723285E-01  0.16001442792E-01  0.10202102434E+01  0.10199344655E+01 0.  0.
     999903    2    3    3    0    0 -0.16033356573E-01  0.41384284595E-01 -0.11980151382E+00  0.12924510332E+00  0.19549078841E-01 0.  0.
         14    1    1    2    0    0 -0.36596487713E-02 -0.17122723285E-01 -0.16001442792E-01  0.23719756602E-01  0.00000000000E+00 0. -1.
     999901    1    3    3    0    0  0.19693005344E-01 -0.24261561310E-01  0.13580295661E+00  0.89096514008E+00  0.88000000000E+00 0. -1.
        -11    1    4    4    0    0 -0.29344617207E-02  0.10515539677E-01 -0.57115725451E-01  0.58151997860E-01  0.51100000000E-03 0.  1.
         11    1    4    4    0    0 -0.13098894852E-01  0.30868744918E-01 -0.62685788368E-01  0.71093105456E-01  0.51100000000E-03 0. -1.
</event>
<event>
 8    1  0.1063984E+005  0.1043930E+01  0.7957747E-01            NaN
         13   -1    0    0    0    0  0.00000000000E+00  0.00000000000E+00  0.74505805969E-08  0.10566000000E+00  0.10566000000E+00 0. -1.
     999900   -1    0    0    0    0 -0.00000000000E+00 -0.00000000000E+00 -0.74505805969E-08  0.93827000000E+00  0.93827000000E+00 0.  1.
     999902    2    1    2    0    0 -0.81990846530E-02 -0.25898785833E-01  0.12825882646E-01  0.10138887723E+01  0.10134436182E+01 0.  0.
     999903    2    3    3    0    0 -0.26237503880E-01  0.24847519360E-01  0.11868337290E+00  0.12590995480E+00  0.21488785166E-01 0.  0.
         14    1    1    2    0    0  0.81990846530E-02  0.25898785833E-01 -0.12825882646E-01  0.30041227711E-01  0.00000000000E+00 0.  1.
     999901    1    3    3    0    0  0.18038419227E-01 -0.50746305193E-01 -0.10585749025E+00  0.88797881748E+00  0.88000000000E+00 0.  1.
        -11    1    4    4    0    0  0.12035540604E-03  0.41353914507E-02  0.42148304604E-01  0.42353944915E-01  0.51100000000E-03 0.  1.
         11    1    4    4    0    0 -0.26357859286E-01  0.20712127909E-01  0.76535068295E-01  0.83556009890E-01  0.51100000000E-03 0. -1.
</event>
<event>
 8    1  0.1063984E+005  0.1043930E+01  0.7957747E-01            NaN
         13   -1    0    0    0    0  0.00000000000E+00  0.00000000000E+00  0.74505805969E-08  0.10566000000E+00  0.10566000000E+00 0.  1.
     999900   -1    0    0    0    0 -0.00000000000E+00 -0.00000000000E+00 -0.74505805969E-08  0.93827000000E+00  0.93827000000E+00 0. -1.
     999902    2    1    2    0    0 -0.18436629340E-01  0.16305447365E-02 -0.15913105008E-01  0.10195210900E+01  0.10192288546E+01 0.  0.
     999903    2    3    3    0    0 -0.12150352386E+00  0.25326606353E-01  0.38619716258E-01  0.13151314143E+00  0.19992013017E-01 0.  0.
         14    1    1    2    0    0  0.18436629340E-01 -0.16305447365E-02  0.15913105008E-01  0.24408910024E-01  0.00000000000E+00 0. -1.
     999901    1    3    3    0    0  0.10306689452E+00 -0.23696061617E-01 -0.54532821266E-01  0.88800794854E+00  0.88000000000E+00 0. -1.
        -11    1    4    4    0    0 -0.25012862455E-01  0.98262965409E-02  0.15716238130E-01  0.31136163120E-01  0.51100000000E-03 0.  1.
         11    1    4    4    0    0 -0.96490661409E-01  0.15500309812E-01  0.22903478129E-01  0.10037697831E+00  0.51100000000E-03 0. -1.
</event>
<event>
 8    1  0.1063984E+005  0.1043930E+01  0.7957747E-01            NaN
         13   -1    0    0    0    0  0.00000000000E+00  0.00000000000E+00  0.74505805969E-08  0.10566000000E+00  0.10566000000E+00 0. -1.
     999900   -1    0    0    0    0 -0.00000000000E+00 -0.00000000000E+00 -0.74505805969E-08  0.93827000000E+00  0.93827000000E+00 0. -1.
     999902    2    1    2    0    0 -0.97954345596E-02  0.12441175068E-01 -0.16660370507E-01  0.10209451937E+01  0.10206864294E+01 0.  0.
     999903    2    3    3    0    0 -0.79762070145E-02 -0.82745629430E-02  0.12695964376E+00  0.12906002178E+00  0.20140749937E-01 0.  0.
         14    1    1    2    0    0  0.97954345596E-02 -0.12441175068E-01  0.16660370507E-01  0.22984806301E-01  0.00000000000E+00 0. -1.
     999901    1    3    3    0    0 -0.18192275451E-02  0.20715738011E-01 -0.14362001427E+00  0.89188517192E+00  0.88000000000E+00 0. -1.
        -11    1    4    4    0    0 -0.48217747610E-02 -0.83402287862E-02  0.21653230627E-01  0.23705114335E-01  0.51100000000E-03 0.  1.
         11    1    4    4    0    0 -0.31544322536E-02  0.65665843201E-04  0.10530641313E+00  0.10535490745E+00  0.51100000000E-03 0. -1.
</event>
<event>
 8    1  0.1063984E+005  0.1043930E+01  0.7957747E-01            NaN
         13   -1    0    0    0    0  0.00000000000E+00  0.00000000000E+00  0.74505805969E-08  0.10566000000E+00  0.10566000000E+00 0.  1.
     999900   -1    0    0    0    0 -0.00000000000E+00 -0.00000000000E+00 -0.74505805969E-08  0.93827000000E+00  0.93827000000E+00 0. -1.
     999902    2    1    2    0    0 -0.19829060553E-01 -0.40360099971E-02 -0.13210387102E-01  0.10197640043E+01  0.10194776256E+01 0.  0.
     999903    2    3    3    0    0 -0.60653507987E-01  0.87554340044E-01  0.71825426895E-01  0.12999632826E+00  0.19888260862E-01 0.  0.
         14    1    1    2    0    0  0.19829060553E-01  0.40360099971E-02  0.13210387102E-01  0.24165995666E-01  0.00000000000E+00 0.  1.
     999901    1    3    3    0    0  0.40824447434E-01 -0.91590350041E-01 -0.85035813997E-01  0.88976767608E+00  0.88000000000E+00 0. -1.
        -11    1    4    4    0    0 -0.39252275047E-01  0.50576192960E-01  0.31950812730E-01  0.71552833248E-01  0.51100000000E-03 0. -1.
         11    1    4    4    0    0 -0.21401232940E-01  0.36978147084E-01  0.39874614165E-01  0.58443495009E-01  0.51100000000E-03 0.  1.
</event>
<event>
 8    1  0.1132032E+005  0.1043930E+01  0.7957747E-01            NaN
         13   -1    0    0    0    0  0.00000000000E+00  0.00000000000E+00  0.74505805969E-08  0.10566000000E+00  0.10566000000E+00 0.  1.
     999900   -1    0    0    0    0 -0.00000000000E+00 -0.00000000000E+00 -0.74505805969E-08  0.93827000000E+00  0.93827000000E+00 0. -1.
     999902    2    1    2    0    0  0.83681641220E-02 -0.20677791584E-01  0.12114602916E-01  0.10185457364E+01  0.10182293731E+01 0.  0.
     999903    2    3    3    0    0 -0.54359562657E-01  0.30845388342E-01 -0.10821758508E+00  0.12665491277E+00  0.20591774416E-01 0.  0.
         14    1    1    2    0    0 -0.83681641220E-02  0.20677791584E-01 -0.12114602916E-01  0.25384263617E-01  0.00000000000E+00 0.  1.
     999901    1    3    3    0    0  0.62727726779E-01 -0.51523179926E-01  0.12033218800E+00  0.89189082361E+00  0.88000000000E+00 0.  1.
        -11    1    4    4    0    0 -0.28112298258E-01  0.25395050440E-01 -0.51664444621E-01  0.64067822339E-01  0.51100000000E-03 0. -1.
         11    1    4    4    0    0 -0.26247264399E-01  0.54503379015E-02 -0.56553140461E-01  0.62587090432E-01  0.51100000000E-03 0.  1.
</event>
<event>
 8    1  0.1063984E+005  0.1043930E+01  0.7957747E-01            NaN
         13   -1    0    0    0    0  0.00000000000E+00  0.00000000000E+00  0.74505805969E-08  0.10566000000E+00  0.10566000000E+00 0.  1.
     999900   -1    0    0    0    0 -0.00000000000E+00 -0.00000000000E+00 -0.74505805969E-08  0.93827000000E+00  0.93827000000E+00 0. -1.
     999902    2    1    2    0    0  0.15419479469E-01  0.49243578512E-02 -0.14520152368E-01  0.10221850127E+01  0.10219536955E+01 0.  0.
     999903    2    3    3    0    0  0.23060855805E-01 -0.41373978333E-01  0.11990128798E+00  0.13074177268E+00  0.21759667092E-01 0.  0.
         14    1    1    2    0    0 -0.15419479469E-01 -0.49243578512E-02  0.14520152368E-01  0.21744987288E-01  0.00000000000E+00 0.  1.
     999901    1    3    3    0    0 -0.76413763356E-02  0.46298336185E-01 -0.13442144035E+00  0.89144324003E+00  0.88000000000E+00 0. -1.
        -11    1    4    4    0    0  0.19765975484E-01 -0.36491678177E-01  0.77349479743E-01  0.87781202433E-01  0.51100000000E-03 0.  1.
         11    1    4    4    0    0  0.32948803204E-02 -0.48823001560E-02  0.42551808237E-01  0.42960570252E-01  0.51100000000E-03 0. -1.
</event>
<event>
 8    1  0.1063984E+005  0.1043930E+01  0.7957747E-01            NaN
         13   -1    0    0    0    0  0.00000000000E+00  0.00000000000E+00  0.74505805969E-08  0.10566000000E+00  0.10566000000E+00 0. -1.
     999900   -1    0    0    0    0 -0.00000000000E+00 -0.00000000000E+00 -0.74505805969E-08  0.93827000000E+00  0.93827000000E+00 0.  1.
     999902    2    1    2    0    0  0.16207506766E-01 -0.59446825868E-02  0.14418602161E-01  0.10214373653E+01  0.10211896850E+01 0.  0.
     999903    2    3    3    0    0  0.97222277852E-01  0.64132437083E-01  0.62221269554E-01  0.13365400726E+00  0.20658327008E-01 0.  0.
         14    1    1    2    0    0 -0.16207506766E-01  0.59446825868E-02 -0.14418602161E-01  0.22492634681E-01  0.00000000000E+00 0.  1.
     999901    1    3    3    0    0 -0.81014771086E-01 -0.70077119670E-01 -0.47802667393E-01  0.88778335806E+00  0.88000000000E+00 0.  1.
        -11    1    4    4    0    0  0.41917402040E-01  0.38742008678E-01  0.24992066790E-01  0.62312730269E-01  0.51100000000E-03 0.  1.
         11    1    4    4    0    0  0.55304875813E-01  0.25390428405E-01  0.37229202764E-01  0.71341276991E-01  0.51100000000E-03 0. -1.
</event>
<event>
 8    1  0.1063984E+005  0.1043930E+01  0.7957747E-01            NaN
         13   -1    0    0    0    0  0.00000000000E+00  0.00000000000E+00  0.74505805969E-08  0.10566000000E+00  0.10566000000E+00 0.  1.
     999900   -1    0    0    0    0 -0.00000000000E+00 -0.00000000000E+00 -0.74505805969E-08  0.93827000000E+00  0.93827000000E+00 0.  1.
     999902    2    1    2    0    0  0.82494008276E-04 -0.19166722189E-01 -0.14717319039E-01  0.10197645386E+01  0.10194781727E+01 0.  0.
     999903    2    3    3    0    0 -0.34668303681E-01  0.11577824715E+00 -0.38478768575E-01  0.12848323106E+00  0.20514171670E-01 0.  0.
         14    1    1    2    0    0 -0.82494008276E-04  0.19166722189E-01  0.14717319039E-01  0.24165461395E-01  0.00000000000E+00 0. -1.
     999901    1    3    3    0    0  0.34750797690E-01 -0.13494496934E+00  0.23761449536E-01  0.89128130754E+00  0.88000000000E+00 0.  1.
        -11    1    4    4    0    0 -0.28111494760E-01  0.85099266977E-01 -0.19198578444E-01  0.91656903247E-01  0.51100000000E-03 0. -1.
         11    1    4    4    0    0 -0.65568089217E-02  0.30678980176E-01 -0.19280190131E-01  0.36826327815E-01  0.51100000000E-03 0.  1.
</event>
<event>
 8    1  0.1063984E+005  0.1043930E+01  0.7957747E-01            NaN
         13   -1    0    0    0    0  0.00000000000E+00  0.00000000000E+00  0.74505805969E-08  0.10566000000E+00  0.10566000000E+00 0.  1.
     999900   -1    0    0    0    0 -0.00000000000E+00 -0.00000000000E+00 -0.74505805969E-08  0.93827000000E+00  0.93827000000E+00 0. -1.
     999902    2    1    2    0    0  0.18339196850E-01  0.14501294112E-01  0.26330497441E-02  0.10204024285E+01  0.10201311530E+01 0.  0.
     999903    2    3    3    0    0 -0.10050173614E+00  0.62252186887E-01  0.49541422155E-01  0.12989487064E+00  0.21033097011E-01 0.  0.
         14    1    1    2    0    0 -0.18339196850E-01 -0.14501294112E-01 -0.26330497441E-02  0.23527571549E-01  0.00000000000E+00 0.  1.
     999901    1    3    3    0    0  0.11884093299E+00 -0.47750892775E-01 -0.46908372411E-01  0.89050755781E+00  0.88000000000E+00 0. -1.
        -11    1    4    4    0    0 -0.50435513688E-01  0.22847141574E-01  0.14762765091E-01  0.57305612930E-01  0.51100000000E-03 0.  1.
         11    1    4    4    0    0 -0.50066222454E-01  0.39405045313E-01  0.34778657063E-01  0.72589257711E-01  0.51100000000E-03 0. -1.
</event>
<event>
 8    1  0.1063984E+005  0.1043930E+01  0.7957747E-01            NaN
         13   -1    0    0    0    0  0.00000000000E+00  0.00000000000E+00  0.74505805969E-08  0.10566000000E+00  0.10566000000E+00 0.  1.
     999900   -1    0    0    0    0 -0.00000000000E+00 -0.00000000000E+00 -0.74505805969E-08  0.93827000000E+00  0.93827000000E+00 0. -1.
     999902    2    1    2    0    0  0.11796610861E-01 -0.20405259132E-02  0.20384003783E-01  0.10202903853E+01  0.10200164895E+01 0.  0.
     999903    2    3    3    0    0 -0.19345419920E-01 -0.22096544136E-01 -0.12295519222E+00  0.12792375936E+00  0.19596080704E-01 0.  0.
         14    1    1    2    0    0 -0.11796610861E-01  0.20405259132E-02 -0.20384003783E-01  0.23639614719E-01  0.00000000000E+00 0. -1.
     999901    1    3    3    0    0  0.31142030781E-01  0.20056018223E-01  0.14333919601E+00  0.89236662592E+00  0.88000000000E+00 0.  1.
        -11    1    4    4    0    0 -0.42399705841E-03 -0.14532774402E-01 -0.60585928853E-01  0.62308082953E-01  0.51100000000E-03 0.  1.
         11    1    4    4    0    0 -0.18921422862E-01 -0.75637697342E-02 -0.62369263371E-01  0.65615676405E-01  0.51100000000E-03 0. -1.
</event>
<event>
 8    1  0.1063984E+005  0.1043930E+01  0.7957747E-01            NaN
         13   -1    0    0    0    0  0.00000000000E+00  0.00000000000E+00  0.74505805969E-08  0.10566000000E+00  0.10566000000E+00 0.  1.
     999900   -1    0    0    0    0 -0.00000000000E+00 -0.00000000000E+00 -0.74505805969E-08  0.93827000000E+00  0.93827000000E+00 0. -1.
     999902    2    1    2    0    0  0.19334500377E-01 -0.32989991836E-02 -0.12708953922E-01  0.10205585685E+01  0.10202909232E+01 0.  0.
     999903    2    3    3    0    0  0.43072554484E-02  0.45439788363E-01  0.11929810813E+00  0.12925213863E+00  0.19767395401E-01 0.  0.
         14    1    1    2    0    0 -0.19334500377E-01  0.32989991836E-02  0.12708953922E-01  0.23371431497E-01  0.00000000000E+00 0. -1.
     999901    1    3    3    0    0  0.15027244929E-01 -0.48738787546E-01 -0.13200706205E+00  0.89130642987E+00  0.88000000000E+00 0. -1.
        -11    1    4    4    0    0 -0.27574282001E-02  0.32821753398E-01  0.98907676290E-01  0.10424903096E+00  0.51100000000E-03 0.  1.
         11    1    4    4    0    0  0.70646836484E-02  0.12618034964E-01  0.20390431840E-01  0.25003107668E-01  0.51100000000E-03 0. -1.
</event>
<event>
 8    1  0.1063984E+005  0.1043930E+01  0.7957747E-01            NaN
         13   -1    0    0    0    0  0.00000000000E+00  0.00000000000E+00  0.74505805969E-08  0.10566000000E+00  0.10566000000E+00 0.  1.
     999900   -1    0    0    0    0 -0.00000000000E+00 -0.00000000000E+00 -0.74505805969E-08  0.93827000000E+00  0.93827000000E+00 0. -1.
     999902    2    1    2    0    0  0.20772632741E-01 -0.17108430379E-02 -0.11508773742E-01  0.10201207344E+01  0.10198428465E+01 0.  0.
     999903    2    3    3    0    0 -0.31345388200E-01  0.12415074560E+00 -0.32478683479E-03  0.12956893403E+00  0.19800560221E-01 0.  0.
         14    1    1    2    0    0 -0.20772632741E-01  0.17108430379E-02  0.11508773742E-01  0.23809265591E-01  0.00000000000E+00 0.  1.
     999901    1    3    3    0    0  0.52118020941E-01 -0.12586158863E+00 -0.11183986907E-01  0.89055180038E+00  0.88000000000E+00 0. -1.
        -11    1    4    4    0    0 -0.86601896765E-02  0.53564367553E-01  0.84177956642E-02  0.54911390088E-01  0.51100000000E-03 0. -1.
         11    1    4    4    0    0 -0.22685198523E-01  0.70586378043E-01 -0.87425824990E-02  0.74657543939E-01  0.51100000000E-03 0.  1.
</event>
<event>
 8    1  0.1063984E+005  0.1043930E+01  0.7957747E-01            NaN
         13   -1    0    0    0    0  0.00000000000E+00  0.00000000000E+00  0.74505805969E-08  0.10566000000E+00  0.10566000000E+00 0. -1.
     999900   -1    0    0    0    0 -0.00000000000E+00 -0.00000000000E+00 -0.74505805969E-08  0.93827000000E+00  0.93827000000E+00 0.  1.
     999902    2    1    2    0    0 -0.78083841718E-03  0.61176995443E-02  0.23151896973E-01  0.10199707369E+01  0.10196892947E+01 0.  0.
     999903    2    3    3    0    0 -0.42869117752E-01  0.12215701555E+00 -0.21436856257E-02  0.13099581449E+00  0.19879897438E-01 0.  0.
         14    1    1    2    0    0  0.78083841718E-03 -0.61176995443E-02 -0.23151896973E-01  0.23959263132E-01  0.00000000000E+00 0.  1.
     999901    1    3    3    0    0  0.42088279335E-01 -0.11603931600E+00  0.25295582599E-01  0.88897492238E+00  0.88000000000E+00 0. -1.
        -11    1    4    4    0    0 -0.31292364612E-01  0.75365681092E-01  0.70958513572E-02  0.81913431115E-01  0.51100000000E-03 0. -1.
         11    1    4    4    0    0 -0.11576753139E-01  0.46791334455E-01 -0.92395369829E-02  0.49082383377E-01  0.51100000000E-03 0.  1.
</event>
<event>
 8    1  0.1063984E+005  0.1043930E+01  0.7957747E-01            NaN
         13   -1    0    0    0    0  0.00000000000E+00  0.00000000000E+00  0.74505805969E-08  0.10566000000E+00  0.10566000000E+00 0. -1.
     999900   -1    0    0    0    0 -0.00000000000E+00 -0.00000000000E+00 -0.74505805969E-08  0.93827000000E+00  0.93827000000E+00 0.  1.
     999902    2    1    2    0    0  0.79084796767E-02 -0.46548645145E-02 -0.23139291283E-01  0.10190374586E+01  0.10187333819E+01 0.  0.
     999903    2    3    3    0    0 -0.67370628617E-02 -0.62281560309E-01  0.10888415505E+00  0.12720478466E+00  0.20022918111E-01 0.  0.
         14    1    1    2    0    0 -0.79084796767E-02  0.46548645145E-02  0.23139291283E-01  0.24892541363E-01  0.00000000000E+00 0. -1.
     999901    1    3    3    0    0  0.14645542538E-01  0.57626695795E-01 -0.13202344633E+00  0.89183267397E+00  0.88000000000E+00 0.  1.
        -11    1    4    4    0    0  0.52615325321E-02 -0.38311990372E-01  0.58432990732E-01  0.70072589917E-01  0.51100000000E-03 0. -1.
         11    1    4    4    0    0 -0.11998595394E-01 -0.23969569937E-01  0.50451164319E-01  0.57132194746E-01  0.51100000000E-03 0.  1.
</event>
<event>
 8    1  0.1063984E+005  0.1043930E+01  0.7957747E-01            NaN
         13   -1    0    0    0    0  0.00000000000E+00  0.00000000000E+00  0.74505805969E-08  0.10566000000E+00  0.10566000000E+00 0. -1.
     999900   -1    0    0    0    0 -0.00000000000E+00 -0.00000000000E+00 -0.74505805969E-08  0.93827000000E+00  0.93827000000E+00 0.  1.
     999902    2    1    2    0    0  0.22367222894E-01  0.15425458360E-01  0.50788956274E-02  0.10162888603E+01  0.10159128973E+01 0.  0.
     999903    2    3    3    0    0  0.29131653018E-01  0.69927172723E-01 -0.10147626247E+00  0.12816150672E+00  0.19735178415E-01 0.  0.
         14    1    1    2    0    0 -0.22367222894E-01 -0.15425458360E-01 -0.50788956274E-02  0.27641139745E-01  0.00000000000E+00 0.  1.
     999901    1    3    3    0    0 -0.67644301239E-02 -0.54501714363E-01  0.10655515810E+00  0.88812735354E+00  0.88000000000E+00 0. -1.
        -11    1    4    4    0    0 -0.19191289522E-02  0.74021381575E-03 -0.51178602962E-02  0.55393670613E-02  0.51100000000E-03 0. -1.
         11    1    4    4    0    0  0.31050781970E-01  0.69186958907E-01 -0.96358402173E-01  0.12262213966E+00  0.51100000000E-03 0.  1.
</event>
<event>
 8    1  0.1063984E+005  0.1043930E+01  0.7957747E-01            NaN
         13   -1    0    0    0    0  0.00000000000E+00  0.00000000000E+00  0.74505805969E-08  0.10566000000E+00  0.10566000000E+00 0. -1.
     999900   -1    0    0    0    0 -0.00000000000E+00 -0.00000000000E+00 -0.74505805969E-08  0.93827000000E+00  0.93827000000E+00 0. -1.
     999902    2    1    2    0    0 -0.10359941082E-01  0.63473720094E-02 -0.20158382804E-01  0.10203932647E+01  0.10201217755E+01 0.  0.
     999903    2    3    3    0    0 -0.88473137200E-01 -0.13226247429E-01  0.91894755959E-01  0.12964037873E+00  0.18961856370E-01 0.  0.
         14    1    1    2    0    0  0.10359941082E-01 -0.63473720094E-02  0.20158382804E-01  0.23536735286E-01  0.00000000000E+00 0. -1.
     999901    1    3    3    0    0  0.78113196117E-01  0.19573619439E-01 -0.11205313876E+00  0.89075288599E+00  0.88000000000E+00 0. -1.
        -11    1    4    4    0    0 -0.67833350706E-01 -0.13531420357E-01  0.80203609047E-01  0.10591195792E+00  0.51100000000E-03 0.  1.
         11    1    4    4    0    0 -0.20639786493E-01  0.30517292787E-03  0.11691146912E-01  0.23728420810E-01  0.51100000000E-03 0. -1.
</event>
<event>
 8    1  0.1063984E+005  0.1043930E+01  0.7957747E-01            NaN
         13   -1    0    0    0    0  0.00000000000E+00  0.00000000000E+00  0.74505805969E-08  0.10566000000E+00  0.10566000000E+00 0.  1.
     999900   -1    0    0    0    0 -0.00000000000E+00 -0.00000000000E+00 -0.74505805969E-08  0.93827000000E+00  0.93827000000E+00 0.  1.
     999902    2    1    2    0    0 -0.13715544728E-01 -0.14591008282E-01 -0.10394974650E-01  0.10213674384E+01  0.10211181983E+01 0.  0.
     999903    2    3    3    0    0  0.65755184956E-01  0.78957079993E-01 -0.77485391099E-01  0.13031863741E+00  0.20518201487E-01 0.  0.
         14    1    1    2    0    0  0.13715544728E-01  0.14591008282E-01  0.10394974650E-01  0.22562561642E-01  0.00000000000E+00 0.  1.
     999901    1    3    3    0    0 -0.79470729684E-01 -0.93548088275E-01  0.67090416449E-01  0.89104880095E+00  0.88000000000E+00 0.  1.
        -11    1    4    4    0    0  0.14873046606E-01  0.31599467166E-01 -0.21048920779E-01  0.40780534910E-01  0.51100000000E-03 0. -1.
         11    1    4    4    0    0  0.50882138350E-01  0.47357612827E-01 -0.56436470320E-01  0.89538102497E-01  0.51100000000E-03 0.  1.
</event>
<event>
 8    1  0.1063984E+005  0.1043930E+01  0.7957747E-01            NaN
         13   -1    0    0    0    0  0.00000000000E+00  0.00000000000E+00  0.74505805969E-08  0.10566000000E+00  0.10566000000E+00 0. -1.
     999900   -1    0    0    0    0 -0.00000000000E+00 -0.00000000000E+00 -0.74505805969E-08  0.93827000000E+00  0.93827000000E+00 0. -1.
     999902    2    1    2    0    0  0.13310192988E-01 -0.10359003468E-01  0.17117049820E-01  0.10198995280E+01  0.10196163904E+01 0.  0.
     999903    2    3    3    0    0  0.39218252078E-01  0.84316765865E-01  0.90588436981E-01  0.13139923337E+00  0.20300377155E-01 0.  0.
         14    1    1    2    0    0 -0.13310192988E-01  0.10359003468E-01 -0.17117049820E-01  0.24030472004E-01  0.00000000000E+00 0.  1.
     999901    1    3    3    0    0 -0.25908059090E-01 -0.94675769333E-01 -0.73471387161E-01  0.88850029463E+00  0.88000000000E+00 0. -1.
        -11    1    4    4    0    0  0.29223187473E-01  0.72346513069E-01  0.83433530720E-01  0.11423409215E+00  0.51100000000E-03 0. -1.
         11    1    4    4    0    0  0.99950646056E-02  0.11970252796E-01  0.71549062608E-02  0.17165141219E-01  0.51100000000E-03 0.  1.
</event>
<event>
 8    1  0.1063984E+005  0.1043930E+01  0.7957747E-01            NaN
         13   -1    0    0    0    0  0.00000000000E+00  0.00000000000E+00  0.74505805969E-08  0.10566000000E+00  0.10566000000E+00 0.  1.
     999900   -1    0    0    0    0 -0.00000000000E+00 -0.00000000000E+00 -0.74505805969E-08  0.93827000000E+00  0.93827000000E+00 0.  1.
     999902    2    1    2    0    0 -0.18815028430E-01 -0.11413817189E-01 -0.90412361837E-02  0.10201387312E+01  0.10198612683E+01 0.  0.
     999903    2    3    3    0    0  0.22132297450E-01 -0.94338157063E-01  0.84776654757E-01  0.13033261398E+00  0.20248027255E-01 0.  0.
         14    1    1    2    0    0  0.18815028430E-01  0.11413817189E-01  0.90412361837E-02  0.23791268763E-01  0.00000000000E+00 0. -1.
     999901    1    3    3    0    0 -0.40947325880E-01  0.82924339874E-01 -0.93817890940E-01  0.88980611725E+00  0.88000000000E+00 0.  1.
        -11    1    4    4    0    0  0.20941867888E-02 -0.12596965637E-01  0.33156411918E-02  0.13203172311E-01  0.51100000000E-03 0.  1.
         11    1    4    4    0    0  0.20038110661E-01 -0.81741191426E-01  0.81461013565E-01  0.11712944167E+00  0.51100000000E-03 0. -1.
</event>
<event>
 8    1  0.1063984E+005  0.1043930E+01  0.7957747E-01            NaN
         13   -1    0    0    0    0  0.00000000000E+00  0.00000000000E+00  0.74505805969E-08  0.10566000000E+00  0.10566000000E+00 0. -1.
     999900   -1    0    0    0    0 -0.00000000000E+00 -0.00000000000E+00 -0.74505805969E-08  0.93827000000E+00  0.93827000000E+00 0.  1.
     999902    2    1    2    0    0 -0.68424787903E-03  0.22060269386E-01  0.70070257741E-02  0.10207735303E+01  0.10205108417E+01 0.  0.
     999903    2    3    3    0    0 -0.82112958841E-01 -0.33181112855E-01 -0.92672700855E-01  0.12969648916E+00  0.19733868258E-01 0.  0.
         14    1    1    2    0    0  0.68424787903E-03 -0.22060269386E-01 -0.70070257741E-02  0.23156469738E-01  0.00000000000E+00 0.  1.
     999901    1    3    3    0    0  0.81428710962E-01  0.55241382241E-01  0.99679726629E-01  0.89107704110E+00  0.88000000000E+00 0. -1.
        -11    1    4    4    0    0 -0.64575872784E-01 -0.16789829032E-01 -0.67928155904E-01  0.95217840714E-01  0.51100000000E-03 0.  1.
         11    1    4    4    0    0 -0.17537086057E-01 -0.16391283823E-01 -0.24744544951E-01  0.34478648444E-01  0.51100000000E-03 0. -1.
</event>
<event>
 8    1  0.1063984E+005  0.1043930E+01  0.7957747E-01            NaN
         13   -1    0    0    0    0  0.00000000000E+00  0.00000000000E+00  0.74505805969E-08  0.10566000000E+00  0.10566000000E+00 0.  1.
     999900   -1    0    0    0    0 -0.00000000000E+00 -0.00000000000E+00 -0.74505805969E-08  0.93827000000E+00  0.93827000000E+00 0. -1.
     999902    2    1    2    0    0 -0.81758921148E-02 -0.15916928751E-02  0.23042522926E-01  0.10194282335E+01  0.10191337433E+01 0.  0.
     999903    2    3    3    0    0  0.62506912573E-02  0.61818130158E-01 -0.10950772708E+00  0.12712867578E+00  0.17584241716E-01 0.  0.
         14    1    1    2    0    0  0.81758921148E-02  0.15916928751E-02 -0.23042522926E-01  0.24501766485E-01  0.00000000000E+00 0. -1.
     999901    1    3    3    0    0 -0.14426583372E-01 -0.63409823033E-01  0.13255025001E+00  0.89229955774E+00  0.88000000000E+00 0.  1.
        -11    1    4    4    0    0  0.10730140839E-01  0.31606842718E-01 -0.66090593006E-01  0.74042933720E-01  0.51100000000E-03 0.  1.
         11    1    4    4    0    0 -0.44794495821E-02  0.30211287439E-01 -0.43417134075E-01  0.53085742055E-01  0.51100000000E-03 0. -1.
</event>
<event>
 8    1  0.1063984E+005  0.1043930E+01  0.7957747E-01            NaN
         13   -1    0    0    0    0  0.00000000000E+00  0.00000000000E+00  0.74505805969E-08  0.10566000000E+00  0.10566000000E+00 0. -1.
     999900   -1    0    0    0    0 -0.00000000000E+00 -0.00000000000E+00 -0.74505805969E-08  0.93827000000E+00  0.93827000000E+00 0.  1.
     999902    2    1    2    0    0  0.31458589133E-02  0.23661193687E-01  0.30524380742E-02  0.10198662120E+01  0.10195822794E+01 0.  0.
     999903    2    3    3    0    0  0.12695987695E+00  0.21944145651E-01  0.13671471778E-01  0.13113361825E+00  0.20217833976E-01 0.  0.
         14    1    1    2    0    0 -0.31458589133E-02 -0.23661193687E-01 -0.30524380742E-02  0.24063788005E-01  0.00000000000E+00 0. -1.
     999901    1    3    3    0    0 -0.12381401803E+00  0.17170480353E-02 -0.10619033704E-01  0.88873259375E+00  0.88000000000E+00 0.  1.
        -11    1    4    4    0    0  0.65054677325E-01  0.56286012709E-02 -0.15879206077E-02  0.65319023317E-01  0.51100000000E-03 0. -1.
         11    1    4    4    0    0  0.61905199622E-01  0.16315544380E-01  0.15259392385E-01  0.65814594929E-01  0.51100000000E-03 0.  1.
</event>
<event>
 8    1  0.1063984E+005  0.1043930E+01  0.7957747E-01            NaN
         13   -1    0    0    0    0  0.00000000000E+00  0.00000000000E+00  0.74505805969E-08  0.10566000000E+00  0.10566000000E+00 0. -1.
     999900   -1    0    0    0    0 -0.00000000000E+00 -0.00000000000E+00 -0.74505805969E-08  0.93827000000E+00  0.93827000000E+00 0. -1.
     999902    2    1    2    0    0 -0.13198219691E-01  0.16412313496E-01 -0.10087463806E-02  0.10228450621E+01  0.10226277164E+01 0.  0.
     999903    2    3    3    0    0  0.10650704768E+00 -0.65674432281E-01  0.30463940997E-01  0.13040004142E+00  0.20475273901E-01 0.  0.
         14    1    1    2    0    0  0.13198219691E-01 -0.16412313496E-01  0.10087463806E-02  0.21084937908E-01  0.00000000000E+00 0. -1.
     999901    1    3    3    0    0 -0.11970526737E+00  0.82086745776E-01 -0.31472687377E-01  0.89244502067E+00  0.88000000000E+00 0. -1.
        -11    1    4    4    0    0  0.21098034486E-01 -0.23293423206E-01  0.83387485293E-02  0.32519324591E-01  0.51100000000E-03 0.  1.
         11    1    4    4    0    0  0.85409013192E-01 -0.42381009075E-01  0.22125192467E-01  0.97880716831E-01  0.51100000000E-03 0. -1.
</event>
<event>
 8    1  0.1063984E+005  0.1043930E+01  0.7957747E-01            NaN
         13   -1    0    0    0    0  0.00000000000E+00  0.00000000000E+00  0.74505805969E-08  0.10566000000E+00  0.10566000000E+00 0. -1.
     999900   -1    0    0    0    0 -0.00000000000E+00 -0.00000000000E+00 -0.74505805969E-08  0.93827000000E+00  0.93827000000E+00 0.  1.
     999902    2    1    2    0    0 -0.27821107438E-01 -0.87939393234E-02 -0.98384166669E-02  0.10131380882E+01  0.10126700568E+01 0.  0.
     999903    2    3    3    0    0  0.11038462168E+00 -0.15095953078E-01 -0.44508900888E-01  0.12165472809E+00  0.20153860804E-01 0.  0.
         14    1    1    2    0    0  0.27821107438E-01  0.87939393234E-02  0.98384166669E-02  0.30791911770E-01  0.00000000000E+00 0.  1.
     999901    1    3    3    0    0 -0.13820572912E+00  0.63020137551E-02  0.34670484221E-01  0.89148336014E+00  0.88000000000E+00 0.  1.
        -11    1    4    4    0    0  0.93208498780E-01 -0.92910869731E-02 -0.44047075073E-01  0.10351113218E+00  0.51100000000E-03 0.  1.
         11    1    4    4    0    0  0.17176122897E-01 -0.58048661054E-02 -0.46182581497E-03  0.18143595905E-01  0.51100000000E-03 0. -1.
</event>
<event>
 8    1  0.1063984E+005  0.1043930E+01  0.7957747E-01            NaN
         13   -1    0    0    0    0  0.00000000000E+00  0.00000000000E+00  0.74505805969E-08  0.10566000000E+00  0.10566000000E+00 0.  1.
     999900   -1    0    0    0    0 -0.00000000000E+00 -0.00000000000E+00 -0.74505805969E-08  0.93827000000E+00  0.93827000000E+00 0.  1.
     999902    2    1    2    0    0  0.60374529962E-02 -0.21064950800E-01  0.73336138806E-02  0.10208223198E+01  0.10205607497E+01 0.  0.
     999903    2    3    3    0    0 -0.69262636440E-02  0.52889625149E-01  0.11851280242E+00  0.13065483602E+00  0.13420739960E-01 0.  0.
         14    1    1    2    0    0 -0.60374529962E-02  0.21064950800E-01 -0.73336138806E-02  0.23107680183E-01  0.00000000000E+00 0. -1.
     999901    1    3    3    0    0  0.12963716640E-01 -0.73954575949E-01 -0.11117918854E+00  0.89016748380E+00  0.88000000000E+00 0.  1.
        -11    1    4    4    0    0 -0.36958857491E-02  0.44966172430E-01  0.87097078564E-01  0.98090664438E-01  0.51100000000E-03 0.  1.
         11    1    4    4    0    0 -0.32303778949E-02  0.79234527187E-02  0.31415723854E-01  0.32564171579E-01  0.51100000000E-03 0. -1.
</event>
<event>
 8    1  0.1063984E+005  0.1043930E+01  0.7957747E-01            NaN
         13   -1    0    0    0    0  0.00000000000E+00  0.00000000000E+00  0.74505805969E-08  0.10566000000E+00  0.10566000000E+00 0.  1.
     999900   -1    0    0    0    0 -0.00000000000E+00 -0.00000000000E+00 -0.74505805969E-08  0.93827000000E+00  0.93827000000E+00 0. -1.
     999902    2    1    2    0    0 -0.88428666527E-02 -0.21944192595E-01 -0.66537349276E-05  0.10202710921E+01  0.10199967438E+01 0.  0.
     999903    2    3    3    0    0 -0.12909647384E+00 -0.11498203364E-01  0.57675384158E-02  0.13201246420E+00  0.24411431062E-01 0.  0.
         14    1    1    2    0    0  0.88428666527E-02  0.21944192595E-01  0.66537349276E-05  0.23658907911E-01  0.00000000000E+00 0.  1.
     999901    1    3    3    0    0  0.12025360718E+00 -0.10445989231E-01 -0.57741921507E-02  0.88825862789E+00  0.88000000000E+00 0.  1.
        -11    1    4    4    0    0 -0.66028456101E-01 -0.14787013663E-01  0.11347028175E-01  0.68610705852E-01  0.51100000000E-03 0.  1.
         11    1    4    4    0    0 -0.63068017734E-01  0.32888102996E-02 -0.55794897591E-02  0.63401758344E-01  0.51100000000E-03 0. -1.
</event>
<event>
 8    1  0.1063984E+005  0.1043930E+01  0.7957747E-01            NaN
         13   -1    0    0    0    0  0.00000000000E+00  0.00000000000E+00  0.74505805969E-08  0.10566000000E+00  0.10566000000E+00 0. -1.
     999900   -1    0    0    0    0 -0.00000000000E+00 -0.00000000000E+00 -0.74505805969E-08  0.93827000000E+00  0.93827000000E+00 0.  1.
     999902    2    1    2    0    0 -0.18644195166E-01  0.91080863431E-02 -0.12341314310E-01  0.10197872725E+01  0.10195014517E+01 0.  0.
     999903    2    3    3    0    0  0.42513805235E-01  0.28965165161E-01  0.11542108604E+00  0.12823927297E+00  0.21837573172E-01 0.  0.
         14    1    1    2    0    0  0.18644195166E-01 -0.91080863431E-02  0.12341314310E-01  0.24142727458E-01  0.00000000000E+00 0. -1.
     999901    1    3    3    0    0 -0.61158000401E-01 -0.19857078818E-01 -0.12776240035E+00  0.89154799957E+00  0.88000000000E+00 0.  1.
        -11    1    4    4    0    0  0.35864914607E-01  0.24027950580E-01  0.71358112482E-01  0.83401893545E-01  0.51100000000E-03 0. -1.
         11    1    4    4    0    0  0.66488906282E-02  0.49372145813E-02  0.44062973556E-01  0.44837379428E-01  0.51100000000E-03 0.  1.
</event>
<event>
 8    1  0.1063984E+005  0.1043930E+01  0.7957747E-01            NaN
         13   -1    0    0    0    0  0.00000000000E+00  0.00000000000E+00  0.74505805969E-08  0.10566000000E+00  0.10566000000E+00 0.  1.
     999900   -1    0    0    0    0 -0.00000000000E+00 -0.00000000000E+00 -0.74505805969E-08  0.93827000000E+00  0.93827000000E+00 0. -1.
     999902    2    1    2    0    0  0.20061955261E-03 -0.21968304713E-01  0.10133461836E-02  0.10219374210E+01  0.10217007482E+01 0.  0.
     999903    2    3    3    0    0 -0.61727676083E-02  0.12757911282E+00  0.39271103170E-02  0.12929329249E+00  0.19667236692E-01 0.  0.
         14    1    1    2    0    0 -0.20061955261E-03  0.21968304713E-01 -0.10133461836E-02  0.21992578991E-01  0.00000000000E+00 0.  1.
     999901    1    3    3    0    0  0.63733871609E-02 -0.14954741754E+00 -0.29137641334E-02  0.89264412852E+00  0.88000000000E+00 0.  1.
        -11    1    4    4    0    0  0.34082965278E-02  0.47082179397E-01  0.90383645105E-02  0.48065593266E-01  0.51100000000E-03 0. -1.
         11    1    4    4    0    0 -0.95810641361E-02  0.80496933427E-01 -0.51112541934E-02  0.81227699226E-01  0.51100000000E-03 0.  1.
</event>
<event>
 8    1  0.1063984E+005  0.1043930E+01  0.7957747E-01            NaN
         13   -1    0    0    0    0  0.00000000000E+00  0.00000000000E+00  0.74505805969E-08  0.10566000000E+00  0.10566000000E+00 0. -1.
     999900   -1    0    0    0    0 -0.00000000000E+00 -0.00000000000E+00 -0.74505805969E-08  0.93827000000E+00  0.93827000000E+00 0. -1.
     999902    2    1    2    0    0 -0.12117181175E-01  0.66296718709E-02  0.19196243484E-01  0.10202810171E+01  0.10200069017E+01 0.  0.
     999903    2    3    3    0    0 -0.95375671993E-02 -0.96490655097E-01 -0.82214636794E-01  0.12847127119E+00  0.18552878736E-01 0.  0.
         14    1    1    2    0    0  0.12117181175E-01 -0.66296718709E-02 -0.19196243484E-01  0.23648982909E-01  0.00000000000E+00 0.  1.
     999901    1    3    3    0    0 -0.25796139754E-02  0.10312032697E+00  0.10141088028E+00  0.89180974590E+00  0.88000000000E+00 0.  1.
        -11    1    4    4    0    0 -0.12971557696E-01 -0.68914357991E-01 -0.65962513911E-01  0.96274422402E-01  0.51100000000E-03 0. -1.
         11    1    4    4    0    0  0.34339904966E-02 -0.27576297106E-01 -0.16252122883E-01  0.32196848790E-01  0.51100000000E-03 0.  1.
</event>
<event>
 8    1  0.1063984E+005  0.1043930E+01  0.7957747E-01            NaN
         13   -1    0    0    0    0  0.00000000000E+00  0.00000000000E+00  0.74505805969E-08  0.10566000000E+00  0.10566000000E+00 0.  1.
     999900   -1    0    0    0    0 -0.00000000000E+00 -0.00000000000E+00 -0.74505805969E-08  0.93827000000E+00  0.93827000000E+00 0. -1.
     999902    2    1    2    0    0 -0.75068041874E-02 -0.15237657105E-01  0.16176228559E-01  0.10204734727E+01  0.10202038521E+01 0.  0.
     999903    2    3    3    0    0  0.70637359870E-01  0.84283670232E-01  0.66545204147E-01  0.12999717392E+00  0.19432636318E-01 0.  0.
         14    1    1    2    0    0  0.75068041874E-02  0.15237657105E-01 -0.16176228559E-01  0.23456527312E-01  0.00000000000E+00 0. -1.
     999901    1    3    3    0    0 -0.78144164057E-01 -0.99521327337E-01 -0.50368975587E-01  0.89047629877E+00  0.88000000000E+00 0. -1.
        -11    1    4    4    0    0  0.37453494331E-01  0.47704315031E-01  0.47587527519E-01  0.77092799966E-01  0.51100000000E-03 0.  1.
         11    1    4    4    0    0  0.33183865539E-01  0.36579355201E-01  0.18957676627E-01  0.52904373951E-01  0.51100000000E-03 0. -1.
</event>
<event>
 8    1  0.1063984E+005  0.1043930E+01  0.7957747E-01            NaN
         13   -1    0    0    0    0  0.00000000000E+00  0.00000000000E+00  0.74505805969E-08  0.10566000000E+00  0.10566000000E+00 0.  1.
     999900   -1    0    0    0    0 -0.00000000000E+00 -0.00000000000E+00 -0.74505805969E-08  0.93827000000E+00  0.93827000000E+00 0.  1.
     999902    2    1    2    0    0 -0.10594776639E-01 -0.18979964123E-01  0.10210560788E-01  0.10199145075E+01  0.10196317270E+01 0.  0.
     999903    2    3    3    0    0 -0.63964461140E-01 -0.44716620267E-01  0.10565623589E+00  0.13277270618E+00  0.19347426345E-01 0.  0.
         14    1    1    2    0    0  0.10594776639E-01  0.18979964123E-01 -0.10210560788E-01  0.24015492537E-01  0.00000000000E+00 0. -1.
     999901    1    3    3    0    0  0.53369684500E-01  0.25736656144E-01 -0.95445675102E-01  0.88714180129E+00  0.88000000000E+00 0.  1.
        -11    1    4    4    0    0 -0.23532284805E-01 -0.18400401937E-01  0.25801267266E-01  0.39475432019E-01  0.51100000000E-03 0.  1.
         11    1    4    4    0    0 -0.40432176335E-01 -0.26316218330E-01  0.79854968624E-01  0.93297274158E-01  0.51100000000E-03 0. -1.
</event>
<event>
 8    1  0.1063984E+005  0.1043930E+01  0.7957747E-01            NaN
         13   -1    0    0    0    0  0.00000000000E+00  0.00000000000E+00  0.74505805969E-08  0.10566000000E+00  0.10566000000E+00 0.  1.
     999900   -1    0    0    0    0 -0.00000000000E+00 -0.00000000000E+00 -0.74505805969E-08  0.93827000000E+00  0.93827000000E+00 0.  1.
     999902    2    1    2    0    0  0.19927389913E-01 -0.96108658087E-02 -0.78613155500E-02  0.10204508626E+01  0.10201807159E+01 0.  0.
     999903    2    3    3    0    0 -0.77235656774E-01 -0.19618853529E-01  0.98887976317E-01  0.12863460980E+00  0.20439786879E-01 0.  0.
         14    1    1    2    0    0 -0.19927389913E-01  0.96108658087E-02  0.78613155500E-02  0.23479137389E-01  0.00000000000E+00 0.  1.
     999901    1    3    3    0    0  0.97163046688E-01  0.10007987720E-01 -0.10674929187E+00  0.89181625281E+00  0.88000000000E+00 0.  1.
        -11    1    4    4    0    0 -0.38310990390E-02 -0.64830957007E-02  0.69985883055E-02  0.10293163215E-01  0.51100000000E-03 0.  1.
         11    1    4    4    0    0 -0.73404557735E-01 -0.13135757828E-01  0.91889388012E-01  0.11834144659E+00  0.51100000000E-03 0. -1.
</event>
<event>
 8    1  0.1063984E+005  0.1043930E+01  0.7957747E-01            NaN
         13   -1    0    0    0    0  0.00000000000E+00  0.00000000000E+00  0.74505805969E-08  0.10566000000E+00  0.10566000000E+00 0. -1.
     999900   -1    0    0    0    0 -0.00000000000E+00 -0.00000000000E+00 -0.74505805969E-08  0.93827000000E+00  0.93827000000E+00 0.  1.
     999902    2    1    2    0    0  0.46003036222E-02  0.21633821384E-01 -0.44415377538E-02  0.10213709158E+01  0.10211217535E+01 0.  0.
     999903    2    3    3    0    0  0.36486261101E-01 -0.11688896931E+00  0.36090105378E-01  0.12904357011E+00  0.18853882489E-01 0.  0.
         14    1    1    2    0    0 -0.46003036222E-02 -0.21633821384E-01  0.44415377538E-02  0.22559084173E-01  0.00000000000E+00 0.  1.
     999901    1    3    3    0    0 -0.31885957479E-01  0.13852279069E+00 -0.40531643132E-01  0.89232734572E+00  0.88000000000E+00 0. -1.
        -11    1    4    4    0    0  0.83007008603E-02 -0.22208214397E-01  0.14904421037E-01  0.28009093326E-01  0.51100000000E-03 0.  1.
         11    1    4    4    0    0  0.28185560241E-01 -0.94680754910E-01  0.21185684340E-01  0.10103447678E+00  0.51100000000E-03 0. -1.
</event>
<event>
 8    1  0.1063984E+005  0.1043930E+01  0.7957747E-01            NaN
         13   -1    0    0    0    0  0.00000000000E+00  0.00000000000E+00  0.74505805969E-08  0.10566000000E+00  0.10566000000E+00 0.  1.
     999900   -1    0    0    0    0 -0.00000000000E+00 -0.00000000000E+00 -0.74505805969E-08  0.93827000000E+00  0.93827000000E+00 0. -1.
     999902    2    1    2    0    0  0.21535663143E-01  0.79474544612E-03  0.10204089386E-01  0.10200859264E+01  0.10198072158E+01 0.  0.
     999903    2    3    3    0    0 -0.37301125734E-01 -0.59941274885E-01  0.10807668740E+00  0.13063121851E+00  0.19990359490E-01 0.  0.
         14    1    1    2    0    0 -0.21535663143E-01 -0.79474544612E-03 -0.10204089386E-01  0.23844073635E-01  0.00000000000E+00 0. -1.
     999901    1    3    3    0    0  0.58836788877E-01  0.60736020331E-01 -0.97872598016E-01  0.88945470786E+00  0.88000000000E+00 0. -1.
        -11    1    4    4    0    0 -0.22528693256E-01 -0.23325698476E-01  0.36059688374E-01  0.48499406964E-01  0.51100000000E-03 0.  1.
         11    1    4    4    0    0 -0.14772432478E-01 -0.36615576409E-01  0.72016999028E-01  0.82131811541E-01  0.51100000000E-03 0. -1.
</event>
<event>
 8    1  0.1063984E+005  0.1043930E+01  0.7957747E-01            NaN
         13   -1    0    0    0    0  0.00000000000E+00  0.00000000000E+00  0.74505805969E-08  0.10566000000E+00  0.10566000000E+00 0.  1.
     999900   -1    0    0    0    0 -0.00000000000E+00 -0.00000000000E+00 -0.74505805969E-08  0.93827000000E+00  0.93827000000E+00 0. -1.
     999902    2    1    2    0    0 -0.23185351254E-01 -0.23271162061E-02  0.23753344223E-02  0.10205073999E+01  0.10202385677E+01 0.  0.
     999903    2    3    3    0    0 -0.14336223170E-02  0.10608764840E+00  0.73685562093E-01  0.13072537744E+00  0.20072813198E-01 0.  0.
         14    1    1    2    0    0  0.23185351254E-01  0.23271162061E-02 -0.23753344223E-02  0.23422600117E-01  0.00000000000E+00 0. -1.
     999901    1    3    3    0    0 -0.21751728937E-01 -0.10841476460E+00 -0.71310227670E-01  0.88978202245E+00  0.88000000000E+00 0. -1.
        -11    1    4    4    0    0  0.14854547878E-02  0.12714414962E-01  0.17577888594E-01  0.21751004854E-01  0.51100000000E-03 0. -1.
         11    1    4    4    0    0 -0.29190771047E-02  0.93373233437E-01  0.56107673499E-01  0.10897437258E+00  0.51100000000E-03 0.  1.
</event>
<event>
 8    1  0.1063984E+005  0.1043930E+01  0.7957747E-01            NaN
         13   -1    0    0    0    0  0.00000000000E+00  0.00000000000E+00  0.74505805969E-08  0.10566000000E+00  0.10566000000E+00 0.  1.
     999900   -1    0    0    0    0 -0.00000000000E+00 -0.00000000000E+00 -0.74505805969E-08  0.93827000000E+00  0.93827000000E+00 0.  1.
     999902    2    1    2    0    0  0.79419742947E-02  0.26122638093E-01 -0.12821310800E-01  0.10137662272E+01  0.10133173789E+01 0.  0.
     999903    2    3    3    0    0 -0.67489417571E-01 -0.23309555611E-01  0.97244125779E-01  0.12233600732E+00  0.20286000630E-01 0.  0.
         14    1    1    2    0    0 -0.79419742947E-02 -0.26122638093E-01  0.12821310800E-01  0.30163772763E-01  0.00000000000E+00 0.  1.
     999901    1    3    3    0    0  0.75431391866E-01  0.49432193704E-01 -0.11006543658E+00  0.89143021992E+00  0.88000000000E+00 0.  1.
        -11    1    4    4    0    0 -0.49128619429E-01 -0.25268565492E-01  0.78745669613E-01  0.96193883655E-01  0.51100000000E-03 0. -1.
         11    1    4    4    0    0 -0.18360798142E-01  0.19590098808E-02  0.18498456166E-01  0.26142123664E-01  0.51100000000E-03 0.  1.
</event>
<event>
 8    1  0.1063984E+005  0.1043930E+01  0.7957747E-01            NaN
         13   -1    0    0    0    0  0.00000000000E+00  0.00000000000E+00  0.74505805969E-08  0.10566000000E+00  0.10566000000E+00 0.  1.
     999900   -1    0    0    0    0 -0.00000000000E+00 -0.00000000000E+00 -0.74505805969E-08  0.93827000000E+00  0.93827000000E+00 0. -1.
     999902    2    1    2    0    0 -0.98822167185E-02 -0.20975137717E-02  0.21836043625E-01  0.10198702707E+01  0.10195864351E+01 0.  0.
     999903    2    3    3    0    0 -0.68190696563E-01 -0.19021404298E-01 -0.10542948671E+00  0.12864481547E+00  0.20550595136E-01 0.  0.
         14    1    1    2    0    0  0.98822167185E-02  0.20975137717E-02 -0.21836043625E-01  0.24059729268E-01  0.00000000000E+00 0. -1.
     999901    1    3    3    0    0  0.58308479844E-01  0.16923890526E-01  0.12726553034E+00  0.89122545526E+00  0.88000000000E+00 0.  1.
        -11    1    4    4    0    0 -0.12265171057E-01 -0.88745229921E-02 -0.12181011964E-01  0.19437843318E-01  0.51100000000E-03 0. -1.
         11    1    4    4    0    0 -0.55925525506E-01 -0.10146881306E-01 -0.93248474747E-01  0.10920697215E+00  0.51100000000E-03 0.  1.
</event>
<event>
 8    1  0.1063984E+005  0.1043930E+01  0.7957747E-01            NaN
         13   -1    0    0    0    0  0.00000000000E+00  0.00000000000E+00  0.74505805969E-08  0.10566000000E+00  0.10566000000E+00 0.  1.
     999900   -1    0    0    0    0 -0.00000000000E+00 -0.00000000000E+00 -0.74505805969E-08  0.93827000000E+00  0.93827000000E+00 0.  1.
     999902    2    1    2    0    0 -0.41494674084E-02  0.16124412458E-01  0.17707002204E-01  0.10196245956E+01  0.10193348631E+01 0.  0.
     999903    2    3    3    0    0  0.85033822411E-01  0.90430519959E-01 -0.34852273646E-01  0.13044658513E+00  0.19829288932E-01 0.  0.
         14    1    1    2    0    0  0.41494674084E-02 -0.16124412458E-01 -0.17707002204E-01  0.24305404419E-01  0.00000000000E+00 0. -1.
     999901    1    3    3    0    0 -0.89183289819E-01 -0.74306107500E-01  0.52559275850E-01  0.88917801045E+00  0.88000000000E+00 0. -1.
        -11    1    4    4    0    0  0.51210148206E-01  0.50519832699E-01 -0.10360347798E-01  0.72679644349E-01  0.51100000000E-03 0. -1.
         11    1    4    4    0    0  0.33823674205E-01  0.39910687260E-01 -0.24491925848E-01  0.57766940780E-01  0.51100000000E-03 0.  1.
</event>
<event>
 8    1  0.1063984E+005  0.1043930E+01  0.7957747E-01            NaN
         13   -1    0    0    0    0  0.00000000000E+00  0.00000000000E+00  0.74505805969E-08  0.10566000000E+00  0.10566000000E+00 0. -1.
     999900   -1    0    0    0    0 -0.00000000000E+00 -0.00000000000E+00 -0.74505805969E-08  0.93827000000E+00  0.93827000000E+00 0.  1.
     999902    2    1    2    0    0 -0.21065848716E-01 -0.90293086347E-02  0.74610083908E-02  0.10198267836E+01  0.10195419086E+01 0.  0.
     999903    2    3    3    0    0  0.11773199603E+00 -0.23003162155E-01  0.40363758930E-01  0.12823119066E+00  0.20592155406E-01 0.  0.
         14    1    1    2    0    0  0.21065848716E-01  0.90293086347E-02 -0.74610083908E-02  0.24103216440E-01  0.00000000000E+00 0.  1.
     999901    1    3    3    0    0 -0.13879784475E+00  0.13973853520E-01 -0.32902750539E-01  0.89159559290E+00  0.88000000000E+00 0.  1.
        -11    1    4    4    0    0  0.22380387426E-01 -0.10089667239E-01  0.19802136250E-02  0.24634640109E-01  0.51100000000E-03 0.  1.
         11    1    4    4    0    0  0.95351608605E-01 -0.12913494916E-01  0.38383545305E-01  0.10359655055E+00  0.51100000000E-03 0. -1.
</event>
<event>
 8    1  0.1063984E+005  0.1043930E+01  0.7957747E-01            NaN
         13   -1    0    0    0    0  0.00000000000E+00  0.00000000000E+00  0.74505805969E-08  0.10566000000E+00  0.10566000000E+00 0.  1.
     999900   -1    0    0    0    0 -0.00000000000E+00 -0.00000000000E+00 -0.74505805969E-08  0.93827000000E+00  0.93827000000E+00 0. -1.
     999902    2    1    2    0    0 -0.55052284794E-02  0.13516781665E-01  0.19765866422E-01  0.10193596845E+01  0.10190635240E+01 0.  0.
     999903    2    3    3    0    0  0.48970204612E-01  0.11844372062E+00 -0.17704578180E-01  0.13066329680E+00  0.18233188137E-01 0.  0.
         14    1    1    2    0    0  0.55052284794E-02 -0.13516781665E-01 -0.19765866422E-01  0.24570315477E-01  0.00000000000E+00 0. -1.
     999901    1    3    3    0    0 -0.54475433092E-01 -0.10492693895E+00  0.37470444602E-01  0.88869638772E+00  0.88000000000E+00 0.  1.
        -11    1    4    4    0    0  0.28477415704E-01  0.46428492792E-01 -0.10161523568E-01  0.55408355239E-01  0.51100000000E-03 0.  1.
         11    1    4    4    0    0  0.20492788908E-01  0.72015227825E-01 -0.75430546125E-02  0.75254941564E-01  0.51100000000E-03 0. -1.
</event>
<event>
 8    1  0.1063984E+005  0.1043930E+01  0.7957747E-01            NaN
         13   -1    0    0    0    0  0.00000000000E+00  0.00000000000E+00  0.74505805969E-08  0.10566000000E+00  0.10566000000E+00 0.  1.
     999900   -1    0    0    0    0 -0.00000000000E+00 -0.00000000000E+00 -0.74505805969E-08  0.93827000000E+00  0.93827000000E+00 0.  1.
     999902    2    1    2    0    0  0.20598767126E-01  0.10694137332E-01  0.45013107425E-02  0.10202881816E+01  0.10200142342E+01 0.  0.
     999903    2    3    3    0    0  0.12161782858E+00  0.42590729369E-01  0.29464202028E-01  0.13358338892E+00  0.19274753920E-01 0.  0.
         14    1    1    2    0    0 -0.20598767126E-01 -0.10694137332E-01 -0.45013107425E-02  0.23641818432E-01  0.00000000000E+00 0.  1.
     999901    1    3    3    0    0 -0.10101906145E+00 -0.31896592037E-01 -0.24962891285E-01  0.88670479265E+00  0.88000000000E+00 0. -1.
        -11    1    4    4    0    0  0.70272473134E-01  0.26430547770E-01  0.75358382727E-02  0.75457566323E-01  0.51100000000E-03 0. -1.
         11    1    4    4    0    0  0.51345355443E-01  0.16160181599E-01  0.21928363755E-01  0.58125822599E-01  0.51100000000E-03 0.  1.
</event>
<event>
 8    1  0.1063984E+005  0.1043930E+01  0.7957747E-01            NaN
         13   -1    0    0    0    0  0.00000000000E+00  0.00000000000E+00  0.74505805969E-08  0.10566000000E+00  0.10566000000E+00 0.  1.
     999900   -1    0    0    0    0 -0.00000000000E+00 -0.00000000000E+00 -0.74505805969E-08  0.93827000000E+00  0.93827000000E+00 0. -1.
     999902    2    1    2    0    0  0.39381145954E-02  0.10602242659E-01  0.20424997617E-01  0.10205826913E+01  0.10203156046E+01 0.  0.
     999903    2    3    3    0    0 -0.11165016527E+00 -0.53409287964E-01  0.34963892505E-01  0.13059982295E+00  0.22705253310E-01 0.  0.
         14    1    1    2    0    0 -0.39381145954E-02 -0.10602242659E-01 -0.20424997617E-01  0.23347308702E-01  0.00000000000E+00 0.  1.
     999901    1    3    3    0    0  0.11558827987E+00  0.64011530623E-01 -0.14538894888E-01  0.88998286835E+00  0.88000000000E+00 0. -1.
        -11    1    4    4    0    0 -0.60848874372E-01 -0.22820889907E-01  0.28441714010E-01  0.70940614216E-01  0.51100000000E-03 0.  1.
         11    1    4    4    0    0 -0.50801290901E-01 -0.30588398057E-01  0.65221784954E-02  0.59659208730E-01  0.51100000000E-03 0. -1.
</event>
<event>
 8    1  0.1063984E+005  0.1043930E+01  0.7957747E-01            NaN
         13   -1    0    0    0    0  0.00000000000E+00  0.00000000000E+00  0.74505805969E-08  0.10566000000E+00  0.10566000000E+00 0.  1.
     999900   -1    0    0    0    0 -0.00000000000E+00 -0.00000000000E+00 -0.74505805969E-08  0.93827000000E+00  0.93827000000E+00 0.  1.
     999902    2    1    2    0    0 -0.19931438377E-01  0.92497026022E-02 -0.18527718654E-01  0.10151881213E+01  0.10147811715E+01 0.  0.
     999903    2    3    3    0    0  0.56144776017E-01  0.94980122077E-01 -0.58937930877E-01  0.12683555587E+00  0.20979015042E-01 0.  0.
         14    1    1    2    0    0  0.19931438377E-01 -0.92497026022E-02  0.18527718654E-01  0.28741878723E-01  0.00000000000E+00 0. -1.
     999901    1    3    3    0    0 -0.76076214395E-01 -0.85730419474E-01  0.40410212223E-01  0.88835256541E+00  0.88000000000E+00 0. -1.
        -11    1    4    4    0    0  0.48773079499E-01  0.79051206775E-01 -0.57438104135E-01  0.10921219485E+00  0.51100000000E-03 0. -1.
         11    1    4    4    0    0  0.73716965185E-02  0.15928915302E-01 -0.14998267420E-02  0.17623361016E-01  0.51100000000E-03 0.  1.
</event>
<event>
 8    1  0.1063984E+005  0.1043930E+01  0.7957747E-01            NaN
         13   -1    0    0    0    0  0.00000000000E+00  0.00000000000E+00  0.74505805969E-08  0.10566000000E+00  0.10566000000E+00 0.  1.
     999900   -1    0    0    0    0 -0.00000000000E+00 -0.00000000000E+00 -0.74505805969E-08  0.93827000000E+00  0.93827000000E+00 0.  1.
     999902    2    1    2    0    0  0.95933333853E-02  0.30490009138E-02  0.22512128177E-01  0.10192698222E+01  0.10189714648E+01 0.  0.
     999903    2    3    3    0    0 -0.67974714563E-01 -0.19216381559E-01 -0.10313988531E+00  0.12668874592E+00  0.20551672914E-01 0.  0.
         14    1    1    2    0    0 -0.95933333853E-02 -0.30490009138E-02 -0.22512128177E-01  0.24660177758E-01  0.00000000000E+00 0. -1.
     999901    1    3    3    0    0  0.77568047948E-01  0.22265382473E-01  0.12565201349E+00  0.89258107632E+00  0.88000000000E+00 0. -1.
        -11    1    4    4    0    0 -0.27055190705E-01 -0.50932155149E-02 -0.24203661051E-01  0.36660639897E-01  0.51100000000E-03 0. -1.
         11    1    4    4    0    0 -0.40919523857E-01 -0.14123166044E-01 -0.78936224262E-01  0.90028106020E-01  0.51100000000E-03 0.  1.
</event>
<event>
 8    1  0.1063984E+005  0.1043930E+01  0.7957747E-01            NaN
         13   -1    0    0    0    0  0.00000000000E+00  0.00000000000E+00  0.74505805969E-08  0.10566000000E+00  0.10566000000E+00 0.  1.
     999900   -1    0    0    0    0 -0.00000000000E+00 -0.00000000000E+00 -0.74505805969E-08  0.93827000000E+00  0.93827000000E+00 0. -1.
     999902    2    1    2    0    0  0.25748834279E-01 -0.66055489253E-02 -0.64150410648E-03  0.10173396395E+01  0.10169920820E+01 0.  0.
     999903    2    3    3    0    0  0.55538476546E-01  0.24440230032E-01  0.11205074243E+00  0.12911061184E+00  0.20792642628E-01 0.  0.
         14    1    1    2    0    0 -0.25748834279E-01  0.66055489253E-02  0.64150410648E-03  0.26590360487E-01  0.00000000000E+00 0.  1.
     999901    1    3    3    0    0 -0.29789642268E-01 -0.31045778957E-01 -0.11269224654E+00  0.88822902768E+00  0.88000000000E+00 0. -1.
        -11    1    4    4    0    0  0.53255360324E-01  0.20566876027E-01  0.89853063464E-01  0.10645639449E+00  0.51100000000E-03 0.  1.
         11    1    4    4    0    0  0.22831162224E-02  0.38733540051E-02  0.22197678970E-01  0.22654217347E-01  0.51100000000E-03 0. -1.
</event>
<event>
 8    1  0.1063984E+005  0.1043930E+01  0.7957747E-01            NaN
         13   -1    0    0    0    0  0.00000000000E+00  0.00000000000E+00  0.74505805969E-08  0.10566000000E+00  0.10566000000E+00 0. -1.
     999900   -1    0    0    0    0 -0.00000000000E+00 -0.00000000000E+00 -0.74505805969E-08  0.93827000000E+00  0.93827000000E+00 0.  1.
     999902    2    1    2    0    0  0.19535951222E-01 -0.30752602925E-02  0.14099763632E-01  0.10196418558E+01  0.10193525396E+01 0.  0.
     999903    2    3    3    0    0 -0.37878074625E-01  0.79445895238E-01  0.93856776696E-01  0.13033465765E+00  0.20775698462E-01 0.  0.
         14    1    1    2    0    0 -0.19535951222E-01  0.30752602925E-02 -0.14099763632E-01  0.24288144238E-01  0.00000000000E+00 0.  1.
     999901    1    3    3    0    0  0.57414025847E-01 -0.82521155530E-01 -0.79757013064E-01  0.88930719811E+00  0.88000000000E+00 0.  1.
        -11    1    4    4    0    0 -0.18007567839E-01  0.25399523796E-01  0.21411627731E-01  0.37790570671E-01  0.51100000000E-03 0. -1.
         11    1    4    4    0    0 -0.19870506786E-01  0.54046371442E-01  0.72445148965E-01  0.92544086984E-01  0.51100000000E-03 0.  1.
</event>
<event>
 8    1  0.1063984E+005  0.1043930E+01  0.7957747E-01            NaN
         13   -1    0    0    0    0  0.00000000000E+00  0.00000000000E+00  0.74505805969E-08  0.10566000000E+00  0.10566000000E+00 0. -1.
     999900   -1    0    0    0    0 -0.00000000000E+00 -0.00000000000E+00 -0.74505805969E-08  0.93827000000E+00  0.93827000000E+00 0. -1.
     999902    2    1    2    0    0 -0.88678371062E-02  0.15856427574E-01  0.17381873593E-01  0.10187865245E+01  0.10184762089E+01 0.  0.
     999903    2    3    3    0    0 -0.18831595097E-01 -0.63129164827E-01  0.11061707470E+00  0.13028733880E+00  0.19968300135E-01 0.  0.
         14    1    1    2    0    0  0.88678371062E-02 -0.15856427574E-01 -0.17381873593E-01  0.25143475495E-01  0.00000000000E+00 0.  1.
     999901    1    3    3    0    0  0.99637579910E-02  0.78985592402E-01 -0.93235201104E-01  0.88849918571E+00  0.88000000000E+00 0. -1.
        -11    1    4    4    0    0 -0.12300115962E-01 -0.27728402319E-01  0.33593797094E-01  0.45265455616E-01  0.51100000000E-03 0.  1.
         11    1    4    4    0    0 -0.65314791347E-02 -0.35400762508E-01  0.77023277603E-01  0.85021883181E-01  0.51100000000E-03 0. -1.
</event>
<event>
 8    1  0.1063984E+005  0.1043930E+01  0.7957747E-01            NaN
         13   -1    0    0    0    0  0.00000000000E+00  0.00000000000E+00  0.74505805969E-08  0.10566000000E+00  0.10566000000E+00 0.  1.
     999900   -1    0    0    0    0 -0.00000000000E+00 -0.00000000000E+00 -0.74505805969E-08  0.93827000000E+00  0.93827000000E+00 0.  1.
     999902    2    1    2    0    0 -0.16670667453E-01 -0.16454585794E-01  0.30617036442E-02  0.10203071599E+01  0.10200336572E+01 0.  0.
     999903    2    3    3    0    0  0.27987561614E-01 -0.42066023177E-01  0.11916833869E+00  0.13118902719E+00  0.21368528224E-01 0.  0.
         14    1    1    2    0    0  0.16670667453E-01  0.16454585794E-01 -0.30617036442E-02  0.23622840138E-01  0.00000000000E+00 0. -1.
     999901    1    3    3    0    0 -0.44658229068E-01  0.25611437382E-01 -0.11610663504E+00  0.88911813267E+00  0.88000000000E+00 0.  1.
        -11    1    4    4    0    0  0.24864572694E-01 -0.19930427928E-01  0.79537734227E-01  0.85685361758E-01  0.51100000000E-03 0. -1.
         11    1    4    4    0    0  0.31229889202E-02 -0.22135595249E-01  0.39630604459E-01  0.45503665430E-01  0.51100000000E-03 0.  1.
</event>
<event>
 8    1  0.1063984E+005  0.1043930E+01  0.7957747E-01            NaN
         13   -1    0    0    0    0  0.00000000000E+00  0.00000000000E+00  0.74505805969E-08  0.10566000000E+00  0.10566000000E+00 0.  1.
     999900   -1    0    0    0    0 -0.00000000000E+00 -0.00000000000E+00 -0.74505805969E-08  0.93827000000E+00  0.93827000000E+00 0.  1.
     999902    2    1    2    0    0 -0.14783483407E-01  0.17308728771E-01 -0.55681930791E-02  0.10204960877E+01  0.10202269927E+01 0.  0.
     999903    2    3    3    0    0 -0.88620953302E-01 -0.44750940371E-01  0.83684320036E-01  0.13073803876E+00  0.15265953291E-01 0.  0.
         14    1    1    2    0    0  0.14783483407E-01 -0.17308728771E-01  0.55681930791E-02  0.23433912338E-01  0.00000000000E+00 0.  1.
     999901    1    3    3    0    0  0.73837469896E-01  0.62059669142E-01 -0.89252513115E-01  0.88975804891E+00  0.88000000000E+00 0. -1.
        -11    1    4    4    0    0 -0.35976517797E-01 -0.10155936969E-01  0.28929699604E-01  0.47271995184E-01  0.51100000000E-03 0.  1.
         11    1    4    4    0    0 -0.52644435505E-01 -0.34595003402E-01  0.54754620432E-01  0.83466043573E-01  0.51100000000E-03 0. -1.
</event>
<event>
 8    1  0.1063984E+005  0.1043930E+01  0.7957747E-01            NaN
         13   -1    0    0    0    0  0.00000000000E+00  0.00000000000E+00  0.74505805969E-08  0.10566000000E+00  0.10566000000E+00 0.  1.
     999900   -1    0    0    0    0 -0.00000000000E+00 -0.00000000000E+00 -0.74505805969E-08  0.93827000000E+00  0.93827000000E+00 0.  1.
     999902    2    1    2    0    0 -0.11750473494E-01  0.15378655815E-01  0.14574214779E-01  0.10197022387E+01  0.10194143766E+01 0.  0.
     999903    2    3    3    0    0  0.11348040466E-01  0.12819058730E+00 -0.18190963247E-01  0.13159547138E+00  0.20611944343E-01 0.  0.
         14    1    1    2    0    0  0.11750473494E-01 -0.15378655815E-01 -0.14574214779E-01  0.24227761317E-01  0.00000000000E+00 0. -1.
     999901    1    3    3    0    0 -0.23098513960E-01 -0.11281193149E+00  0.32765178026E-01  0.88810676730E+00  0.88000000000E+00 0. -1.
        -11    1    4    4    0    0  0.10918586882E-01  0.36781648654E-01  0.10268031079E-03  0.38371563448E-01  0.51100000000E-03 0. -1.
         11    1    4    4    0    0  0.42945358355E-03  0.91408938648E-01 -0.18293643558E-01  0.93223907935E-01  0.51100000000E-03 0.  1.
</event>
<event>
 8    1  0.1063984E+005  0.1043930E+01  0.7957747E-01            NaN
         13   -1    0    0    0    0  0.00000000000E+00  0.00000000000E+00  0.74505805969E-08  0.10566000000E+00  0.10566000000E+00 0.  1.
     999900   -1    0    0    0    0 -0.00000000000E+00 -0.00000000000E+00 -0.74505805969E-08  0.93827000000E+00  0.93827000000E+00 0.  1.
     999902    2    1    2    0    0 -0.69124870890E-02  0.32259169764E-02  0.22505051367E-01  0.10201672907E+01  0.10198905013E+01 0.  0.
     999903    2    3    3    0    0  0.11893760627E+00 -0.46068007851E-01 -0.10394169548E-01  0.12924052837E+00  0.18073734549E-01 0.  0.
         14    1    1    2    0    0  0.69124870890E-02 -0.32259169764E-02 -0.22505051367E-01  0.23762709339E-01  0.00000000000E+00 0. -1.
     999901    1    3    3    0    0 -0.12585009336E+00  0.49293924828E-01  0.32899220915E-01  0.89092676229E+00  0.88000000000E+00 0.  1.
        -11    1    4    4    0    0  0.67732379470E-01 -0.23837455611E-01 -0.14532841072E-01  0.73262296642E-01  0.51100000000E-03 0.  1.
         11    1    4    4    0    0  0.51205226802E-01 -0.22230552240E-01  0.41386715247E-02  0.55978231730E-01  0.51100000000E-03 0. -1.
</event>
<event>
 8    1  0.1063984E+005  0.1043930E+01  0.7957747E-01            NaN
         13   -1    0    0    0    0  0.00000000000E+00  0.00000000000E+00  0.74505805969E-08  0.10566000000E+00  0.10566000000E+00 0. -1.
     999900   -1    0    0    0    0 -0.00000000000E+00 -0.00000000000E+00 -0.74505805969E-08  0.93827000000E+00  0.93827000000E+00 0. -1.
     999902    2    1    2    0    0 -0.70293352925E-02 -0.68936110677E-02  0.21918189119E-01  0.10199020903E+01  0.10196190139E+01 0.  0.
     999903    2    3    3    0    0  0.54575432068E-01 -0.11681704950E+00  0.10211974626E-01  0.13084902942E+00  0.19811189657E-01 0.  0.
         14    1    1    2    0    0  0.70293352925E-02  0.68936110677E-02 -0.21918189119E-01  0.24027909656E-01  0.00000000000E+00 0. -1.
     999901    1    3    3    0    0 -0.61604767361E-01  0.10992343843E+00  0.11706214492E-01  0.88905306092E+00  0.88000000000E+00 0.  1.
        -11    1    4    4    0    0  0.21894943578E-01 -0.28971482618E-01  0.74798866904E-02  0.37080253307E-01  0.51100000000E-03 0.  1.
         11    1    4    4    0    0  0.32680488491E-01 -0.87845566880E-01  0.27320879359E-02  0.93768776115E-01  0.51100000000E-03 0. -1.
</event>
<event>
 8    1  0.1063984E+005  0.1043930E+01  0.7957747E-01            NaN
         13   -1    0    0    0    0  0.00000000000E+00  0.00000000000E+00  0.74505805969E-08  0.10566000000E+00  0.10566000000E+00 0. -1.
     999900   -1    0    0    0    0 -0.00000000000E+00 -0.00000000000E+00 -0.74505805969E-08  0.93827000000E+00  0.93827000000E+00 0. -1.
     999902    2    1    2    0    0 -0.16615556776E-01  0.17922389132E-01  0.82943390527E-02  0.10181213809E+01  0.10177942137E+01 0.  0.
     999903    2    3    3    0    0  0.10061830213E+00  0.20506029599E-01  0.74716337644E-01  0.12786168016E+00  0.14884158370E-01 0.  0.
         14    1    1    2    0    0  0.16615556776E-01 -0.17922389132E-01 -0.82943390527E-02  0.25808619093E-01  0.00000000000E+00 0.  1.
     999901    1    3    3    0    0 -0.11723385890E+00 -0.25836404673E-02 -0.66421998591E-01  0.89025970074E+00  0.88000000000E+00 0. -1.
        -11    1    4    4    0    0  0.49787862106E-01  0.13923394665E-01  0.29584903217E-01  0.59566935052E-01  0.51100000000E-03 0.  1.
         11    1    4    4    0    0  0.50830440021E-01  0.65826349336E-02  0.45131434427E-01  0.68294745112E-01  0.51100000000E-03 0. -1.
</event>
<event>
 8    1  0.1063984E+005  0.1043930E+01  0.7957747E-01            NaN
         13   -1    0    0    0    0  0.00000000000E+00  0.00000000000E+00  0.74505805969E-08  0.10566000000E+00  0.10566000000E+00 0.  1.
     999900   -1    0    0    0    0 -0.00000000000E+00 -0.00000000000E+00 -0.74505805969E-08  0.93827000000E+00  0.93827000000E+00 0. -1.
     999902    2    1    2    0    0  0.14577586796E-01 -0.17920224867E-01 -0.38766125267E-02  0.10205063235E+01  0.10202374663E+01 0.  0.
     999903    2    3    3    0    0 -0.64320365278E-01 -0.36752673438E-01  0.10520081624E+00  0.13006967026E+00  0.19053582093E-01 0.  0.
         14    1    1    2    0    0 -0.14577586796E-01  0.17920224867E-01  0.38766125267E-02  0.23423676500E-01  0.00000000000E+00 0. -1.
     999901    1    3    3    0    0  0.78897952074E-01  0.18832448571E-01 -0.10907742877E+00  0.89043665324E+00  0.88000000000E+00 0. -1.
        -11    1    4    4    0    0 -0.28776142495E-01 -0.58439539227E-02  0.41736583138E-01  0.51033534733E-01  0.51100000000E-03 0. -1.
         11    1    4    4    0    0 -0.35544222782E-01 -0.30908719516E-01  0.63464233102E-01  0.79036135530E-01  0.51100000000E-03 0.  1.
</event>
<event>
 8    1  0.1063984E+005  0.1043930E+01  0.7957747E-01            NaN
         13   -1    0    0    0    0  0.00000000000E+00  0.00000000000E+00  0.74505805969E-08  0.10566000000E+00  0.10566000000E+00 0.  1.
     999900   -1    0    0    0    0 -0.00000000000E+00 -0.00000000000E+00 -0.74505805969E-08  0.93827000000E+00  0.93827000000E+00 0. -1.
     999902    2    1    2    0    0 -0.19293567491E-01  0.40479924335E-02 -0.15241659724E-01  0.10190114089E+01  0.10187066876E+01 0.  0.
     999903    2    3    3    0    0  0.10666744414E-01  0.11218043922E-01 -0.12858740335E+00  0.13120721458E+00  0.20999735953E-01 0.  0.
         14    1    1    2    0    0  0.19293567491E-01 -0.40479924335E-02  0.15241659724E-01  0.24918591060E-01  0.00000000000E+00 0.  1.
     999901    1    3    3    0    0 -0.29960311905E-01 -0.71700514887E-02  0.11334574363E+00  0.88780419436E+00  0.88000000000E+00 0.  1.
        -11    1    4    4    0    0  0.58360668093E-03 -0.54994353884E-02 -0.46406522513E-01  0.46737681148E-01  0.51100000000E-03 0. -1.
         11    1    4    4    0    0  0.10083137733E-01  0.16717479311E-01 -0.82180880841E-01  0.84469533430E-01  0.51100000000E-03 0.  1.
</event>
<event>
 8    1  0.1063984E+005  0.1043930E+01  0.7957747E-01            NaN
         13   -1    0    0    0    0  0.00000000000E+00  0.00000000000E+00  0.74505805969E-08  0.10566000000E+00  0.10566000000E+00 0.  1.
     999900   -1    0    0    0    0 -0.00000000000E+00 -0.00000000000E+00 -0.74505805969E-08  0.93827000000E+00  0.93827000000E+00 0.  1.
     999902    2    1    2    0    0  0.24430693163E-01  0.13284178753E-02  0.60857646748E-04  0.10194631415E+01  0.10191695000E+01 0.  0.
     999903    2    3    3    0    0  0.34493111810E-01  0.11606868740E+00 -0.44879798736E-01  0.13082021863E+00  0.20928886998E-01 0.  0.
         14    1    1    2    0    0 -0.24430693163E-01 -0.13284178753E-02 -0.60857646748E-04  0.24466858526E-01  0.00000000000E+00 0.  1.
     999901    1    3    3    0    0 -0.10062418647E-01 -0.11474026953E+00  0.44940656383E-01  0.88864292284E+00  0.88000000000E+00 0.  1.
        -11    1    4    4    0    0  0.15410569975E-01  0.64246723206E-01 -0.13967671678E-01  0.67531356293E-01  0.51100000000E-03 0.  1.
         11    1    4    4    0    0  0.19082541835E-01  0.51821964195E-01 -0.30912127058E-01  0.63288862339E-01  0.51100000000E-03 0. -1.
</event>
<event>
 8    1  0.1063984E+005  0.1043930E+01  0.7957747E-01            NaN
         13   -1    0    0    0    0  0.00000000000E+00  0.00000000000E+00  0.74505805969E-08  0.10566000000E+00  0.10566000000E+00 0. -1.
     999900   -1    0    0    0    0 -0.00000000000E+00 -0.00000000000E+00 -0.74505805969E-08  0.93827000000E+00  0.93827000000E+00 0.  1.
     999902    2    1    2    0    0  0.47275874445E-02  0.13971188855E-01  0.26661210030E-01  0.10134609284E+01  0.10130028081E+01 0.  0.
     999903    2    3    3    0    0  0.23593573168E-01 -0.26743254679E-01 -0.11403108808E+00  0.12115609596E+00  0.20096073603E-01 0.  0.
         14    1    1    2    0    0 -0.47275874445E-02 -0.13971188855E-01 -0.26661210030E-01  0.30469071554E-01  0.00000000000E+00 0.  1.
     999901    1    3    3    0    0 -0.18865985724E-01  0.40714443534E-01  0.14069229811E+00  0.89230483249E+00  0.88000000000E+00 0. -1.
        -11    1    4    4    0    0  0.19440338284E-01 -0.12825123180E-01 -0.45681032228E-01  0.51277952022E-01  0.51100000000E-03 0.  1.
         11    1    4    4    0    0  0.41532348843E-02 -0.13918131499E-01 -0.68350055851E-01  0.69878143939E-01  0.51100000000E-03 0. -1.
</event>
<event>
 8    1  0.1063984E+005  0.1043930E+01  0.7957747E-01            NaN
         13   -1    0    0    0    0  0.00000000000E+00  0.00000000000E+00  0.74505805969E-08  0.10566000000E+00  0.10566000000E+00 0. -1.
     999900   -1    0    0    0    0 -0.00000000000E+00 -0.00000000000E+00 -0.74505805969E-08  0.93827000000E+00  0.93827000000E+00 0. -1.
     999902    2    1    2    0    0 -0.18327859390E-01  0.82275326172E-02  0.13455772006E-01  0.10197502456E+01  0.10194635368E+01 0.  0.
     999903    2    3    3    0    0  0.58250498115E-01  0.10412987801E+00 -0.46014785767E-01  0.12924575266E+00  0.18733714165E-01 0.  0.
         14    1    1    2    0    0  0.18327859390E-01 -0.82275326172E-02 -0.13455772006E-01  0.24179754405E-01  0.00000000000E+00 0.  1.
     999901    1    3    3    0    0 -0.76578357505E-01 -0.95902345397E-01  0.59470557773E-01  0.89050449293E+00  0.88000000000E+00 0.  1.
        -11    1    4    4    0    0  0.52059656220E-01  0.90018522000E-01 -0.33090949755E-01  0.10912751342E+00  0.51100000000E-03 0.  1.
         11    1    4    4    0    0  0.61908418944E-02  0.14111356014E-01 -0.12923836012E-01  0.20118239241E-01  0.51100000000E-03 0. -1.
</event>
<event>
 8    1  0.1063984E+005  0.1043930E+01  0.7957747E-01            NaN
         13   -1    0    0    0    0  0.00000000000E+00  0.00000000000E+00  0.74505805969E-08  0.10566000000E+00  0.10566000000E+00 0. -1.
     999900   -1    0    0    0    0 -0.00000000000E+00 -0.00000000000E+00 -0.74505805969E-08  0.93827000000E+00  0.93827000000E+00 0.  1.
     999902    2    1    2    0    0  0.51219510715E-02 -0.23292342538E-02  0.22893268542E-01  0.10203554065E+01  0.10200830329E+01 0.  0.
     999903    2    3    3    0    0  0.87376658389E-01 -0.93900785746E-01 -0.17807720322E-01  0.13085680816E+00  0.18824222279E-01 0.  0.
         14    1    1    2    0    0 -0.51219510715E-02  0.23292342538E-02 -0.22893268542E-01  0.23574593518E-01  0.00000000000E+00 0.  1.
     999901    1    3    3    0    0 -0.82254707318E-01  0.91571551492E-01  0.40700988865E-01  0.88949859832E+00  0.88000000000E+00 0. -1.
        -11    1    4    4    0    0  0.10859145336E-01 -0.18011785368E-01  0.25135133389E-02  0.21187834242E-01  0.51100000000E-03 0. -1.
         11    1    4    4    0    0  0.76517513053E-01 -0.75889000378E-01 -0.20321233661E-01  0.10966897392E+00  0.51100000000E-03 0.  1.
</event>
<event>
 7    1  0.1304065E+005  0.1043930E+01  0.7957747E-01            NaN
         13   -1    0    0    0    0  0.00000000000E+00  0.00000000000E+00  0.74505805969E-08  0.10566000000E+00  0.10566000000E+00 0. -1.
     999900   -1    0    0    0    0 -0.00000000000E+00 -0.00000000000E+00 -0.74505805969E-08  0.93827000000E+00  0.93827000000E+00 0.  1.
     999903    2    1    2    0    0  0.88627071610E-01 -0.64539808389E-01  0.17256280057E-01  0.11308348601E+00  0.21678351365E-01 0.  0.
         14    1    1    2    0    0 -0.42499302691E-01 -0.33836394991E-02 -0.19832048724E-01  0.47020739064E-01  0.00000000000E+00 0. -1.
     999901    1    1    2    0    0 -0.46127768919E-01  0.67923447888E-01  0.25757686677E-02  0.88382577493E+00  0.88000000000E+00 0. -1.
        -11    1    3    3    0    0  0.62031327540E-01 -0.55955425784E-01  0.95257981604E-02  0.84082680872E-01  0.51100000000E-03 0.  1.
         11    1    3    3    0    0  0.26595744070E-01 -0.85843826047E-02  0.77304818964E-02  0.29000805138E-01  0.51100000000E-03 0. -1.
</event>
<event>
 8    1  0.1063984E+005  0.1043930E+01  0.7957747E-01            NaN
         13   -1    0    0    0    0  0.00000000000E+00  0.00000000000E+00  0.74505805969E-08  0.10566000000E+00  0.10566000000E+00 0. -1.
     999900   -1    0    0    0    0 -0.00000000000E+00 -0.00000000000E+00 -0.74505805969E-08  0.93827000000E+00  0.93827000000E+00 0. -1.
     999902    2    1    2    0    0 -0.18503002249E-01 -0.14190077043E-03 -0.14053160322E-01  0.10206948425E+01  0.10204303450E+01 0.  0.
     999903    2    3    3    0    0 -0.54071291202E-01  0.99978787440E-01 -0.65383633124E-01  0.13281868403E+00  0.21126307666E-01 0.  0.
         14    1    1    2    0    0  0.18503002249E-01  0.14190077043E-03  0.14053160322E-01  0.23235157479E-01  0.00000000000E+00 0. -1.
     999901    1    3    3    0    0  0.35568288953E-01 -0.10012068821E+00  0.51330472801E-01  0.88787615850E+00  0.88000000000E+00 0.  1.
        -11    1    4    4    0    0 -0.25564671971E-01  0.60601410118E-01 -0.27977083992E-01  0.71477700795E-01  0.51100000000E-03 0. -1.
         11    1    4    4    0    0 -0.28506619231E-01  0.39377377322E-01 -0.37406549131E-01  0.61340983230E-01  0.51100000000E-03 0.  1.
</event>
<event>
 8    1  0.1100004E+005  0.1043930E+01  0.7957747E-01            NaN
         13   -1    0    0    0    0  0.00000000000E+00  0.00000000000E+00  0.74505805969E-08  0.10566000000E+00  0.10566000000E+00 0. -1.
     999900   -1    0    0    0    0 -0.00000000000E+00 -0.00000000000E+00 -0.74505805969E-08  0.93827000000E+00  0.93827000000E+00 0.  1.
     999902    2    1    2    0    0 -0.20948130042E-01 -0.10219377857E-01  0.31952763423E-02  0.10204040648E+01  0.10201328275E+01 0.  0.
     999903    2    3    3    0    0 -0.74087857175E-01  0.95339797526E-01 -0.47070518819E-01  0.13108228936E+00  0.19703940460E-01 0.  0.
         14    1    1    2    0    0  0.20948130042E-01  0.10219377857E-01 -0.31952763423E-02  0.23525935198E-01  0.00000000000E+00 0.  1.
     999901    1    3    3    0    0  0.53139727134E-01 -0.10555917538E+00  0.50265795161E-01  0.88932177544E+00  0.88000000000E+00 0. -1.
        -11    1    4    4    0    0 -0.29733835212E-01  0.52147546895E-01 -0.17904494994E-01  0.62644230904E-01  0.51100000000E-03 0.  1.
         11    1    4    4    0    0 -0.44354021963E-01  0.43192250631E-01 -0.29166023824E-01  0.68438058459E-01  0.51100000000E-03 0. -1.
</event>
<event>
 8    1  0.1063984E+005  0.1043930E+01  0.7957747E-01            NaN
         13   -1    0    0    0    0  0.00000000000E+00  0.00000000000E+00  0.74505805969E-08  0.10566000000E+00  0.10566000000E+00 0. -1.
     999900   -1    0    0    0    0 -0.00000000000E+00 -0.00000000000E+00 -0.74505805969E-08  0.93827000000E+00  0.93827000000E+00 0. -1.
     999902    2    1    2    0    0 -0.89506119501E-02 -0.93486426079E-02  0.17913042878E-01  0.10218305050E+01  0.10215915002E+01 0.  0.
     999903    2    3    3    0    0 -0.31568704557E-01  0.12083566424E+00  0.36752616545E-01  0.13176620319E+00  0.20340516749E-01 0.  0.
         14    1    1    2    0    0  0.89506119501E-02  0.93486426079E-02 -0.17913042878E-01  0.22099494973E-01  0.00000000000E+00 0.  1.
     999901    1    3    3    0    0  0.22618092607E-01 -0.13018430685E+00 -0.18839573667E-01  0.89006430183E+00  0.88000000000E+00 0.  1.
        -11    1    4    4    0    0 -0.16983977955E-01  0.34048126887E-01  0.16407915089E-01  0.41439247704E-01  0.51100000000E-03 0. -1.
         11    1    4    4    0    0 -0.14584726602E-01  0.86787537353E-01  0.20344701456E-01  0.90326955490E-01  0.51100000000E-03 0.  1.
</event>
<event>
 8    1  0.1063984E+005  0.1043930E+01  0.7957747E-01            NaN
         13   -1    0    0    0    0  0.00000000000E+00  0.00000000000E+00  0.74505805969E-08  0.10566000000E+00  0.10566000000E+00 0. -1.
     999900   -1    0    0    0    0 -0.00000000000E+00 -0.00000000000E+00 -0.74505805969E-08  0.93827000000E+00  0.93827000000E+00 0.  1.
     999902    2    1    2    0    0 -0.20832209712E-01 -0.75587931102E-02 -0.78611889954E-02  0.10204158637E+01  0.10201449016E+01 0.  0.
     999903    2    3    3    0    0  0.21948223404E-01 -0.10063577154E+00  0.77708743708E-01  0.13035086450E+00  0.18531486795E-01 0.  0.
         14    1    1    2    0    0  0.20832209712E-01  0.75587931102E-02  0.78611889954E-02  0.23514136327E-01  0.00000000000E+00 0. -1.
     999901    1    3    3    0    0 -0.42780433116E-01  0.93076978431E-01 -0.85569932703E-01  0.89006499917E+00  0.88000000000E+00 0.  1.
        -11    1    4    4    0    0  0.21915061196E-01 -0.57833017050E-01  0.45615216764E-01  0.76850093622E-01  0.51100000000E-03 0.  1.
         11    1    4    4    0    0  0.33162208495E-04 -0.42802754492E-01  0.32093526944E-01  0.53500770878E-01  0.51100000000E-03 0. -1.
</event>
<event>
 8    1  0.1063984E+005  0.1043930E+01  0.7957747E-01            NaN
         13   -1    0    0    0    0  0.00000000000E+00  0.00000000000E+00  0.74505805969E-08  0.10566000000E+00  0.10566000000E+00 0.  1.
     999900   -1    0    0    0    0 -0.00000000000E+00 -0.00000000000E+00 -0.74505805969E-08  0.93827000000E+00  0.93827000000E+00 0. -1.
     999902    2    1    2    0    0  0.42852189035E-02  0.83453923502E-02 -0.22030236484E-01  0.10199854809E+01  0.10197043892E+01 0.  0.
     999903    2    3    3    0    0  0.43566974135E-01 -0.12620016445E-01  0.11783505780E+00  0.12782803674E+00  0.19938908701E-01 0.  0.
         14    1    1    2    0    0 -0.42852189035E-02 -0.83453923502E-02  0.22030236484E-01  0.23944519082E-01  0.00000000000E+00 0.  1.
     999901    1    3    3    0    0 -0.39281755231E-01  0.20965408796E-01 -0.13986529428E+00  0.89215744418E+00  0.88000000000E+00 0. -1.
        -11    1    4    4    0    0  0.19925953821E-01 -0.20558840893E-02  0.76236634529E-01  0.78826111540E-01  0.51100000000E-03 0.  1.
         11    1    4    4    0    0  0.23641020314E-01 -0.10564132356E-01  0.41598423267E-01  0.49001925199E-01  0.51100000000E-03 0. -1.
</event>
<event>
 8    1  0.1063984E+005  0.1043930E+01  0.7957747E-01            NaN
         13   -1    0    0    0    0  0.00000000000E+00  0.00000000000E+00  0.74505805969E-08  0.10566000000E+00  0.10566000000E+00 0. -1.
     999900   -1    0    0    0    0 -0.00000000000E+00 -0.00000000000E+00 -0.74505805969E-08  0.93827000000E+00  0.93827000000E+00 0.  1.
     999902    2    1    2    0    0 -0.12527721395E-01  0.37998718907E-02 -0.24065958696E-01  0.10165337740E+01  0.10161645342E+01 0.  0.
     999903    2    3    3    0    0 -0.73016627921E-01  0.61604968610E-01  0.80631209282E-01  0.12638668843E+00  0.18590400494E-01 0.  0.
         14    1    1    2    0    0  0.12527721395E-01 -0.37998718907E-02  0.24065958696E-01  0.27396225975E-01  0.00000000000E+00 0. -1.
     999901    1    3    3    0    0  0.60488906526E-01 -0.57805096719E-01 -0.10469716798E+00  0.89014708560E+00  0.88000000000E+00 0.  1.
        -11    1    4    4    0    0 -0.40442244385E-01  0.22941960402E-01  0.33961249416E-01  0.57580693473E-01  0.51100000000E-03 0.  1.
         11    1    4    4    0    0 -0.32574383535E-01  0.38663008208E-01  0.46669959866E-01  0.68805994952E-01  0.51100000000E-03 0. -1.
</event>
<event>
 8    1  0.1063984E+005  0.1043930E+01  0.7957747E-01            NaN
         13   -1    0    0    0    0  0.00000000000E+00  0.00000000000E+00  0.74505805969E-08  0.10566000000E+00  0.10566000000E+00 0. -1.
     999900   -1    0    0    0    0 -0.00000000000E+00 -0.00000000000E+00 -0.74505805969E-08  0.93827000000E+00  0.93827000000E+00 0.  1.
     999902    2    1    2    0    0  0.62382686075E-02  0.43115801219E-02  0.22432044741E-01  0.10202508457E+01  0.10199760221E+01 0.  0.
     999903    2    3    3    0    0  0.12134638737E-01  0.59449427036E-01 -0.11125225337E+00  0.12842886742E+00  0.20866870246E-01 0.  0.
         14    1    1    2    0    0 -0.62382686075E-02 -0.43115801219E-02 -0.22432044741E-01  0.23679154327E-01  0.00000000000E+00 0.  1.
     999901    1    3    3    0    0 -0.58963701298E-02 -0.55137846914E-01  0.13368429811E+00  0.89182197826E+00  0.88000000000E+00 0. -1.
        -11    1    4    4    0    0  0.11731915122E-01  0.14828631527E-01 -0.41727330495E-01  0.45814379583E-01  0.51100000000E-03 0. -1.
         11    1    4    4    0    0  0.40272361529E-03  0.44620795509E-01 -0.69524922874E-01  0.82614487832E-01  0.51100000000E-03 0.  1.
</event>
<event>
 8    1  0.1063984E+005  0.1043930E+01  0.7957747E-01            NaN
         13   -1    0    0    0    0  0.00000000000E+00  0.00000000000E+00  0.74505805969E-08  0.10566000000E+00  0.10566000000E+00 0. -1.
     999900   -1    0    0    0    0 -0.00000000000E+00 -0.00000000000E+00 -0.74505805969E-08  0.93827000000E+00  0.93827000000E+00 0.  1.
     999902    2    1    2    0    0  0.76819509491E-03 -0.20738889756E-01  0.13520333506E-01  0.10191612477E+01  0.10188602248E+01 0.  0.
     999903    2    3    3    0    0  0.83761250938E-01  0.86276237440E-01  0.40971287836E-01  0.12837864816E+00  0.18517412623E-01 0.  0.
         14    1    1    2    0    0 -0.76819509491E-03  0.20738889756E-01 -0.13520333506E-01  0.24768752293E-01  0.00000000000E+00 0.  1.
     999901    1    3    3    0    0 -0.82993055843E-01 -0.10701512720E+00 -0.27450954330E-01  0.89078259955E+00  0.88000000000E+00 0. -1.
        -11    1    4    4    0    0  0.68276264028E-01  0.62156250896E-01  0.36859101636E-01  0.99417816559E-01  0.51100000000E-03 0. -1.
         11    1    4    4    0    0  0.15484986911E-01  0.24119986544E-01  0.41121861997E-02  0.28960831598E-01  0.51100000000E-03 0.  1.
</event>
<event>
 8    1  0.1063984E+005  0.1043930E+01  0.7957747E-01            NaN
         13   -1    0    0    0    0  0.00000000000E+00  0.00000000000E+00  0.74505805969E-08  0.10566000000E+00  0.10566000000E+00 0.  1.
     999900   -1    0    0    0    0 -0.00000000000E+00 -0.00000000000E+00 -0.74505805969E-08  0.93827000000E+00  0.93827000000E+00 0.  1.
     999902    2    1    2    0    0 -0.10214767257E-02 -0.17521442058E-01 -0.16082922442E-01  0.10201244389E+01  0.10198466385E+01 0.  0.
     999903    2    3    3    0    0  0.77359259318E-01 -0.99916537646E-01 -0.34930444196E-01  0.13260670911E+00  0.19915669009E-01 0.  0.
         14    1    1    2    0    0  0.10214767257E-02  0.17521442058E-01  0.16082922442E-01  0.23805561131E-01  0.00000000000E+00 0.  1.
     999901    1    3    3    0    0 -0.78380736043E-01  0.82395095588E-01  0.18847521754E-01  0.88751772976E+00  0.88000000000E+00 0.  1.
        -11    1    4    4    0    0  0.37257095173E-01 -0.59397495681E-01 -0.11899913075E-01  0.71119777039E-01  0.51100000000E-03 0.  1.
         11    1    4    4    0    0  0.40102164144E-01 -0.40519041965E-01 -0.23030531121E-01  0.61486932071E-01  0.51100000000E-03 0. -1.
</event>
<event>
 8    1  0.1063984E+005  0.1043930E+01  0.7957747E-01            NaN
         13   -1    0    0    0    0  0.00000000000E+00  0.00000000000E+00  0.74505805969E-08  0.10566000000E+00  0.10566000000E+00 0.  1.
     999900   -1    0    0    0    0 -0.00000000000E+00 -0.00000000000E+00 -0.74505805969E-08  0.93827000000E+00  0.93827000000E+00 0.  1.
     999902    2    1    2    0    0 -0.19335447105E-01  0.15088384252E-03  0.12812685301E-01  0.10207341559E+01  0.10204705629E+01 0.  0.
     999903    2    3    3    0    0 -0.54896611728E-01  0.11739938484E+00  0.17281264119E-01  0.13223442282E+00  0.19774907055E-01 0.  0.
         14    1    1    2    0    0  0.19335447105E-01 -0.15088384252E-03 -0.12812685301E-01  0.23195844139E-01  0.00000000000E+00 0. -1.
     999901    1    3    3    0    0  0.35561164623E-01 -0.11724850100E+00 -0.44685788180E-02  0.88849973304E+00  0.88000000000E+00 0.  1.
        -11    1    4    4    0    0 -0.25610435105E-01  0.76023292226E-01  0.71801956958E-02  0.80543476945E-01  0.51100000000E-03 0. -1.
         11    1    4    4    0    0 -0.29286176623E-01  0.41376092614E-01  0.10101068424E-01  0.51690945876E-01  0.51100000000E-03 0.  1.
</event>
<event>
 8    1  0.1063984E+005  0.1043930E+01  0.7957747E-01            NaN
         13   -1    0    0    0    0  0.00000000000E+00  0.00000000000E+00  0.74505805969E-08  0.10566000000E+00  0.10566000000E+00 0.  1.
     999900   -1    0    0    0    0 -0.00000000000E+00 -0.00000000000E+00 -0.74505805969E-08  0.93827000000E+00  0.93827000000E+00 0.  1.
     999902    2    1    2    0    0 -0.16319167803E-01  0.37367672439E-02  0.12613928576E-01  0.10229683717E+01  0.10227535870E+01 0.  0.
     999903    2    3    3    0    0 -0.17732087494E-01 -0.38891416334E-01 -0.12298797402E+00  0.13156103811E+00  0.18849291871E-01 0.  0.
         14    1    1    2    0    0  0.16319167803E-01 -0.37367672439E-02 -0.12613928576E-01  0.20961628309E-01  0.00000000000E+00 0. -1.
     999901    1    3    3    0    0  0.14129196908E-02  0.42628183578E-01  0.13560190259E+00  0.89140733358E+00  0.88000000000E+00 0. -1.
        -11    1    4    4    0    0 -0.79109818633E-02 -0.16782003604E-02 -0.25186714726E-01  0.26458112370E-01  0.51100000000E-03 0. -1.
         11    1    4    4    0    0 -0.98211056306E-02 -0.37213215974E-01 -0.97801259292E-01  0.10510292574E+00  0.51100000000E-03 0.  1.
</event>
<event>
 8    1  0.1063984E+005  0.1043930E+01  0.7957747E-01            NaN
         13   -1    0    0    0    0  0.00000000000E+00  0.00000000000E+00  0.74505805969E-08  0.10566000000E+00  0.10566000000E+00 0.  1.
     999900   -1    0    0    0    0 -0.00000000000E+00 -0.00000000000E+00 -0.74505805969E-08  0.93827000000E+00  0.93827000000E+00 0. -1.
     999902    2    1    2    0    0 -0.10435142129E-01  0.53302679918E-02  0.19988510450E-01  0.10207600950E+01  0.10204970980E+01 0.  0.
     999903    2    3    3    0    0  0.85145008661E-01  0.86787459923E-01  0.45075914626E-01  0.13149060986E+00  0.21822160783E-01 0.  0.
         14    1    1    2    0    0  0.10435142129E-01 -0.53302679918E-02 -0.19988510450E-01  0.23169905009E-01  0.00000000000E+00 0. -1.
     999901    1    3    3    0    0 -0.95580150790E-01 -0.81457191932E-01 -0.25087404176E-01  0.88926948513E+00  0.88000000000E+00 0. -1.
        -11    1    4    4    0    0  0.25148921066E-01  0.12950895403E-01  0.82319303439E-02  0.29465568393E-01  0.51100000000E-03 0. -1.
         11    1    4    4    0    0  0.59996087595E-01  0.73836564521E-01  0.36843984283E-01  0.10202504146E+00  0.51100000000E-03 0.  1.
</event>
<event>
 8    1  0.1063984E+005  0.1043930E+01  0.7957747E-01            NaN
         13   -1    0    0    0    0  0.00000000000E+00  0.00000000000E+00  0.74505805969E-08  0.10566000000E+00  0.10566000000E+00 0.  1.
     999900   -1    0    0    0    0 -0.00000000000E+00 -0.00000000000E+00 -0.74505805969E-08  0.93827000000E+00  0.93827000000E+00 0. -1.
     999902    2    1    2    0    0 -0.13300571438E-01  0.24419524878E-01 -0.20496580253E-01  0.10093854172E+01  0.10087941278E+01 0.  0.
     999903    2    3    3    0    0 -0.10947818186E+00 -0.21616483396E-01  0.41755687891E-01  0.12076581826E+00  0.19700272393E-01 0.  0.
         14    1    1    2    0    0  0.13300571438E-01 -0.24419524878E-01  0.20496580253E-01  0.34544582758E-01  0.00000000000E+00 0.  1.
     999901    1    3    3    0    0  0.96177610418E-01  0.46036008274E-01 -0.62252268144E-01  0.88861959898E+00  0.88000000000E+00 0. -1.
        -11    1    4    4    0    0 -0.63955846830E-01 -0.21325890345E-01  0.20103606863E-01  0.70353109900E-01  0.51100000000E-03 0. -1.
         11    1    4    4    0    0 -0.45522335025E-01 -0.29059305165E-03  0.21652081028E-01  0.50412708361E-01  0.51100000000E-03 0.  1.
</event>
<event>
 8    1  0.1063984E+005  0.1043930E+01  0.7957747E-01            NaN
         13   -1    0    0    0    0  0.00000000000E+00  0.00000000000E+00  0.74505805969E-08  0.10566000000E+00  0.10566000000E+00 0. -1.
     999900   -1    0    0    0    0 -0.00000000000E+00 -0.00000000000E+00 -0.74505805969E-08  0.93827000000E+00  0.93827000000E+00 0.  1.
     999902    2    1    2    0    0  0.11196406824E-01 -0.11609221940E-01 -0.15847378843E-01  0.10213186538E+01  0.10210683227E+01 0.  0.
     999903    2    3    3    0    0  0.64822056598E-01  0.10529904887E+00 -0.40567076268E-01  0.13162526982E+00  0.19741713809E-01 0.  0.
         14    1    1    2    0    0 -0.11196406824E-01  0.11609221940E-01  0.15847378843E-01  0.22611346179E-01  0.00000000000E+00 0. -1.
     999901    1    3    3    0    0 -0.53625649773E-01 -0.11690827081E+00  0.24719697425E-01  0.88969338400E+00  0.88000000000E+00 0. -1.
        -11    1    4    4    0    0  0.56272763615E-01  0.94776119496E-01 -0.42058272697E-01  0.11797582877E+00  0.51100000000E-03 0. -1.
         11    1    4    4    0    0  0.85492929832E-02  0.10522929371E-01  0.14911964293E-02  0.13649441045E-01  0.51100000000E-03 0.  1.
</event>
<event>
 8    1  0.1063984E+005  0.1043930E+01  0.7957747E-01            NaN
         13   -1    0    0    0    0  0.00000000000E+00  0.00000000000E+00  0.74505805969E-08  0.10566000000E+00  0.10566000000E+00 0. -1.
     999900   -1    0    0    0    0 -0.00000000000E+00 -0.00000000000E+00 -0.74505805969E-08  0.93827000000E+00  0.93827000000E+00 0.  1.
     999902    2    1    2    0    0  0.20839925828E-01  0.11811922157E-01  0.26537908965E-02  0.10198288253E+01  0.10195439992E+01 0.  0.
     999903    2    3    3    0    0 -0.49762581306E-01 -0.11464998890E+00 -0.16809608084E-01  0.12777717165E+00  0.20579315299E-01 0.  0.
         14    1    1    2    0    0 -0.20839925828E-01 -0.11811922157E-01 -0.26537908965E-02  0.24101174654E-01  0.00000000000E+00 0.  1.
     999901    1    3    3    0    0  0.70602507135E-01  0.12646191106E+00  0.19463398980E-01  0.89205165370E+00  0.88000000000E+00 0. -1.
        -11    1    4    4    0    0 -0.26460622218E-01 -0.36448548256E-01 -0.48344692352E-02  0.45302256146E-01  0.51100000000E-03 0. -1.
         11    1    4    4    0    0 -0.23301959089E-01 -0.78201440643E-01 -0.11975138849E-01  0.82474915504E-01  0.51100000000E-03 0.  1.
</event>
<event>
 8    1  0.1063984E+005  0.1043930E+01  0.7957747E-01            NaN
         13   -1    0    0    0    0  0.00000000000E+00  0.00000000000E+00  0.74505805969E-08  0.10566000000E+00  0.10566000000E+00 0.  1.
     999900   -1    0    0    0    0 -0.00000000000E+00 -0.00000000000E+00 -0.74505805969E-08  0.93827000000E+00  0.93827000000E+00 0. -1.
     999902    2    1    2    0    0  0.12765946345E-01  0.49203932827E-03 -0.19760055206E-01  0.10203997796E+01  0.10201284424E+01 0.  0.
     999903    2    3    3    0    0 -0.89103013320E-01  0.91263202154E-01  0.11403860039E-01  0.12933980491E+00  0.18177405196E-01 0.  0.
         14    1    1    2    0    0 -0.12765946345E-01 -0.49203932827E-03  0.19760055206E-01  0.23530220367E-01  0.00000000000E+00 0.  1.
     999901    1    3    3    0    0  0.10186895967E+00 -0.90771162826E-01 -0.31163915244E-01  0.89105997473E+00  0.88000000000E+00 0. -1.
        -11    1    4    4    0    0 -0.11996546384E-01  0.12216813655E-01  0.78847276323E-02  0.18857298636E-01  0.51100000000E-03 0.  1.
         11    1    4    4    0    0 -0.77106466937E-01  0.79046388499E-01  0.35191324063E-02  0.11048250627E+00  0.51100000000E-03 0. -1.
</event>
<event>
 8    1  0.1063984E+005  0.1043930E+01  0.7957747E-01            NaN
         13   -1    0    0    0    0  0.00000000000E+00  0.00000000000E+00  0.74505805969E-08  0.10566000000E+00  0.10566000000E+00 0. -1.
     999900   -1    0    0    0    0 -0.00000000000E+00 -0.00000000000E+00 -0.74505805969E-08  0.93827000000E+00  0.93827000000E+00 0.  1.
     999902    2    1    2    0    0  0.19023417409E-02  0.22737559701E-01  0.49646006358E-02  0.10205791374E+01  0.10203119684E+01 0.  0.
     999903    2    3    3    0    0  0.59852509123E-01  0.83274004254E-01 -0.81238816929E-01  0.13240465441E+00  0.20355945073E-01 0.  0.
         14    1    1    2    0    0 -0.19023417409E-02 -0.22737559701E-01 -0.49646006358E-02  0.23350862612E-01  0.00000000000E+00 0.  1.
     999901    1    3    3    0    0 -0.57950167382E-01 -0.60536444553E-01  0.86203417565E-01  0.88817448298E+00  0.88000000000E+00 0.  1.
        -11    1    4    4    0    0  0.38875484345E-01  0.43407439067E-01 -0.35660912266E-01  0.68318890755E-01  0.51100000000E-03 0. -1.
         11    1    4    4    0    0  0.20977024778E-01  0.39866565187E-01 -0.45577904663E-01  0.64085763652E-01  0.51100000000E-03 0.  1.
</event>
<event>
 8    1  0.1063984E+005  0.1043930E+01  0.7957747E-01            NaN
         13   -1    0    0    0    0  0.00000000000E+00  0.00000000000E+00  0.74505805969E-08  0.10566000000E+00  0.10566000000E+00 0.  1.
     999900   -1    0    0    0    0 -0.00000000000E+00 -0.00000000000E+00 -0.74505805969E-08  0.93827000000E+00  0.93827000000E+00 0. -1.
     999902    2    1    2    0    0  0.33547091503E-02 -0.13968771387E-01 -0.18110954977E-01  0.10208131806E+01  0.10205514012E+01 0.  0.
     999903    2    3    3    0    0  0.11344007241E+00 -0.14122341178E-01  0.60159527983E-01  0.13050700897E+00  0.18569330506E-01 0.  0.
         14    1    1    2    0    0 -0.33547091503E-02  0.13968771387E-01  0.18110954977E-01  0.23116819369E-01  0.00000000000E+00 0.  1.
     999901    1    3    3    0    0 -0.11008536326E+00  0.15356979163E-03 -0.78270482960E-01  0.89030617166E+00  0.88000000000E+00 0. -1.
        -11    1    4    4    0    0  0.36113115600E-01 -0.10696562989E-01  0.26753179454E-01  0.46201377793E-01  0.51100000000E-03 0. -1.
         11    1    4    4    0    0  0.77326956810E-01 -0.34257781893E-02  0.33406348529E-01  0.84305631181E-01  0.51100000000E-03 0.  1.
</event>
<event>
 8    1  0.1063984E+005  0.1043930E+01  0.7957747E-01            NaN
         13   -1    0    0    0    0  0.00000000000E+00  0.00000000000E+00  0.74505805969E-08  0.10566000000E+00  0.10566000000E+00 0.  1.
     999900   -1    0    0    0    0 -0.00000000000E+00 -0.00000000000E+00 -0.74505805969E-08  0.93827000000E+00  0.93827000000E+00 0. -1.
     999902    2    1    2    0    0 -0.84909178221E-03  0.22500662891E-01 -0.68465312144E-02  0.10203954344E+01  0.10201239958E+01 0.  0.
     999903    2    3    3    0    0 -0.71836700605E-01  0.78685014817E-01  0.75711064599E-01  0.13190701095E+00  0.17760943817E-01 0.  0.
         14    1    1    2    0    0  0.84909178221E-03 -0.22500662891E-01  0.68465312144E-02  0.23534565580E-01  0.00000000000E+00 0.  1.
     999901    1    3    3    0    0  0.70987608822E-01 -0.56184351926E-01 -0.82557595813E-01  0.88848842347E+00  0.88000000000E+00 0. -1.
        -11    1    4    4    0    0 -0.23715724425E-01  0.31776522500E-01  0.18991706810E-01  0.43967363075E-01  0.51100000000E-03 0.  1.
         11    1    4    4    0    0 -0.48120976180E-01  0.46908492318E-01  0.56719357789E-01  0.87939647878E-01  0.51100000000E-03 0. -1.
</event>
<event>
 8    1  0.1063984E+005  0.1043930E+01  0.7957747E-01            NaN
         13   -1    0    0    0    0  0.00000000000E+00  0.00000000000E+00  0.74505805969E-08  0.10566000000E+00  0.10566000000E+00 0. -1.
     999900   -1    0    0    0    0 -0.00000000000E+00 -0.00000000000E+00 -0.74505805969E-08  0.93827000000E+00  0.93827000000E+00 0. -1.
     999902    2    1    2    0    0  0.10696115748E-02  0.13289161987E-01  0.19506989673E-01  0.10203022929E+01  0.10200286763E+01 0.  0.
     999903    2    3    3    0    0  0.44276440152E-01  0.40602098758E-01 -0.11240774245E+00  0.12900305973E+00  0.19933772396E-01 0.  0.
         14    1    1    2    0    0 -0.10696115748E-02 -0.13289161987E-01 -0.19506989673E-01  0.23627707069E-01  0.00000000000E+00 0.  1.
     999901    1    3    3    0    0 -0.43206828578E-01 -0.27312936771E-01  0.13191473212E+00  0.89129923320E+00  0.88000000000E+00 0.  1.
        -11    1    4    4    0    0  0.42652461362E-01  0.29187101804E-01 -0.94132854481E-01  0.10738889508E+00  0.51100000000E-03 0. -1.
         11    1    4    4    0    0  0.16239787903E-02  0.11414996954E-01 -0.18274887967E-01  0.21614164656E-01  0.51100000000E-03 0.  1.
</event>
<event>
 8    1  0.1063984E+005  0.1043930E+01  0.7957747E-01            NaN
         13   -1    0    0    0    0  0.00000000000E+00  0.00000000000E+00  0.74505805969E-08  0.10566000000E+00  0.10566000000E+00 0.  1.
     999900   -1    0    0    0    0 -0.00000000000E+00 -0.00000000000E+00 -0.74505805969E-08  0.93827000000E+00  0.93827000000E+00 0.  1.
     999902    2    1    2    0    0  0.23028428843E-01 -0.84314768029E-03 -0.31880045642E-04  0.10208861190E+01  0.10206260077E+01 0.  0.
     999903    2    3    3    0    0 -0.50514318755E-01  0.10268445291E+00  0.58222716157E-01  0.12986417892E+00  0.19468616331E-01 0.  0.
         14    1    1    2    0    0 -0.23028428843E-01  0.84314768029E-03  0.31880045642E-04  0.23043880952E-01  0.00000000000E+00 0. -1.
     999901    1    3    3    0    0  0.73542747598E-01 -0.10352760059E+00 -0.58254596203E-01  0.89102194013E+00  0.88000000000E+00 0.  1.
        -11    1    4    4    0    0 -0.31652584453E-01  0.62230110917E-01  0.24774093798E-01  0.74084341475E-01  0.51100000000E-03 0.  1.
         11    1    4    4    0    0 -0.18861734302E-01  0.40454341992E-01  0.33448622359E-01  0.55779837447E-01  0.51100000000E-03 0. -1.
</event>
<event>
 8    1  0.1063984E+005  0.1043930E+01  0.7957747E-01            NaN
         13   -1    0    0    0    0  0.00000000000E+00  0.00000000000E+00  0.74505805969E-08  0.10566000000E+00  0.10566000000E+00 0.  1.
     999900   -1    0    0    0    0 -0.00000000000E+00 -0.00000000000E+00 -0.74505805969E-08  0.93827000000E+00  0.93827000000E+00 0. -1.
     999902    2    1    2    0    0  0.23096142282E-01  0.43728732523E-02  0.45327767060E-03  0.10204191670E+01  0.10201482819E+01 0.  0.
     999903    2    3    3    0    0  0.51650825796E-01 -0.10641312007E+00 -0.53374270077E-01  0.13138243480E+00  0.20517590971E-01 0.  0.
         14    1    1    2    0    0 -0.23096142282E-01 -0.43728732523E-02 -0.45327767060E-03  0.23510833023E-01  0.00000000000E+00 0.  1.
     999901    1    3    3    0    0 -0.28554683514E-01  0.11078599332E+00  0.53827547747E-01  0.88903673218E+00  0.88000000000E+00 0.  1.
        -11    1    4    4    0    0  0.19831148189E-01 -0.63803101423E-01 -0.27761636601E-01  0.72353851159E-01  0.51100000000E-03 0. -1.
         11    1    4    4    0    0  0.31819677607E-01 -0.42610018645E-01 -0.25612633476E-01  0.59028583639E-01  0.51100000000E-03 0.  1.
</event>
<event>
 8    1  0.1063984E+005  0.1043930E+01  0.7957747E-01            NaN
         13   -1    0    0    0    0  0.00000000000E+00  0.00000000000E+00  0.74505805969E-08  0.10566000000E+00  0.10566000000E+00 0. -1.
     999900   -1    0    0    0    0 -0.00000000000E+00 -0.00000000000E+00 -0.74505805969E-08  0.93827000000E+00  0.93827000000E+00 0.  1.
     999902    2    1    2    0    0 -0.17026587165E-01 -0.14948882890E-01  0.62294839101E-02  0.10204314843E+01  0.10201608863E+01 0.  0.
     999903    2    3    3    0    0  0.20865248455E-01  0.45605695211E-01  0.11865324712E+00  0.13040802918E+00  0.20308200180E-01 0.  0.
         14    1    1    2    0    0  0.17026587165E-01  0.14948882890E-01 -0.62294839101E-02  0.23498515697E-01  0.00000000000E+00 0.  1.
     999901    1    3    3    0    0 -0.37891835620E-01 -0.60554578102E-01 -0.11242376321E+00  0.89002345512E+00  0.88000000000E+00 0.  1.
        -11    1    4    4    0    0  0.66907796484E-02  0.16093908672E-01  0.20368700244E-01  0.26812786115E-01  0.51100000000E-03 0.  1.
         11    1    4    4    0    0  0.14174468807E-01  0.29511786539E-01  0.98284546873E-01  0.10359524306E+00  0.51100000000E-03 0. -1.
</event>
<event>
 8    1  0.1063984E+005  0.1043930E+01  0.7957747E-01            NaN
         13   -1    0    0    0    0  0.00000000000E+00  0.00000000000E+00  0.74505805969E-08  0.10566000000E+00  0.10566000000E+00 0. -1.
     999900   -1    0    0    0    0 -0.00000000000E+00 -0.00000000000E+00 -0.74505805969E-08  0.93827000000E+00  0.93827000000E+00 0.  1.
     999902    2    1    2    0    0 -0.72775670358E-02 -0.71928567294E-02 -0.27350365705E-01  0.10147282419E+01  0.10143079721E+01 0.  0.
     999903    2    3    3    0    0 -0.10124678091E+00  0.55318409644E-01 -0.50910858417E-01  0.12720755576E+00  0.16697594060E-01 0.  0.
         14    1    1    2    0    0  0.72775670358E-02  0.71928567294E-02  0.27350365705E-01  0.29201758065E-01  0.00000000000E+00 0. -1.
     999901    1    3    3    0    0  0.93969213870E-01 -0.62511266373E-01  0.23560492712E-01  0.88752068618E+00  0.88000000000E+00 0. -1.
        -11    1    4    4    0    0 -0.70215934962E-01  0.45505223719E-01 -0.41026295916E-01  0.93190240829E-01  0.51100000000E-03 0. -1.
         11    1    4    4    0    0 -0.31030845944E-01  0.98131859253E-02 -0.98845625017E-02  0.34017314927E-01  0.51100000000E-03 0.  1.
</event>
<event>
 8    1  0.1063984E+005  0.1043930E+01  0.7957747E-01            NaN
         13   -1    0    0    0    0  0.00000000000E+00  0.00000000000E+00  0.74505805969E-08  0.10566000000E+00  0.10566000000E+00 0. -1.
     999900   -1    0    0    0    0 -0.00000000000E+00 -0.00000000000E+00 -0.74505805969E-08  0.93827000000E+00  0.93827000000E+00 0. -1.
     999902    2    1    2    0    0 -0.25961649571E-02  0.17455827430E-01 -0.16201538404E-01  0.10199730421E+01  0.10196916548E+01 0.  0.
     999903    2    3    3    0    0 -0.12956452560E+00  0.21475093245E-03 -0.14653989068E-01  0.13069208864E+00  0.88696238037E-02 0.  0.
         14    1    1    2    0    0  0.25961649571E-02 -0.17455827430E-01  0.16201538404E-01  0.23956957870E-01  0.00000000000E+00 0. -1.
     999901    1    3    3    0    0  0.12696836064E+00  0.17241076497E-01 -0.15475493365E-02  0.88928095349E+00  0.88000000000E+00 0.  1.
        -11    1    4    4    0    0 -0.10088639355E+00  0.13775770542E-02 -0.14857386606E-01  0.10198512235E+00  0.51100000000E-03 0. -1.
         11    1    4    4    0    0 -0.28678132048E-01 -0.11628261217E-02  0.20339753775E-03  0.28706966296E-01  0.51100000000E-03 0.  1.
</event>
<event>
 8    1  0.1063984E+005  0.1043930E+01  0.7957747E-01            NaN
         13   -1    0    0    0    0  0.00000000000E+00  0.00000000000E+00  0.74505805969E-08  0.10566000000E+00  0.10566000000E+00 0. -1.
     999900   -1    0    0    0    0 -0.00000000000E+00 -0.00000000000E+00 -0.74505805969E-08  0.93827000000E+00  0.93827000000E+00 0.  1.
     999902    2    1    2    0    0 -0.57188910501E-02  0.70971599634E-02  0.22735082921E-01  0.10194359315E+01  0.10191416286E+01 0.  0.
     999903    2    3    3    0    0  0.88595236977E-01  0.32838721192E-01 -0.83322692367E-01  0.12769267565E+00  0.20862663474E-01 0.  0.
         14    1    1    2    0    0  0.57188910501E-02 -0.70971599634E-02 -0.22735082921E-01  0.24494068462E-01  0.00000000000E+00 0.  1.
     999901    1    3    3    0    0 -0.94314128027E-01 -0.25741561229E-01  0.10605777529E+00  0.89174325589E+00  0.88000000000E+00 0. -1.
        -11    1    4    4    0    0  0.45783828551E-01  0.24899082304E-01 -0.54864342846E-01  0.75673512495E-01  0.51100000000E-03 0. -1.
         11    1    4    4    0    0  0.42811408426E-01  0.79396388884E-02 -0.28458349521E-01  0.52019163157E-01  0.51100000000E-03 0.  1.
</event>
<event>
 8    1  0.1063984E+005  0.1043930E+01  0.7957747E-01            NaN
         13   -1    0    0    0    0  0.00000000000E+00  0.00000000000E+00  0.74505805969E-08  0.10566000000E+00  0.10566000000E+00 0. -1.
     999900   -1    0    0    0    0 -0.00000000000E+00 -0.00000000000E+00 -0.74505805969E-08  0.93827000000E+00  0.93827000000E+00 0.  1.
     999902    2    1    2    0    0 -0.76552448265E-02 -0.19730419843E-01  0.95475534556E-02  0.10207125924E+01  0.10204485034E+01 0.  0.
     999903    2    3    3    0    0 -0.49404614414E-01  0.28739221899E-02  0.12113256624E+00  0.13239666814E+00  0.20166898085E-01 0.  0.
         14    1    1    2    0    0  0.76552448265E-02  0.19730419843E-01 -0.95475534556E-02  0.23217407640E-01  0.00000000000E+00 0.  1.
     999901    1    3    3    0    0  0.41749369587E-01 -0.22604342033E-01 -0.11158501278E+00  0.88831592422E+00  0.88000000000E+00 0.  1.
        -11    1    4    4    0    0 -0.10960667408E-01  0.93784182577E-02  0.33952550793E-01  0.36893465348E-01  0.51100000000E-03 0.  1.
         11    1    4    4    0    0 -0.38443947006E-01 -0.65044960678E-02  0.87180015443E-01  0.95503202795E-01  0.51100000000E-03 0. -1.
</event>
<event>
 8    1  0.1063984E+005  0.1043930E+01  0.7957747E-01            NaN
         13   -1    0    0    0    0  0.00000000000E+00  0.00000000000E+00  0.74505805969E-08  0.10566000000E+00  0.10566000000E+00 0.  1.
     999900   -1    0    0    0    0 -0.00000000000E+00 -0.00000000000E+00 -0.74505805969E-08  0.93827000000E+00  0.93827000000E+00 0. -1.
     999902    2    1    2    0    0  0.12719195663E-01  0.47551862570E-02  0.19688600628E-01  0.10200128361E+01  0.10197323938E+01 0.  0.
     999903    2    3    3    0    0  0.95292584678E-01  0.14821420728E-03  0.90999160303E-01  0.13326327467E+00  0.19938769714E-01 0.  0.
         14    1    1    2    0    0 -0.12719195663E-01 -0.47551862570E-02 -0.19688600628E-01  0.23917163907E-01  0.00000000000E+00 0. -1.
     999901    1    3    3    0    0 -0.82573389014E-01  0.46069720497E-02 -0.71310559675E-01  0.88674956142E+00  0.88000000000E+00 0. -1.
        -11    1    4    4    0    0  0.66023158646E-01 -0.90623128376E-02  0.60939092219E-01  0.90305133149E-01  0.51100000000E-03 0.  1.
         11    1    4    4    0    0  0.29269426031E-01  0.92105270449E-02  0.30060068084E-01  0.42958141520E-01  0.51100000000E-03 0. -1.
</event>
<event>
 8    1  0.1063984E+005  0.1043930E+01  0.7957747E-01            NaN
         13   -1    0    0    0    0  0.00000000000E+00  0.00000000000E+00  0.74505805969E-08  0.10566000000E+00  0.10566000000E+00 0. -1.
     999900   -1    0    0    0    0 -0.00000000000E+00 -0.00000000000E+00 -0.74505805969E-08  0.93827000000E+00  0.93827000000E+00 0. -1.
     999902    2    1    2    0    0 -0.16541101373E-01 -0.15590421979E-01 -0.87342605493E-02  0.10195792998E+01  0.10192884734E+01 0.  0.
     999903    2    3    3    0    0  0.56549933615E-01  0.10175419333E+00 -0.48663645255E-01  0.12789190285E+00  0.20889652819E-01 0.  0.
         14    1    1    2    0    0  0.16541101373E-01  0.15590421979E-01  0.87342605493E-02  0.24350700184E-01  0.00000000000E+00 0.  1.
     999901    1    3    3    0    0 -0.73091034987E-01 -0.11734461531E+00  0.39929384706E-01  0.89168739696E+00  0.88000000000E+00 0. -1.
        -11    1    4    4    0    0  0.16559888288E-01  0.37817073561E-01 -0.74622189545E-02  0.41956010124E-01  0.51100000000E-03 0. -1.
         11    1    4    4    0    0  0.39990045326E-01  0.63937119766E-01 -0.41201426301E-01  0.85935892731E-01  0.51100000000E-03 0.  1.
</event>
<event>
 8    1  0.1063984E+005  0.1043930E+01  0.7957747E-01            NaN
         13   -1    0    0    0    0  0.00000000000E+00  0.00000000000E+00  0.74505805969E-08  0.10566000000E+00  0.10566000000E+00 0.  1.
     999900   -1    0    0    0    0 -0.00000000000E+00 -0.00000000000E+00 -0.74505805969E-08  0.93827000000E+00  0.93827000000E+00 0.  1.
     999902    2    1    2    0    0  0.93178013509E-02 -0.64103871116E-02 -0.20280306075E-01  0.10207092055E+01  0.10204450386E+01 0.  0.
     999903    2    3    3    0    0  0.27562449285E-01  0.11942864633E+00  0.37872636185E-01  0.12967043289E+00  0.18899587847E-01 0.  0.
         14    1    1    2    0    0 -0.93178013509E-02  0.64103871116E-02  0.20280306075E-01  0.23220794548E-01  0.00000000000E+00 0.  1.
     999901    1    3    3    0    0 -0.18244647934E-01 -0.12583903344E+00 -0.58152942260E-01  0.89103877256E+00  0.88000000000E+00 0. -1.
        -11    1    4    4    0    0  0.20894636399E-01  0.59681023812E-01  0.26090860922E-01  0.68406173538E-01  0.51100000000E-03 0.  1.
         11    1    4    4    0    0  0.66678128861E-02  0.59747622513E-01  0.11781775263E-01  0.61264259352E-01  0.51100000000E-03 0. -1.
</event>
<event>
 8    1  0.1063984E+005  0.1043930E+01  0.7957747E-01            NaN
         13   -1    0    0    0    0  0.00000000000E+00  0.00000000000E+00  0.74505805969E-08  0.10566000000E+00  0.10566000000E+00 0. -1.
     999900   -1    0    0    0    0 -0.00000000000E+00 -0.00000000000E+00 -0.74505805969E-08  0.93827000000E+00  0.93827000000E+00 0.  1.
     999902    2    1    2    0    0  0.23796221393E-01 -0.18250131908E-02 -0.18083901255E-02  0.10199954831E+01  0.10197146289E+01 0.  0.
     999903    2    3    3    0    0 -0.75901519509E-01 -0.42506650176E-01  0.92098185867E-01  0.12847258368E+00  0.21337125952E-01 0.  0.
         14    1    1    2    0    0 -0.23796221393E-01  0.18250131908E-02  0.18083901255E-02  0.23934516928E-01  0.00000000000E+00 0. -1.
     999901    1    3    3    0    0  0.99697740903E-01  0.40681636986E-01 -0.93906575992E-01  0.89152289939E+00  0.88000000000E+00 0.  1.
        -11    1    4    4    0    0 -0.33054827104E-01 -0.67295344863E-02  0.33632142465E-01  0.47637069149E-01  0.51100000000E-03 0.  1.
         11    1    4    4    0    0 -0.42846692405E-01 -0.35777115690E-01  0.58466043401E-01  0.80835514529E-01  0.51100000000E-03 0. -1.
</event>
<event>
 8    1  0.1063984E+005  0.1043930E+01  0.7957747E-01            NaN
         13   -1    0    0    0    0  0.00000000000E+00  0.00000000000E+00  0.74505805969E-08  0.10566000000E+00  0.10566000000E+00 0. -1.
     999900   -1    0    0    0    0 -0.00000000000E+00 -0.00000000000E+00 -0.74505805969E-08  0.93827000000E+00  0.93827000000E+00 0. -1.
     999902    2    1    2    0    0 -0.26646775722E-01  0.61698667993E-03  0.35280965183E-02  0.10170435946E+01  0.10166881501E+01 0.  0.
     999903    2    3    3    0    0  0.92236890708E-01  0.29832106198E-01 -0.76740077216E-01  0.12495064595E+00  0.18056187458E-01 0.  0.
         14    1    1    2    0    0  0.26646775722E-01 -0.61698667993E-03 -0.35280965183E-02  0.26886405375E-01  0.00000000000E+00 0. -1.
     999901    1    3    3    0    0 -0.11888366643E+00 -0.29215119518E-01  0.80268173735E-01  0.89209294867E+00  0.88000000000E+00 0.  1.
        -11    1    4    4    0    0  0.42670312649E-01  0.13346898176E-01 -0.24115624004E-01  0.50800784586E-01  0.51100000000E-03 0.  1.
         11    1    4    4    0    0  0.49566578060E-01  0.16485208022E-01 -0.52624453212E-01  0.74149861368E-01  0.51100000000E-03 0. -1.
</event>
