<event>
 8    1  0.1091347E+005  0.1043930E+01  0.7957747E-01            NaN
         13   -1    0    0    0    0  0.00000000000E+00  0.00000000000E+00  0.74505805969E-08  0.10566000000E+00  0.10566000000E+00 0. -1.
     999900   -1    0    0    0    0 -0.00000000000E+00 -0.00000000000E+00 -0.74505805969E-08  0.93827000000E+00  0.93827000000E+00 0.  1.
     999902    2    1    2    0    0  0.98982497288E-02  0.17508790706E-01 -0.12359600356E-01  0.10203229498E+01  0.10200498169E+01 0.  0.
     999903    2    3    3    0    0 -0.77105168453E-01  0.10473768966E+00 -0.36421072313E-02  0.13169790495E+00  0.20393199513E-01 0.  0.
         14    1    1    2    0    0 -0.98982497288E-02 -0.17508790706E-01  0.12359600356E-01  0.23607050231E-01  0.00000000000E+00 0. -1.
     999901    1    3    3    0    0  0.87003418182E-01 -0.87228898954E-01 -0.87174931243E-02  0.88862504482E+00  0.88000000000E+00 0.  1.
        -11    1    4    4    0    0 -0.70917786421E-01  0.83702461918E-01 -0.24968576097E-02  0.10973572791E+00  0.51100000000E-03 0.  1.
         11    1    4    4    0    0 -0.61873820322E-02  0.21035227742E-01 -0.11452496216E-02  0.21962177039E-01  0.51100000000E-03 0. -1.
</event>
<event>
 8    1  0.1091347E+005  0.1043930E+01  0.7957747E-01            NaN
         13   -1    0    0    0    0  0.00000000000E+00  0.00000000000E+00  0.74505805969E-08  0.10566000000E+00  0.10566000000E+00 0.  1.
     999900   -1    0    0    0    0 -0.00000000000E+00 -0.00000000000E+00 -0.74505805969E-08  0.93827000000E+00  0.93827000000E+00 0. -1.
     999902    2    1    2    0    0 -0.14351307208E-01 -0.47410769584E-02 -0.18402764938E-01  0.10201161472E+01  0.10198381509E+01 0.  0.
     999903    2    3    3    0    0  0.63472507118E-01  0.92780024669E-01  0.58445528372E-01  0.12799924254E+00  0.18194344360E-01 0.  0.
         14    1    1    2    0    0  0.14351307208E-01  0.47410769584E-02  0.18402764938E-01  0.23813852832E-01  0.00000000000E+00 0.  1.
     999901    1    3    3    0    0 -0.77823814326E-01 -0.97521101627E-01 -0.76848293311E-01  0.89211690463E+00  0.88000000000E+00 0.  1.
        -11    1    4    4    0    0  0.51345809751E-01  0.63001490104E-01  0.36688301487E-01  0.89173272461E-01  0.51100000000E-03 0.  1.
         11    1    4    4    0    0  0.12126697366E-01  0.29778534565E-01  0.21757226886E-01  0.38825970079E-01  0.51100000000E-03 0. -1.
</event>
<event>
 8    1  0.1091347E+005  0.1043930E+01  0.7957747E-01            NaN
         13   -1    0    0    0    0  0.00000000000E+00  0.00000000000E+00  0.74505805969E-08  0.10566000000E+00  0.10566000000E+00 0.  1.
     999900   -1    0    0    0    0 -0.00000000000E+00 -0.00000000000E+00 -0.74505805969E-08  0.93827000000E+00  0.93827000000E+00 0.  1.
     999902    2    1    2    0    0 -0.21150942078E-01  0.52678736801E-02  0.81754010260E-02  0.10206501799E+01  0.10203846528E+01 0.  0.
     999903    2    3    3    0    0 -0.11975926615E+00  0.43895986433E-01  0.35458714051E-01  0.13388069919E+00  0.19939452387E-01 0.  0.
         14    1    1    2    0    0  0.21150942078E-01 -0.52678736801E-02 -0.81754010260E-02  0.23279820141E-01  0.00000000000E+00 0. -1.
     999901    1    3    3    0    0  0.98608324069E-01 -0.38628112753E-01 -0.27283313025E-01  0.88676948067E+00  0.88000000000E+00 0. -1.
        -11    1    4    4    0    0 -0.25553502441E-01  0.18184599394E-01  0.66181595147E-02  0.32058108155E-01  0.51100000000E-03 0.  1.
         11    1    4    4    0    0 -0.94205763705E-01  0.25711387039E-01  0.28840554536E-01  0.10182259104E+00  0.51100000000E-03 0. -1.
</event>
<event>
 8    1  0.1091347E+005  0.1043930E+01  0.7957747E-01            NaN
         13   -1    0    0    0    0  0.00000000000E+00  0.00000000000E+00  0.74505805969E-08  0.10566000000E+00  0.10566000000E+00 0. -1.
     999900   -1    0    0    0    0 -0.00000000000E+00 -0.00000000000E+00 -0.74505805969E-08  0.93827000000E+00  0.93827000000E+00 0. -1.
     999902    2    1    2    0    0 -0.10783164035E-01  0.19463677028E-01  0.12921493775E-01  0.10181991556E+01  0.10178739825E+01 0.  0.
     999903    2    3    3    0    0 -0.11594656263E+00  0.63404657480E-03 -0.53406553285E-01  0.12925972845E+00  0.20293103889E-01 0.  0.
         14    1    1    2    0    0  0.10783164035E-01 -0.19463677028E-01 -0.12921493775E-01  0.25730844359E-01  0.00000000000E+00 0. -1.
     999901    1    3    3    0    0  0.10516339859E+00  0.18829630454E-01  0.66328047060E-01  0.88893942719E+00  0.88000000000E+00 0.  1.
        -11    1    4    4    0    0 -0.84818562814E-01 -0.79944303654E-02 -0.35241795379E-01  0.92197314371E-01  0.51100000000E-03 0. -1.
         11    1    4    4    0    0 -0.31127999812E-01  0.86284769402E-02 -0.18164757907E-01  0.37062414079E-01  0.51100000000E-03 0.  1.
</event>
<event>
 8    1  0.1091347E+005  0.1043930E+01  0.7957747E-01            NaN
         13   -1    0    0    0    0  0.00000000000E+00  0.00000000000E+00  0.74505805969E-08  0.10566000000E+00  0.10566000000E+00 0.  1.
     999900   -1    0    0    0    0 -0.00000000000E+00 -0.00000000000E+00 -0.74505805969E-08  0.93827000000E+00  0.93827000000E+00 0. -1.
     999902    2    1    2    0    0 -0.21123777168E-01 -0.28435203470E-02  0.11554324779E-01  0.10196853719E+01  0.10193971040E+01 0.  0.
     999903    2    3    3    0    0 -0.40138812534E-02  0.10863011866E+00 -0.66605972717E-01  0.12905180370E+00  0.20034932340E-01 0.  0.
         14    1    1    2    0    0  0.21123777168E-01  0.28435203470E-02 -0.11554324779E-01  0.24244628083E-01  0.00000000000E+00 0. -1.
     999901    1    3    3    0    0 -0.17109895914E-01 -0.11147363901E+00  0.78160297495E-01  0.89063356822E+00  0.88000000000E+00 0. -1.
        -11    1    4    4    0    0  0.49609258238E-02  0.57445529859E-01 -0.26772764955E-01  0.63573907778E-01  0.51100000000E-03 0. -1.
         11    1    4    4    0    0 -0.89748070771E-02  0.51184588800E-01 -0.39833207761E-01  0.65477895921E-01  0.51100000000E-03 0.  1.
</event>
<event>
 8    1  0.1091347E+005  0.1043930E+01  0.7957747E-01            NaN
         13   -1    0    0    0    0  0.00000000000E+00  0.00000000000E+00  0.74505805969E-08  0.10566000000E+00  0.10566000000E+00 0.  1.
     999900   -1    0    0    0    0 -0.00000000000E+00 -0.00000000000E+00 -0.74505805969E-08  0.93827000000E+00  0.93827000000E+00 0. -1.
     999902    2    1    2    0    0 -0.14048709682E-01  0.11298054706E-01  0.15887341722E-01  0.10199004367E+01  0.10196173208E+01 0.  0.
     999903    2    3    3    0    0  0.65869060672E-01  0.14337118743E-01 -0.10666240994E+00  0.12781606429E+00  0.20390940815E-01 0.  0.
         14    1    1    2    0    0  0.14048709682E-01 -0.11298054706E-01 -0.15887341722E-01  0.24029563268E-01  0.00000000000E+00 0. -1.
     999901    1    3    3    0    0 -0.79917770353E-01 -0.30390640364E-02  0.12254975166E+00  0.89208437245E+00  0.88000000000E+00 0.  1.
        -11    1    4    4    0    0  0.23738682922E-01  0.14768691082E-01 -0.48698526562E-01  0.56155559951E-01  0.51100000000E-03 0.  1.
         11    1    4    4    0    0  0.42130377750E-01 -0.43157233903E-03 -0.57963883380E-01  0.71660504335E-01  0.51100000000E-03 0. -1.
</event>
<event>
 8    1  0.1091347E+005  0.1043930E+01  0.7957747E-01            NaN
         13   -1    0    0    0    0  0.00000000000E+00  0.00000000000E+00  0.74505805969E-08  0.10566000000E+00  0.10566000000E+00 0.  1.
     999900   -1    0    0    0    0 -0.00000000000E+00 -0.00000000000E+00 -0.74505805969E-08  0.93827000000E+00  0.93827000000E+00 0. -1.
     999902    2    1    2    0    0  0.19979430164E-01  0.61959362390E-02 -0.96692872840E-02  0.10208852094E+01  0.10206250773E+01 0.  0.
     999903    2    3    3    0    0 -0.51531772887E-01 -0.16546851288E-01 -0.11769771866E+00  0.13110926655E+00  0.20188236497E-01 0.  0.
         14    1    1    2    0    0 -0.19979430164E-01 -0.61959362390E-02  0.96692872840E-02  0.23044790564E-01  0.00000000000E+00 0.  1.
     999901    1    3    3    0    0  0.71511203051E-01  0.22742787527E-01  0.10802843138E+00  0.88977594288E+00  0.88000000000E+00 0.  1.
        -11    1    4    4    0    0 -0.34937283861E-01 -0.19378637108E-01 -0.71044484834E-01  0.81509050577E-01  0.51100000000E-03 0.  1.
         11    1    4    4    0    0 -0.16594489026E-01  0.28317858200E-02 -0.46653233831E-01  0.49600215976E-01  0.51100000000E-03 0. -1.
</event>
<event>
 8    1  0.1091347E+005  0.1043930E+01  0.7957747E-01            NaN
         13   -1    0    0    0    0  0.00000000000E+00  0.00000000000E+00  0.74505805969E-08  0.10566000000E+00  0.10566000000E+00 0.  1.
     999900   -1    0    0    0    0 -0.00000000000E+00 -0.00000000000E+00 -0.74505805969E-08  0.93827000000E+00  0.93827000000E+00 0. -1.
     999902    2    1    2    0    0 -0.18508825787E-01 -0.65833837651E-02 -0.13235380958E-01  0.10202426008E+01  0.10199675836E+01 0.  0.
     999903    2    3    3    0    0  0.39891485358E-01  0.11678809231E+00 -0.33375573581E-01  0.12949193710E+00  0.20577748921E-01 0.  0.
         14    1    1    2    0    0  0.18508825787E-01  0.65833837651E-02  0.13235380958E-01  0.23687399243E-01  0.00000000000E+00 0.  1.
     999901    1    3    3    0    0 -0.58400311145E-01 -0.12337147608E+00  0.20140192623E-01  0.89075066366E+00  0.88000000000E+00 0. -1.
        -11    1    4    4    0    0  0.39282650901E-01  0.89437824230E-01 -0.24280423723E-01  0.10065809040E+00  0.51100000000E-03 0. -1.
         11    1    4    4    0    0  0.60883445762E-03  0.27350268084E-01 -0.90951498572E-02  0.28833846702E-01  0.51100000000E-03 0.  1.
</event>
<event>
 8    1  0.1091347E+005  0.1043930E+01  0.7957747E-01            NaN
         13   -1    0    0    0    0  0.00000000000E+00  0.00000000000E+00  0.74505805969E-08  0.10566000000E+00  0.10566000000E+00 0.  1.
     999900   -1    0    0    0    0 -0.00000000000E+00 -0.00000000000E+00 -0.74505805969E-08  0.93827000000E+00  0.93827000000E+00 0.  1.
     999902    2    1    2    0    0 -0.15478971074E-01 -0.19997743307E-01  0.55582630816E-03  0.10186353914E+01  0.10183212869E+01 0.  0.
     999903    2    3    3    0    0 -0.26772983185E-01  0.96230364132E-01 -0.76747593488E-01  0.12756168713E+00  0.20117537335E-01 0.  0.
         14    1    1    2    0    0  0.15478971074E-01  0.19997743307E-01 -0.55582630816E-03  0.25294608631E-01  0.00000000000E+00 0. -1.
     999901    1    3    3    0    0  0.11294012110E-01 -0.11622810744E+00  0.77303419797E-01  0.89107370424E+00  0.88000000000E+00 0. -1.
        -11    1    4    4    0    0  0.28415364543E-03  0.34284964817E-01 -0.26246496897E-01  0.43181932288E-01  0.51100000000E-03 0. -1.
         11    1    4    4    0    0 -0.27057136830E-01  0.61945399315E-01 -0.50501096592E-01  0.84379754845E-01  0.51100000000E-03 0.  1.
</event>
<event>
 8    1  0.1091347E+005  0.1043930E+01  0.7957747E-01            NaN
         13   -1    0    0    0    0  0.00000000000E+00  0.00000000000E+00  0.74505805969E-08  0.10566000000E+00  0.10566000000E+00 0.  1.
     999900   -1    0    0    0    0 -0.00000000000E+00 -0.00000000000E+00 -0.74505805969E-08  0.93827000000E+00  0.93827000000E+00 0. -1.
     999902    2    1    2    0    0  0.70305500456E-02 -0.14674197678E-01  0.21505538255E-01  0.10169624475E+01  0.10166048253E+01 0.  0.
     999903    2    3    3    0    0  0.43612373824E-01 -0.32070532605E-02  0.12145175368E+00  0.13047557722E+00  0.19000616738E-01 0.  0.
         14    1    1    2    0    0 -0.70305500456E-02  0.14674197678E-01 -0.21505538255E-01  0.26967552485E-01  0.00000000000E+00 0.  1.
     999901    1    3    3    0    0 -0.36581823779E-01 -0.11467144417E-01 -0.99946215427E-01  0.88648687030E+00  0.88000000000E+00 0. -1.
        -11    1    4    4    0    0  0.24624616163E-01 -0.10487511194E-01  0.58868753719E-01  0.64669551550E-01  0.51100000000E-03 0. -1.
         11    1    4    4    0    0  0.18987757661E-01  0.72804579332E-02  0.62582999963E-01  0.65806025667E-01  0.51100000000E-03 0.  1.
</event>
<event>
 8    1  0.1091347E+005  0.1043930E+01  0.7957747E-01            NaN
         13   -1    0    0    0    0  0.00000000000E+00  0.00000000000E+00  0.74505805969E-08  0.10566000000E+00  0.10566000000E+00 0. -1.
     999900   -1    0    0    0    0 -0.00000000000E+00 -0.00000000000E+00 -0.74505805969E-08  0.93827000000E+00  0.93827000000E+00 0.  1.
     999902    2    1    2    0    0  0.57685067045E-02  0.39890378930E-02  0.23877256510E-01  0.10190440306E+01  0.10187401165E+01 0.  0.
     999903    2    3    3    0    0  0.85948481281E-02 -0.66813063114E-01  0.11161297342E+00  0.13184705040E+00  0.19706142381E-01 0.  0.
         14    1    1    2    0    0 -0.57685067045E-02 -0.39890378930E-02 -0.23877256510E-01  0.24885969367E-01  0.00000000000E+00 0.  1.
     999901    1    3    3    0    0 -0.28263414237E-02  0.70802101007E-01 -0.87735716906E-01  0.88719698023E+00  0.88000000000E+00 0.  1.
        -11    1    4    4    0    0 -0.25995845946E-02 -0.24942909536E-01  0.55815681604E-01  0.61192793776E-01  0.51100000000E-03 0.  1.
         11    1    4    4    0    0  0.11194432723E-01 -0.41870153578E-01  0.55797291812E-01  0.70654256625E-01  0.51100000000E-03 0. -1.
</event>
<event>
 8    1  0.1091347E+005  0.1043930E+01  0.7957747E-01            NaN
         13   -1    0    0    0    0  0.00000000000E+00  0.00000000000E+00  0.74505805969E-08  0.10566000000E+00  0.10566000000E+00 0.  1.
     999900   -1    0    0    0    0 -0.00000000000E+00 -0.00000000000E+00 -0.74505805969E-08  0.93827000000E+00  0.93827000000E+00 0. -1.
     999902    2    1    2    0    0 -0.25210399980E-02  0.64828804673E-02 -0.23069073884E-01  0.10198350721E+01  0.10195503954E+01 0.  0.
     999903    2    3    3    0    0  0.65180869940E-01  0.48466221990E-01 -0.10319966388E+00  0.13261071430E+00  0.18382340522E-01 0.  0.
         14    1    1    2    0    0  0.25210399980E-02 -0.64828804673E-02  0.23069073884E-01  0.24094927925E-01  0.00000000000E+00 0.  1.
     999901    1    3    3    0    0 -0.67701909938E-01 -0.41983341523E-01  0.80130589992E-01  0.88722435777E+00  0.88000000000E+00 0.  1.
        -11    1    4    4    0    0  0.36189972871E-01  0.36822025526E-01 -0.70473983435E-01  0.87363717654E-01  0.51100000000E-03 0.  1.
         11    1    4    4    0    0  0.28990897069E-01  0.11644196464E-01 -0.32725680442E-01  0.45246996647E-01  0.51100000000E-03 0. -1.
</event>
<event>
 8    1  0.1091347E+005  0.1043930E+01  0.7957747E-01            NaN
         13   -1    0    0    0    0  0.00000000000E+00  0.00000000000E+00  0.74505805969E-08  0.10566000000E+00  0.10566000000E+00 0.  1.
     999900   -1    0    0    0    0 -0.00000000000E+00 -0.00000000000E+00 -0.74505805969E-08  0.93827000000E+00  0.93827000000E+00 0. -1.
     999902    2    1    2    0    0  0.21761637686E-01 -0.58868845883E-02  0.72572892237E-02  0.10202468302E+01  0.10199719124E+01 0.  0.
     999903    2    3    3    0    0  0.62645622752E-01 -0.11270197473E+00  0.24366202259E-01  0.13268067570E+00  0.19602059415E-01 0.  0.
         14    1    1    2    0    0 -0.21761637686E-01  0.58868845883E-02 -0.72572892237E-02  0.23683169801E-01  0.00000000000E+00 0.  1.
     999901    1    3    3    0    0 -0.40883985066E-01  0.10681509014E+00 -0.17108913035E-01  0.88756615450E+00  0.88000000000E+00 0. -1.
        -11    1    4    4    0    0  0.16296121526E-01 -0.48194101470E-01  0.12206816582E-01  0.52321147592E-01  0.51100000000E-03 0.  1.
         11    1    4    4    0    0  0.46349501227E-01 -0.64507873255E-01  0.12159385677E-01  0.80359528103E-01  0.51100000000E-03 0. -1.
</event>
<event>
 8    1  0.1091347E+005  0.1043930E+01  0.7957747E-01            NaN
         13   -1    0    0    0    0  0.00000000000E+00  0.00000000000E+00  0.74505805969E-08  0.10566000000E+00  0.10566000000E+00 0.  1.
     999900   -1    0    0    0    0 -0.00000000000E+00 -0.00000000000E+00 -0.74505805969E-08  0.93827000000E+00  0.93827000000E+00 0. -1.
     999902    2    1    2    0    0  0.16619454558E-01  0.24962988214E-02  0.16675649201E-01  0.10202548009E+01  0.10199800702E+01 0.  0.
     999903    2    3    3    0    0  0.10281378778E+00  0.25382654242E-01 -0.74827280479E-01  0.13102702663E+00  0.18815039417E-01 0.  0.
         14    1    1    2    0    0 -0.16619454558E-01 -0.24962988214E-02 -0.16675649201E-01  0.23675199130E-01  0.00000000000E+00 0. -1.
     999901    1    3    3    0    0 -0.86194333225E-01 -0.22886355421E-01  0.91502929680E-01  0.88922777424E+00  0.88000000000E+00 0. -1.
        -11    1    4    4    0    0  0.88938653782E-01  0.25527260506E-01 -0.70976857520E-01  0.11661775418E+00  0.51100000000E-03 0.  1.
         11    1    4    4    0    0  0.13875134000E-01 -0.14460626367E-03 -0.38504229595E-02  0.14409272448E-01  0.51100000000E-03 0. -1.
</event>
<event>
 8    1  0.1091347E+005  0.1043930E+01  0.7957747E-01            NaN
         13   -1    0    0    0    0  0.00000000000E+00  0.00000000000E+00  0.74505805969E-08  0.10566000000E+00  0.10566000000E+00 0. -1.
     999900   -1    0    0    0    0 -0.00000000000E+00 -0.00000000000E+00 -0.74505805969E-08  0.93827000000E+00  0.93827000000E+00 0.  1.
     999902    2    1    2    0    0 -0.13668447087E-01  0.17690875031E-02  0.19989009053E-01  0.10196500371E+01  0.10193609182E+01 0.  0.
     999903    2    3    3    0    0 -0.71143280104E-01 -0.36468243238E-01 -0.98993241404E-01  0.12896365804E+00  0.20992002811E-01 0.  0.
         14    1    1    2    0    0  0.13668447087E-01 -0.17690875031E-02 -0.19989009053E-01  0.24279962918E-01  0.00000000000E+00 0.  1.
     999901    1    3    3    0    0  0.57474833017E-01  0.38237330741E-01  0.11898225046E+00  0.89068637904E+00  0.88000000000E+00 0. -1.
        -11    1    4    4    0    0 -0.21426441140E-01 -0.16343081273E-01 -0.20359955577E-01  0.33778359899E-01  0.51100000000E-03 0. -1.
         11    1    4    4    0    0 -0.49716838964E-01 -0.20125161965E-01 -0.78633285827E-01  0.95185298138E-01  0.51100000000E-03 0.  1.
</event>
<event>
 8    1  0.1091347E+005  0.1043930E+01  0.7957747E-01            NaN
         13   -1    0    0    0    0  0.00000000000E+00  0.00000000000E+00  0.74505805969E-08  0.10566000000E+00  0.10566000000E+00 0.  1.
     999900   -1    0    0    0    0 -0.00000000000E+00 -0.00000000000E+00 -0.74505805969E-08  0.93827000000E+00  0.93827000000E+00 0. -1.
     999902    2    1    2    0    0 -0.71169893578E-02  0.73779873399E-02  0.22523044769E-01  0.10191838128E+01  0.10188833449E+01 0.  0.
     999903    2    3    3    0    0 -0.29392573429E-01 -0.12339578263E+00 -0.84416928411E-02  0.12870259710E+00  0.20066234780E-01 0.  0.
         14    1    1    2    0    0  0.71169893578E-02 -0.73779873399E-02 -0.22523044769E-01  0.24746187189E-01  0.00000000000E+00 0. -1.
     999901    1    3    3    0    0  0.22275584071E-01  0.13077376997E+00  0.30964737610E-01  0.89048121571E+00  0.88000000000E+00 0. -1.
        -11    1    4    4    0    0 -0.13495075749E-01 -0.70616969632E-01  0.46464145472E-02  0.72046677637E-01  0.51100000000E-03 0. -1.
         11    1    4    4    0    0 -0.15897497680E-01 -0.52778813000E-01 -0.13088107388E-01  0.56655919463E-01  0.51100000000E-03 0.  1.
</event>
<event>
 8    1  0.1091347E+005  0.1043930E+01  0.7957747E-01            NaN
         13   -1    0    0    0    0  0.00000000000E+00  0.00000000000E+00  0.74505805969E-08  0.10566000000E+00  0.10566000000E+00 0. -1.
     999900   -1    0    0    0    0 -0.00000000000E+00 -0.00000000000E+00 -0.74505805969E-08  0.93827000000E+00  0.93827000000E+00 0.  1.
     999902    2    1    2    0    0  0.19900900227E-01  0.11933996546E-01  0.37428608840E-02  0.10204252109E+01  0.10201544667E+01 0.  0.
     999903    2    3    3    0    0 -0.10948936494E+00 -0.56782975611E-01  0.25624685343E-01  0.12804486753E+00  0.22948556536E-01 0.  0.
         14    1    1    2    0    0 -0.19900900227E-01 -0.11933996546E-01 -0.37428608840E-02  0.23504789108E-01  0.00000000000E+00 0. -1.
     999901    1    3    3    0    0  0.12939026517E+00  0.68716972157E-01 -0.21881824459E-01  0.89238034336E+00  0.88000000000E+00 0. -1.
        -11    1    4    4    0    0 -0.79143001228E-02 -0.11893048066E-01  0.12610655637E-02  0.14350336097E-01  0.51100000000E-03 0.  1.
         11    1    4    4    0    0 -0.10157506482E+00 -0.44889927545E-01  0.24363619779E-01  0.11369453143E+00  0.51100000000E-03 0. -1.
</event>
<event>
 7    1  0.1340429E+005  0.1043930E+01  0.7957747E-01            NaN
         13   -1    0    0    0    0  0.00000000000E+00  0.00000000000E+00  0.74505805969E-08  0.10566000000E+00  0.10566000000E+00 0.  1.
     999900   -1    0    0    0    0 -0.00000000000E+00 -0.00000000000E+00 -0.74505805969E-08  0.93827000000E+00  0.93827000000E+00 0. -1.
     999902    2    1    2    0    0 -0.17402056728E-01 -0.53026358205E-02 -0.14853282878E-01  0.10204444824E+01  0.10201741871E+01 0.  0.
         14    1    1    2    0    0  0.17402056728E-01  0.53026358205E-02  0.14853282878E-01  0.23485517607E-01  0.00000000000E+00 0.  1.
     999901    1    3    3    0    0  0.96913751879E-01 -0.20638270790E-01  0.40120679603E-01  0.88646933532E+00  0.88000000000E+00 0.  1.
        -11    1    3    3    0    0 -0.51183930326E-01  0.13154643469E-01 -0.43622770164E-02  0.53029519611E-01  0.51100000000E-03 0. -1.
         11    1    3    3    0    0 -0.63131878282E-01  0.21809915004E-02 -0.50611685464E-01  0.80945627466E-01  0.51100000000E-03 0.  1.
</event>
<event>
 8    1  0.1091347E+005  0.1043930E+01  0.7957747E-01            NaN
         13   -1    0    0    0    0  0.00000000000E+00  0.00000000000E+00  0.74505805969E-08  0.10566000000E+00  0.10566000000E+00 0. -1.
     999900   -1    0    0    0    0 -0.00000000000E+00 -0.00000000000E+00 -0.74505805969E-08  0.93827000000E+00  0.93827000000E+00 0.  1.
     999902    2    1    2    0    0 -0.19495847066E-02  0.20919250597E-01 -0.10606247969E-01  0.10203947409E+01  0.10201232861E+01 0.  0.
     999903    2    3    3    0    0 -0.12784585547E+00 -0.17168030138E-01 -0.43019735396E-02  0.13059686730E+00  0.19943188150E-01 0.  0.
         14    1    1    2    0    0  0.19495847066E-02 -0.20919250597E-01  0.10606247969E-01  0.23535259124E-01  0.00000000000E+00 0. -1.
     999901    1    3    3    0    0  0.12589627076E+00  0.38087280735E-01 -0.63042744295E-02  0.88979787358E+00  0.88000000000E+00 0.  1.
        -11    1    4    4    0    0 -0.64564924898E-01 -0.68083627518E-02 -0.11955169600E-01  0.66016441374E-01  0.51100000000E-03 0.  1.
         11    1    4    4    0    0 -0.63280930567E-01 -0.10359667386E-01  0.76531960609E-02  0.64580425926E-01  0.51100000000E-03 0. -1.
</event>
<event>
 8    1  0.1091347E+005  0.1043930E+01  0.7957747E-01            NaN
         13   -1    0    0    0    0  0.00000000000E+00  0.00000000000E+00  0.74505805969E-08  0.10566000000E+00  0.10566000000E+00 0. -1.
     999900   -1    0    0    0    0 -0.00000000000E+00 -0.00000000000E+00 -0.74505805969E-08  0.93827000000E+00  0.93827000000E+00 0.  1.
     999902    2    1    2    0    0  0.84602449128E-02  0.78236425961E-02 -0.22665280095E-01  0.10185036348E+01  0.10181862079E+01 0.  0.
     999903    2    3    3    0    0  0.10365546740E+00  0.76747831470E-01  0.10471460484E-02  0.13037360298E+00  0.19013002954E-01 0.  0.
         14    1    1    2    0    0 -0.84602449128E-02 -0.78236425961E-02  0.22665280095E-01  0.25426365238E-01  0.00000000000E+00 0. -1.
     999901    1    3    3    0    0 -0.95195222492E-01 -0.68924188874E-01 -0.23712426143E-01  0.88813003178E+00  0.88000000000E+00 0. -1.
        -11    1    4    4    0    0  0.45334554832E-01  0.39451067240E-01  0.86910357586E-02  0.60723996836E-01  0.51100000000E-03 0. -1.
         11    1    4    4    0    0  0.58320912572E-01  0.37296764230E-01 -0.76438897102E-02  0.69649606145E-01  0.51100000000E-03 0.  1.
</event>
<event>
 8    1  0.1091347E+005  0.1043930E+01  0.7957747E-01            NaN
         13   -1    0    0    0    0  0.00000000000E+00  0.00000000000E+00  0.74505805969E-08  0.10566000000E+00  0.10566000000E+00 0.  1.
     999900   -1    0    0    0    0 -0.00000000000E+00 -0.00000000000E+00 -0.74505805969E-08  0.93827000000E+00  0.93827000000E+00 0.  1.
     999902    2    1    2    0    0  0.22657461328E-01 -0.48428814565E-02  0.29711065083E-02  0.10205710289E+01  0.10203036722E+01 0.  0.
     999903    2    3    3    0    0  0.38833856193E-01  0.67508761964E-01  0.10423339966E+00  0.13166693510E+00  0.20151398574E-01 0.  0.
         14    1    1    2    0    0 -0.22657461328E-01  0.48428814565E-02 -0.29711065083E-02  0.23358971050E-01  0.00000000000E+00 0. -1.
     999901    1    3    3    0    0 -0.16176394864E-01 -0.72351643421E-01 -0.10126229315E+00  0.88890409385E+00  0.88000000000E+00 0. -1.
        -11    1    4    4    0    0  0.33672556050E-01  0.43079808948E-01  0.62608958564E-01  0.83125530275E-01  0.51100000000E-03 0.  1.
         11    1    4    4    0    0  0.51613001428E-02  0.24428953016E-01  0.41624441093E-01  0.48541404821E-01  0.51100000000E-03 0. -1.
</event>
<event>
 8    1  0.1091347E+005  0.1043930E+01  0.7957747E-01            NaN
         13   -1    0    0    0    0  0.00000000000E+00  0.00000000000E+00  0.74505805969E-08  0.10566000000E+00  0.10566000000E+00 0.  1.
     999900   -1    0    0    0    0 -0.00000000000E+00 -0.00000000000E+00 -0.74505805969E-08  0.93827000000E+00  0.93827000000E+00 0.  1.
     999902    2    1    2    0    0 -0.13973264722E-01  0.12896340328E-01 -0.15393983677E-01  0.10194648727E+01  0.10191712732E+01 0.  0.
     999903    2    3    3    0    0  0.90453659171E-01  0.85200650695E-01  0.28774028426E-01  0.12924933192E+00  0.20890901233E-01 0.  0.
         14    1    1    2    0    0  0.13973264722E-01 -0.12896340328E-01  0.15393983677E-01  0.24465127310E-01  0.00000000000E+00 0.  1.
     999901    1    3    3    0    0 -0.10442692389E+00 -0.72304310367E-01 -0.44168012103E-01  0.89021554077E+00  0.88000000000E+00 0.  1.
        -11    1    4    4    0    0  0.19599175962E-01  0.28900096041E-01  0.13639677170E-01  0.37491934651E-01  0.51100000000E-03 0.  1.
         11    1    4    4    0    0  0.70854483208E-01  0.56300554654E-01  0.15134351256E-01  0.91757397271E-01  0.51100000000E-03 0. -1.
</event>
<event>
 8    1  0.1091347E+005  0.1043930E+01  0.7957747E-01            NaN
         13   -1    0    0    0    0  0.00000000000E+00  0.00000000000E+00  0.74505805969E-08  0.10566000000E+00  0.10566000000E+00 0.  1.
     999900   -1    0    0    0    0 -0.00000000000E+00 -0.00000000000E+00 -0.74505805969E-08  0.93827000000E+00  0.93827000000E+00 0.  1.
     999902    2    1    2    0    0 -0.89231893438E-03 -0.22270231232E-01  0.49637601680E-02  0.10210958513E+01  0.10208405062E+01 0.  0.
     999903    2    3    3    0    0  0.98960601678E-01  0.34045048838E-02 -0.82574148101E-01  0.13076294546E+00  0.21809782942E-01 0.  0.
         14    1    1    2    0    0  0.89231893438E-03  0.22270231232E-01 -0.49637601680E-02  0.22834148708E-01  0.00000000000E+00 0. -1.
     999901    1    3    3    0    0 -0.99852920612E-01 -0.25674736116E-01  0.87537908269E-01  0.89033290584E+00  0.88000000000E+00 0. -1.
        -11    1    4    4    0    0  0.27527818636E-01  0.21777649067E-02 -0.36414624128E-01  0.45703494727E-01  0.51100000000E-03 0. -1.
         11    1    4    4    0    0  0.71432783042E-01  0.12267399771E-02 -0.46159523972E-01  0.85059450730E-01  0.51100000000E-03 0.  1.
</event>
<event>
 8    1  0.1091347E+005  0.1043930E+01  0.7957747E-01            NaN
         13   -1    0    0    0    0  0.00000000000E+00  0.00000000000E+00  0.74505805969E-08  0.10566000000E+00  0.10566000000E+00 0. -1.
     999900   -1    0    0    0    0 -0.00000000000E+00 -0.00000000000E+00 -0.74505805969E-08  0.93827000000E+00  0.93827000000E+00 0. -1.
     999902    2    1    2    0    0 -0.45510838125E-03 -0.14761810758E-01  0.17627164238E-01  0.10209335851E+01  0.10206745564E+01 0.  0.
     999903    2    3    3    0    0 -0.52001744808E-01  0.47207069099E-01  0.11040988567E+00  0.13239217850E+00  0.20116094026E-01 0.  0.
         14    1    1    2    0    0  0.45510838125E-03  0.14761810758E-01 -0.17627164238E-01  0.22996414929E-01  0.00000000000E+00 0.  1.
     999901    1    3    3    0    0  0.51546636427E-01 -0.61968879857E-01 -0.92782721428E-01  0.88854140657E+00  0.88000000000E+00 0. -1.
        -11    1    4    4    0    0 -0.20291032307E-01  0.16895231814E-01  0.60066657622E-01  0.65615846631E-01  0.51100000000E-03 0.  1.
         11    1    4    4    0    0 -0.31710712501E-01  0.30311837285E-01  0.50343228044E-01  0.66776331868E-01  0.51100000000E-03 0. -1.
</event>
<event>
 8    1  0.1091347E+005  0.1043930E+01  0.7957747E-01            NaN
         13   -1    0    0    0    0  0.00000000000E+00  0.00000000000E+00  0.74505805969E-08  0.10566000000E+00  0.10566000000E+00 0. -1.
     999900   -1    0    0    0    0 -0.00000000000E+00 -0.00000000000E+00 -0.74505805969E-08  0.93827000000E+00  0.93827000000E+00 0.  1.
     999902    2    1    2    0    0 -0.18742137558E-01 -0.13554511543E-01 -0.47582662241E-02  0.10203157331E+01  0.10200424313E+01 0.  0.
     999903    2    3    3    0    0  0.48971305750E-01  0.96625602101E-01 -0.67711929691E-01  0.12863869988E+00  0.15110060063E-01 0.  0.
         14    1    1    2    0    0  0.18742137558E-01  0.13554511543E-01  0.47582662241E-02  0.23614266893E-01  0.00000000000E+00 0. -1.
     999901    1    3    3    0    0 -0.67713443308E-01 -0.11018011364E+00  0.62953663467E-01  0.89167703323E+00  0.88000000000E+00 0. -1.
        -11    1    4    4    0    0  0.42135501186E-01  0.87898513581E-01 -0.55631973249E-01  0.11223514030E+00  0.51100000000E-03 0. -1.
         11    1    4    4    0    0  0.68358045642E-02  0.87270885203E-02 -0.12079956442E-01  0.16403559575E-01  0.51100000000E-03 0.  1.
</event>
<event>
 8    1  0.1091347E+005  0.1043930E+01  0.7957747E-01            NaN
         13   -1    0    0    0    0  0.00000000000E+00  0.00000000000E+00  0.74505805969E-08  0.10566000000E+00  0.10566000000E+00 0.  1.
     999900   -1    0    0    0    0 -0.00000000000E+00 -0.00000000000E+00 -0.74505805969E-08  0.93827000000E+00  0.93827000000E+00 0.  1.
     999902    2    1    2    0    0  0.16604007066E-01 -0.14148427754E-01 -0.12848592645E-01  0.10186128637E+01  0.10182981924E+01 0.  0.
     999903    2    3    3    0    0 -0.10647920080E+00 -0.44360415215E-01  0.49458162207E-01  0.12735287246E+00  0.21609666211E-01 0.  0.
         14    1    1    2    0    0 -0.16604007066E-01  0.14148427754E-01  0.12848592645E-01  0.25317136321E-01  0.00000000000E+00 0.  1.
     999901    1    3    3    0    0  0.12308320787E+00  0.30211987461E-01 -0.62306754851E-01  0.89125999122E+00  0.88000000000E+00 0.  1.
        -11    1    4    4    0    0 -0.14562820651E-01 -0.12909855102E-01  0.13813134646E-01  0.23870565846E-01  0.51100000000E-03 0.  1.
         11    1    4    4    0    0 -0.91916380151E-01 -0.31450560113E-01  0.35645027561E-01  0.10348230661E+00  0.51100000000E-03 0. -1.
</event>
<event>
 8    1  0.1091347E+005  0.1043930E+01  0.7957747E-01            NaN
         13   -1    0    0    0    0  0.00000000000E+00  0.00000000000E+00  0.74505805969E-08  0.10566000000E+00  0.10566000000E+00 0. -1.
     999900   -1    0    0    0    0 -0.00000000000E+00 -0.00000000000E+00 -0.74505805969E-08  0.93827000000E+00  0.93827000000E+00 0.  1.
     999902    2    1    2    0    0 -0.51173433394E-02  0.12577585988E-01 -0.20583084329E-01  0.10192714065E+01  0.10189730879E+01 0.  0.
     999903    2    3    3    0    0  0.12372940400E+00  0.24153540095E-01 -0.24022541363E-01  0.12980678278E+00  0.19502806182E-01 0.  0.
         14    1    1    2    0    0  0.51173433394E-02 -0.12577585988E-01  0.20583084329E-01  0.24658593484E-01  0.00000000000E+00 0. -1.
     999901    1    3    3    0    0 -0.12884674734E+00 -0.11575954108E-01  0.34394570339E-02  0.88946462374E+00  0.88000000000E+00 0. -1.
        -11    1    4    4    0    0  0.65016659603E-01  0.33228976167E-02 -0.15528369137E-01  0.66929806839E-01  0.51100000000E-03 0. -1.
         11    1    4    4    0    0  0.58712744396E-01  0.20830642479E-01 -0.84941722260E-02  0.62876975941E-01  0.51100000000E-03 0.  1.
</event>
<event>
 8    1  0.1091347E+005  0.1043930E+01  0.7957747E-01            NaN
         13   -1    0    0    0    0  0.00000000000E+00  0.00000000000E+00  0.74505805969E-08  0.10566000000E+00  0.10566000000E+00 0.  1.
     999900   -1    0    0    0    0 -0.00000000000E+00 -0.00000000000E+00 -0.74505805969E-08  0.93827000000E+00  0.93827000000E+00 0. -1.
     999902    2    1    2    0    0  0.61710680508E-03 -0.85623092859E-03 -0.22006499578E-01  0.10218982053E+01  0.10216606786E+01 0.  0.
     999903    2    3    3    0    0 -0.41563546192E-01 -0.10891937685E+00  0.55187167293E-01  0.13093484291E+00  0.22524445115E-01 0.  0.
         14    1    1    2    0    0 -0.61710680508E-03  0.85623092859E-03  0.22006499578E-01  0.22031794659E-01  0.00000000000E+00 0.  1.
     999901    1    3    3    0    0  0.42180652997E-01  0.10806314592E+00 -0.77193666871E-01  0.89096336243E+00  0.88000000000E+00 0. -1.
        -11    1    4    4    0    0 -0.67069988864E-04 -0.20561430534E-01  0.49814460755E-02  0.21162534111E-01  0.51100000000E-03 0. -1.
         11    1    4    4    0    0 -0.41496476203E-01 -0.88357946317E-01  0.50205721217E-01  0.10977230880E+00  0.51100000000E-03 0.  1.
</event>
<event>
 8    1  0.1091347E+005  0.1043930E+01  0.7957747E-01            NaN
         13   -1    0    0    0    0  0.00000000000E+00  0.00000000000E+00  0.74505805969E-08  0.10566000000E+00  0.10566000000E+00 0.  1.
     999900   -1    0    0    0    0 -0.00000000000E+00 -0.00000000000E+00 -0.74505805969E-08  0.93827000000E+00  0.93827000000E+00 0.  1.
     999902    2    1    2    0    0 -0.53109984087E-02 -0.11515829490E-01 -0.20060189384E-01  0.10201974858E+01  0.10199214076E+01 0.  0.
     999903    2    3    3    0    0 -0.11005318103E+00  0.58277002110E-01  0.30328803062E-01  0.12981497544E+00  0.20595628765E-01 0.  0.
         14    1    1    2    0    0  0.53109984087E-02  0.11515829490E-01  0.20060189384E-01  0.23732514217E-01  0.00000000000E+00 0.  1.
     999901    1    3    3    0    0  0.10474218262E+00 -0.69792831600E-01 -0.50388992445E-01  0.89038251034E+00  0.88000000000E+00 0.  1.
        -11    1    4    4    0    0 -0.58348439714E-01  0.38534885179E-01  0.24788920134E-01  0.74190494507E-01  0.51100000000E-03 0.  1.
         11    1    4    4    0    0 -0.51704741315E-01  0.19742116931E-01  0.55398829274E-02  0.55624480935E-01  0.51100000000E-03 0. -1.
</event>
<event>
 8    1  0.1091347E+005  0.1043930E+01  0.7957747E-01            NaN
         13   -1    0    0    0    0  0.00000000000E+00  0.00000000000E+00  0.74505805969E-08  0.10566000000E+00  0.10566000000E+00 0. -1.
     999900   -1    0    0    0    0 -0.00000000000E+00 -0.00000000000E+00 -0.74505805969E-08  0.93827000000E+00  0.93827000000E+00 0.  1.
     999902    2    1    2    0    0 -0.13956066462E-01  0.19198541303E-01 -0.40991107508E-02  0.10198435206E+01  0.10195590459E+01 0.  0.
     999903    2    3    3    0    0 -0.51378229503E-01  0.12087612914E+00  0.83297603908E-02  0.13311175342E+00  0.19964792162E-01 0.  0.
         14    1    1    2    0    0  0.13956066462E-01 -0.19198541303E-01  0.40991107508E-02  0.24086479365E-01  0.00000000000E+00 0. -1.
     999901    1    3    3    0    0  0.37422163041E-01 -0.10167758784E+00 -0.12428871142E-01  0.88673176722E+00  0.88000000000E+00 0.  1.
        -11    1    4    4    0    0 -0.19634122112E-01  0.31783261848E-01 -0.46276276034E-02  0.37647716306E-01  0.51100000000E-03 0. -1.
         11    1    4    4    0    0 -0.31744107391E-01  0.89092867294E-01  0.12957387994E-01  0.95464037110E-01  0.51100000000E-03 0.  1.
</event>
<event>
 8    1  0.1091347E+005  0.1043930E+01  0.7957747E-01            NaN
         13   -1    0    0    0    0  0.00000000000E+00  0.00000000000E+00  0.74505805969E-08  0.10566000000E+00  0.10566000000E+00 0.  1.
     999900   -1    0    0    0    0 -0.00000000000E+00 -0.00000000000E+00 -0.74505805969E-08  0.93827000000E+00  0.93827000000E+00 0.  1.
     999902    2    1    2    0    0 -0.32974056759E-02 -0.20229527681E-01 -0.30757389011E-01  0.10069688900E+01  0.10062903268E+01 0.  0.
     999903    2    3    3    0    0 -0.28732126548E-01 -0.48138961561E-01 -0.10723101942E+00  0.12284555149E+00  0.21204793780E-01 0.  0.
         14    1    1    2    0    0  0.32974056759E-02  0.20229527681E-01  0.30757389011E-01  0.36961110010E-01  0.00000000000E+00 0.  1.
     999901    1    3    3    0    0  0.25434720872E-01  0.27909433880E-01  0.76473630412E-01  0.88412333850E+00  0.88000000000E+00 0. -1.
        -11    1    4    4    0    0 -0.18135836339E-01 -0.15234884203E-01 -0.58332688010E-01  0.62960097426E-01  0.51100000000E-03 0.  1.
         11    1    4    4    0    0 -0.10596290209E-01 -0.32904077358E-01 -0.48898331412E-01  0.59885454068E-01  0.51100000000E-03 0. -1.
</event>
<event>
 8    1  0.1091347E+005  0.1043930E+01  0.7957747E-01            NaN
         13   -1    0    0    0    0  0.00000000000E+00  0.00000000000E+00  0.74505805969E-08  0.10566000000E+00  0.10566000000E+00 0.  1.
     999900   -1    0    0    0    0 -0.00000000000E+00 -0.00000000000E+00 -0.74505805969E-08  0.93827000000E+00  0.93827000000E+00 0. -1.
     999902    2    1    2    0    0  0.15894574063E-01 -0.18758388851E-01  0.39685212684E-02  0.10190249042E+01  0.10187205169E+01 0.  0.
     999903    2    3    3    0    0 -0.74771849664E-01  0.23468361152E-02  0.10228431400E+00  0.12867001650E+00  0.22305943473E-01 0.  0.
         14    1    1    2    0    0 -0.15894574063E-01  0.18758388851E-01 -0.39685212684E-02  0.24905095824E-01  0.00000000000E+00 0. -1.
     999901    1    3    3    0    0  0.90666423727E-01 -0.21105224966E-01 -0.98315792727E-01  0.89035488768E+00  0.88000000000E+00 0. -1.
        -11    1    4    4    0    0 -0.42755025783E-01  0.12354001039E-01  0.57399311504E-01  0.72633020407E-01  0.51100000000E-03 0. -1.
         11    1    4    4    0    0 -0.32016823880E-01 -0.10007164924E-01  0.44885002492E-01  0.56036996091E-01  0.51100000000E-03 0.  1.
</event>
<event>
 8    1  0.1091347E+005  0.1043930E+01  0.7957747E-01            NaN
         13   -1    0    0    0    0  0.00000000000E+00  0.00000000000E+00  0.74505805969E-08  0.10566000000E+00  0.10566000000E+00 0.  1.
     999900   -1    0    0    0    0 -0.00000000000E+00 -0.00000000000E+00 -0.74505805969E-08  0.93827000000E+00  0.93827000000E+00 0. -1.
     999902    2    1    2    0    0 -0.33615581561E-02  0.11978512338E-01  0.10720286197E-01  0.10275071693E+01  0.10273759164E+01 0.  0.
     999903    2    3    3    0    0  0.47351133772E-01 -0.11649147027E+00  0.47809357179E-01  0.13596249140E+00  0.19689385937E-01 0.  0.
         14    1    1    2    0    0  0.33615581561E-02 -0.11978512338E-01 -0.10720286197E-01  0.16422830670E-01  0.00000000000E+00 0. -1.
     999901    1    3    3    0    0 -0.50712691929E-01  0.12846998261E+00 -0.37089070982E-01  0.89154467793E+00  0.88000000000E+00 0. -1.
        -11    1    4    4    0    0  0.39103440354E-01 -0.10975569269E+00  0.45294064824E-01  0.12500881791E+00  0.51100000000E-03 0. -1.
         11    1    4    4    0    0  0.82476934187E-02 -0.67357775784E-02  0.25152923555E-02  0.10953673491E-01  0.51100000000E-03 0.  1.
</event>
<event>
 8    1  0.1091347E+005  0.1043930E+01  0.7957747E-01            NaN
         13   -1    0    0    0    0  0.00000000000E+00  0.00000000000E+00  0.74505805969E-08  0.10566000000E+00  0.10566000000E+00 0. -1.
     999900   -1    0    0    0    0 -0.00000000000E+00 -0.00000000000E+00 -0.74505805969E-08  0.93827000000E+00  0.93827000000E+00 0.  1.
     999902    2    1    2    0    0  0.34382531794E-02  0.20010836925E-01 -0.11703644706E-01  0.10204943332E+01  0.10202251975E+01 0.  0.
     999903    2    3    3    0    0 -0.12876960474E+00 -0.55912836140E-02 -0.23881129760E-02  0.13020159178E+00  0.18272325001E-01 0.  0.
         14    1    1    2    0    0 -0.34382531794E-02 -0.20010836925E-01  0.11703644706E-01  0.23435666809E-01  0.00000000000E+00 0. -1.
     999901    1    3    3    0    0  0.13220785792E+00  0.25602120539E-01 -0.93155317300E-02  0.89029274141E+00  0.88000000000E+00 0.  1.
        -11    1    4    4    0    0 -0.70701149360E-01 -0.39511042855E-02 -0.10346381096E-01  0.71565162396E-01  0.51100000000E-03 0.  1.
         11    1    4    4    0    0 -0.58068455383E-01 -0.16401793285E-02  0.79582681195E-02  0.58636429387E-01  0.51100000000E-03 0. -1.
</event>
<event>
 8    1  0.1091347E+005  0.1043930E+01  0.7957747E-01            NaN
         13   -1    0    0    0    0  0.00000000000E+00  0.00000000000E+00  0.74505805969E-08  0.10566000000E+00  0.10566000000E+00 0. -1.
     999900   -1    0    0    0    0 -0.00000000000E+00 -0.00000000000E+00 -0.74505805969E-08  0.93827000000E+00  0.93827000000E+00 0. -1.
     999902    2    1    2    0    0 -0.92421901818E-02 -0.44533457628E-02 -0.24663859320E-01  0.10172175249E+01  0.10168667251E+01 0.  0.
     999903    2    3    3    0    0  0.21571268773E-01 -0.12336140101E+00 -0.20590958969E-01  0.12867648290E+00  0.21220149988E-01 0.  0.
         14    1    1    2    0    0  0.92421901818E-02  0.44533457628E-02  0.24663859320E-01  0.26712475070E-01  0.00000000000E+00 0. -1.
     999901    1    3    3    0    0 -0.30813458955E-01  0.11890805524E+00 -0.40729003509E-02  0.88854104203E+00  0.88000000000E+00 0.  1.
        -11    1    4    4    0    0  0.18865112009E-01 -0.80598031415E-01 -0.44905523265E-02  0.82899706274E-01  0.51100000000E-03 0.  1.
         11    1    4    4    0    0  0.27061567647E-02 -0.42763369591E-01 -0.16100406642E-01  0.45776776626E-01  0.51100000000E-03 0. -1.
</event>
<event>
 8    1  0.1091347E+005  0.1043930E+01  0.7957747E-01            NaN
         13   -1    0    0    0    0  0.00000000000E+00  0.00000000000E+00  0.74505805969E-08  0.10566000000E+00  0.10566000000E+00 0. -1.
     999900   -1    0    0    0    0 -0.00000000000E+00 -0.00000000000E+00 -0.74505805969E-08  0.93827000000E+00  0.93827000000E+00 0.  1.
     999902    2    1    2    0    0 -0.65313171049E-03  0.19824015121E-01 -0.15595744641E-01  0.10186981668E+01  0.10183856389E+01 0.  0.
     999903    2    3    3    0    0 -0.17111456911E-01 -0.12391826334E+00  0.21318655503E-02  0.12670770313E+00  0.20043932620E-01 0.  0.
         14    1    1    2    0    0  0.65313171049E-03 -0.19824015121E-01  0.15595744641E-01  0.25231833217E-01  0.00000000000E+00 0. -1.
     999901    1    3    3    0    0  0.16458325201E-01  0.14374227846E+00 -0.17727610192E-01  0.89199046365E+00  0.88000000000E+00 0.  1.
        -11    1    4    4    0    0 -0.13770084175E-01 -0.90595653369E-01  0.10351062135E-01  0.92220351528E-01  0.51100000000E-03 0. -1.
         11    1    4    4    0    0 -0.33413727358E-02 -0.33322609971E-01 -0.82191965847E-02  0.34487351602E-01  0.51100000000E-03 0.  1.
</event>
<event>
 8    1  0.1091347E+005  0.1043930E+01  0.7957747E-01            NaN
         13   -1    0    0    0    0  0.00000000000E+00  0.00000000000E+00  0.74505805969E-08  0.10566000000E+00  0.10566000000E+00 0. -1.
     999900   -1    0    0    0    0 -0.00000000000E+00 -0.00000000000E+00 -0.74505805969E-08  0.93827000000E+00  0.93827000000E+00 0.  1.
     999902    2    1    2    0    0  0.15432673507E-01 -0.94388904480E-02  0.14287502533E-01  0.10208780414E+01  0.10206177456E+01 0.  0.
     999903    2    3    3    0    0 -0.83613269052E-01 -0.40087877580E-01 -0.87569543387E-01  0.12895634256E+00  0.19055095538E-01 0.  0.
         14    1    1    2    0    0 -0.15432673507E-01  0.94388904480E-02 -0.14287502533E-01  0.23051958552E-01  0.00000000000E+00 0.  1.
     999901    1    3    3    0    0  0.99045942560E-01  0.30648987132E-01  0.10185704592E+00  0.89192169889E+00  0.88000000000E+00 0. -1.
        -11    1    4    4    0    0 -0.36922236013E-01 -0.12547085269E-01 -0.47969004115E-01  0.61822061902E-01  0.51100000000E-03 0. -1.
         11    1    4    4    0    0 -0.46691033039E-01 -0.27540792311E-01 -0.39600539272E-01  0.67134280655E-01  0.51100000000E-03 0.  1.
</event>
<event>
 8    1  0.1091347E+005  0.1043930E+01  0.7957747E-01            NaN
         13   -1    0    0    0    0  0.00000000000E+00  0.00000000000E+00  0.74505805969E-08  0.10566000000E+00  0.10566000000E+00 0.  1.
     999900   -1    0    0    0    0 -0.00000000000E+00 -0.00000000000E+00 -0.74505805969E-08  0.93827000000E+00  0.93827000000E+00 0.  1.
     999902    2    1    2    0    0 -0.17327678689E-01 -0.10836104068E-02  0.16366414904E-01  0.10200703647E+01  0.10197912859E+01 0.  0.
     999903    2    3    3    0    0  0.73754435506E-01 -0.92068354882E-01  0.50581028512E-01  0.13004518806E+00  0.20904826348E-01 0.  0.
         14    1    1    2    0    0  0.17327678689E-01  0.10836104068E-02 -0.16366414904E-01  0.23859635309E-01  0.00000000000E+00 0. -1.
     999901    1    3    3    0    0 -0.91082114195E-01  0.90984744475E-01 -0.34214613609E-01  0.89002517663E+00  0.88000000000E+00 0.  1.
        -11    1    4    4    0    0  0.38821836344E-01 -0.40614806019E-01  0.34024382950E-01  0.65685745800E-01  0.51100000000E-03 0. -1.
         11    1    4    4    0    0  0.34932599162E-01 -0.51453548862E-01  0.16556645562E-01  0.64359442260E-01  0.51100000000E-03 0.  1.
</event>
<event>
 8    1  0.1091347E+005  0.1043930E+01  0.7957747E-01            NaN
         13   -1    0    0    0    0  0.00000000000E+00  0.00000000000E+00  0.74505805969E-08  0.10566000000E+00  0.10566000000E+00 0.  1.
     999900   -1    0    0    0    0 -0.00000000000E+00 -0.00000000000E+00 -0.74505805969E-08  0.93827000000E+00  0.93827000000E+00 0. -1.
     999902    2    1    2    0    0 -0.40899710206E-02  0.18518962796E-01  0.14085313511E-01  0.10203063698E+01  0.10200328487E+01 0.  0.
     999903    2    3    3    0    0  0.80227382582E-01  0.98105666389E-01  0.32948732194E-01  0.13250048560E+00  0.20238701444E-01 0.  0.
         14    1    1    2    0    0  0.40899710206E-02 -0.18518962796E-01 -0.14085313511E-01  0.23623630176E-01  0.00000000000E+00 0. -1.
     999901    1    3    3    0    0 -0.84317353603E-01 -0.79586703594E-01 -0.18863418683E-01  0.88780588423E+00  0.88000000000E+00 0. -1.
        -11    1    4    4    0    0  0.17943566488E-01  0.36385758116E-01  0.12596854220E-01  0.42483371208E-01  0.51100000000E-03 0. -1.
         11    1    4    4    0    0  0.62283816094E-01  0.61719908273E-01  0.20351877975E-01  0.90017114387E-01  0.51100000000E-03 0.  1.
</event>
<event>
 8    1  0.1091347E+005  0.1043930E+01  0.7957747E-01            NaN
         13   -1    0    0    0    0  0.00000000000E+00  0.00000000000E+00  0.74505805969E-08  0.10566000000E+00  0.10566000000E+00 0.  1.
     999900   -1    0    0    0    0 -0.00000000000E+00 -0.00000000000E+00 -0.74505805969E-08  0.93827000000E+00  0.93827000000E+00 0. -1.
     999902    2    1    2    0    0 -0.56113154456E-02  0.26617118493E-01 -0.43510575555E-03  0.10167243540E+01  0.10163603027E+01 0.  0.
     999903    2    3    3    0    0 -0.35886213575E-01 -0.11599595029E+00 -0.20694738264E-01  0.12449932096E+00  0.18136370119E-01 0.  0.
         14    1    1    2    0    0  0.56113154456E-02 -0.26617118493E-01  0.43510575555E-03  0.27205646012E-01  0.00000000000E+00 0.  1.
     999901    1    3    3    0    0  0.30274898129E-01  0.14261306878E+00  0.20259632508E-01  0.89222503302E+00  0.88000000000E+00 0. -1.
        -11    1    4    4    0    0 -0.28545404849E-01 -0.68934391393E-01 -0.70215637153E-02  0.74942337385E-01  0.51100000000E-03 0. -1.
         11    1    4    4    0    0 -0.73408087264E-02 -0.47061558894E-01 -0.13673174549E-01  0.49556983580E-01  0.51100000000E-03 0.  1.
</event>
<event>
 8    1  0.1091347E+005  0.1043930E+01  0.7957747E-01            NaN
         13   -1    0    0    0    0  0.00000000000E+00  0.00000000000E+00  0.74505805969E-08  0.10566000000E+00  0.10566000000E+00 0.  1.
     999900   -1    0    0    0    0 -0.00000000000E+00 -0.00000000000E+00 -0.74505805969E-08  0.93827000000E+00  0.93827000000E+00 0.  1.
     999902    2    1    2    0    0 -0.13471776079E-01 -0.94545949748E-02 -0.16909816647E-01  0.10203329660E+01  0.10200600675E+01 0.  0.
     999903    2    3    3    0    0 -0.58985443425E-01 -0.95732429904E-01  0.64519909921E-01  0.13120633881E+00  0.20206531057E-01 0.  0.
         14    1    1    2    0    0  0.13471776079E-01  0.94545949748E-02  0.16909816647E-01  0.23597034049E-01  0.00000000000E+00 0. -1.
     999901    1    3    3    0    0  0.45513667345E-01  0.86277834929E-01 -0.81429726568E-01  0.88912662714E+00  0.88000000000E+00 0.  1.
        -11    1    4    4    0    0 -0.40607397289E-01 -0.65282216633E-01  0.54537716916E-01  0.94262146223E-01  0.51100000000E-03 0. -1.
         11    1    4    4    0    0 -0.18378046135E-01 -0.30450213271E-01  0.99821930050E-02  0.36944192591E-01  0.51100000000E-03 0.  1.
</event>
<event>
 8    1  0.1091347E+005  0.1043930E+01  0.7957747E-01            NaN
         13   -1    0    0    0    0  0.00000000000E+00  0.00000000000E+00  0.74505805969E-08  0.10566000000E+00  0.10566000000E+00 0. -1.
     999900   -1    0    0    0    0 -0.00000000000E+00 -0.00000000000E+00 -0.74505805969E-08  0.93827000000E+00  0.93827000000E+00 0. -1.
     999902    2    1    2    0    0 -0.58832130096E-02  0.11090040306E-01  0.19934325420E-01  0.10203720179E+01  0.10201000326E+01 0.  0.
     999903    2    3    3    0    0  0.82238587595E-01 -0.46953600838E-01  0.88926687617E-01  0.13138694378E+00  0.19665891896E-01 0.  0.
         14    1    1    2    0    0  0.58832130096E-02 -0.11090040306E-01 -0.19934325420E-01  0.23557982071E-01  0.00000000000E+00 0.  1.
     999901    1    3    3    0    0 -0.88121800605E-01  0.58043641144E-01 -0.68992362197E-01  0.88898507415E+00  0.88000000000E+00 0. -1.
        -11    1    4    4    0    0  0.55503394825E-01 -0.21163416558E-01  0.58408088705E-01  0.83308360833E-01  0.51100000000E-03 0.  1.
         11    1    4    4    0    0  0.26735192770E-01 -0.25790184280E-01  0.30518598912E-01  0.48078582947E-01  0.51100000000E-03 0. -1.
</event>
<event>
 8    1  0.1091347E+005  0.1043930E+01  0.7957747E-01            NaN
         13   -1    0    0    0    0  0.00000000000E+00  0.00000000000E+00  0.74505805969E-08  0.10566000000E+00  0.10566000000E+00 0. -1.
     999900   -1    0    0    0    0 -0.00000000000E+00 -0.00000000000E+00 -0.74505805969E-08  0.93827000000E+00  0.93827000000E+00 0.  1.
     999902    2    1    2    0    0 -0.92796847019E-02  0.25459265649E-01  0.16640223022E-01  0.10121308840E+01  0.10116312286E+01 0.  0.
     999903    2    3    3    0    0  0.59607023112E-01 -0.10146520370E+00 -0.82241811096E-02  0.12001349374E+00  0.22077517048E-01 0.  0.
         14    1    1    2    0    0  0.92796847019E-02 -0.25459265649E-01 -0.16640223022E-01  0.31799115990E-01  0.00000000000E+00 0.  1.
     999901    1    3    3    0    0 -0.68886707813E-01  0.12692446935E+00  0.24864404132E-01  0.89211739027E+00  0.88000000000E+00 0.  1.
        -11    1    4    4    0    0  0.28553336866E-01 -0.61464607113E-01 -0.13468806834E-01  0.69100367961E-01  0.51100000000E-03 0. -1.
         11    1    4    4    0    0  0.31053686246E-01 -0.40000596583E-01  0.52446257247E-02  0.50913125778E-01  0.51100000000E-03 0.  1.
</event>
<event>
 8    1  0.1091347E+005  0.1043930E+01  0.7957747E-01            NaN
         13   -1    0    0    0    0  0.00000000000E+00  0.00000000000E+00  0.74505805969E-08  0.10566000000E+00  0.10566000000E+00 0.  1.
     999900   -1    0    0    0    0 -0.00000000000E+00 -0.00000000000E+00 -0.74505805969E-08  0.93827000000E+00  0.93827000000E+00 0. -1.
     999902    2    1    2    0    0  0.13688749189E-01  0.76545581897E-04 -0.20174678488E-01  0.10195495700E+01  0.10192580244E+01 0.  0.
     999903    2    3    3    0    0  0.10592920552E+00 -0.17484395671E-01 -0.75628359525E-01  0.13281860791E+00  0.19860341589E-01 0.  0.
         14    1    1    2    0    0 -0.13688749189E-01 -0.76545581897E-04  0.20174678488E-01  0.24380429973E-01  0.00000000000E+00 0.  1.
     999901    1    3    3    0    0 -0.92240456330E-01  0.17560941252E-01  0.55453681037E-01  0.88673096212E+00  0.88000000000E+00 0.  1.
        -11    1    4    4    0    0  0.50539217622E-01 -0.17532177993E-01 -0.42039542079E-01  0.68038033498E-01  0.51100000000E-03 0.  1.
         11    1    4    4    0    0  0.55389987896E-01  0.47782322233E-04 -0.33588817447E-01  0.64780574409E-01  0.51100000000E-03 0. -1.
</event>
<event>
 8    1  0.1091347E+005  0.1043930E+01  0.7957747E-01            NaN
         13   -1    0    0    0    0  0.00000000000E+00  0.00000000000E+00  0.74505805969E-08  0.10566000000E+00  0.10566000000E+00 0. -1.
     999900   -1    0    0    0    0 -0.00000000000E+00 -0.00000000000E+00 -0.74505805969E-08  0.93827000000E+00  0.93827000000E+00 0. -1.
     999902    2    1    2    0    0  0.37038053120E-03  0.16863423070E-01  0.18555611431E-01  0.10188536579E+01  0.10185450178E+01 0.  0.
     999903    2    3    3    0    0 -0.34334861371E-01 -0.10860984702E+00  0.56194927709E-01  0.12848030165E+00  0.19347776026E-01 0.  0.
         14    1    1    2    0    0 -0.37038053120E-03 -0.16863423070E-01 -0.18555611431E-01  0.25076342137E-01  0.00000000000E+00 0.  1.
     999901    1    3    3    0    0  0.34705241902E-01  0.12547327009E+00 -0.37639316278E-01  0.89037335621E+00  0.88000000000E+00 0. -1.
        -11    1    4    4    0    0  0.14215224606E-02 -0.18318664654E-01  0.10249862751E-01  0.21045546042E-01  0.51100000000E-03 0.  1.
         11    1    4    4    0    0 -0.35756383832E-01 -0.90291182365E-01  0.45945064958E-01  0.10743475561E+00  0.51100000000E-03 0. -1.
</event>
<event>
 8    1  0.1091347E+005  0.1043930E+01  0.7957747E-01            NaN
         13   -1    0    0    0    0  0.00000000000E+00  0.00000000000E+00  0.74505805969E-08  0.10566000000E+00  0.10566000000E+00 0. -1.
     999900   -1    0    0    0    0 -0.00000000000E+00 -0.00000000000E+00 -0.74505805969E-08  0.93827000000E+00  0.93827000000E+00 0. -1.
     999902    2    1    2    0    0  0.76769635826E-02  0.18105186609E-01 -0.14667888627E-01  0.10193967469E+01  0.10191014901E+01 0.  0.
     999903    2    3    3    0    0  0.51317203073E-01  0.92293438554E-01 -0.77926470561E-01  0.13293748926E+00  0.21173263925E-01 0.  0.
         14    1    1    2    0    0 -0.76769635826E-02 -0.18105186609E-01  0.14667888627E-01  0.24533253122E-01  0.00000000000E+00 0. -1.
     999901    1    3    3    0    0 -0.43640239490E-01 -0.74188251945E-01  0.63258581934E-01  0.88645925762E+00  0.88000000000E+00 0.  1.
        -11    1    4    4    0    0  0.12872231154E-01  0.40777616046E-01 -0.24045721553E-01  0.49060841323E-01  0.51100000000E-03 0. -1.
         11    1    4    4    0    0  0.38444971919E-01  0.51515822508E-01 -0.53880749008E-01  0.83876647937E-01  0.51100000000E-03 0.  1.
</event>
<event>
 8    1  0.1091347E+005  0.1043930E+01  0.7957747E-01            NaN
         13   -1    0    0    0    0  0.00000000000E+00  0.00000000000E+00  0.74505805969E-08  0.10566000000E+00  0.10566000000E+00 0.  1.
     999900   -1    0    0    0    0 -0.00000000000E+00 -0.00000000000E+00 -0.74505805969E-08  0.93827000000E+00  0.93827000000E+00 0. -1.
     999902    2    1    2    0    0 -0.13785966050E-01  0.13962100240E-01  0.58431632926E-02  0.10234571971E+01  0.10232524119E+01 0.  0.
     999903    2    3    3    0    0  0.73205616429E-01 -0.98784799370E-01  0.41408594501E-01  0.13130009279E+00  0.20187714222E-01 0.  0.
         14    1    1    2    0    0  0.13785966050E-01 -0.13962100240E-01 -0.58431632926E-02  0.20472802942E-01  0.00000000000E+00 0.  1.
     999901    1    3    3    0    0 -0.86991582479E-01  0.11274689961E+00 -0.35565431209E-01  0.89215710427E+00  0.88000000000E+00 0.  1.
        -11    1    4    4    0    0  0.25917083850E-01 -0.31416705127E-01  0.23641414895E-01  0.47094396860E-01  0.51100000000E-03 0. -1.
         11    1    4    4    0    0  0.47288532578E-01 -0.67368094243E-01  0.17767179606E-01  0.84205695933E-01  0.51100000000E-03 0.  1.
</event>
<event>
 8    1  0.1091347E+005  0.1043930E+01  0.7957747E-01            NaN
         13   -1    0    0    0    0  0.00000000000E+00  0.00000000000E+00  0.74505805969E-08  0.10566000000E+00  0.10566000000E+00 0.  1.
     999900   -1    0    0    0    0 -0.00000000000E+00 -0.00000000000E+00 -0.74505805969E-08  0.93827000000E+00  0.93827000000E+00 0. -1.
     999902    2    1    2    0    0 -0.40813809403E-02  0.74488488915E-02 -0.20828828682E-01  0.10214359313E+01  0.10211882191E+01 0.  0.
     999903    2    3    3    0    0 -0.26043521280E-01 -0.30660244024E-01 -0.12623567600E+00  0.13405481704E+00  0.20418925353E-01 0.  0.
         14    1    1    2    0    0  0.40813809403E-02 -0.74488488915E-02  0.20828828682E-01  0.22494068651E-01  0.00000000000E+00 0.  1.
     999901    1    3    3    0    0  0.21962140339E-01  0.38109092916E-01  0.10540684732E+00  0.88738111431E+00  0.88000000000E+00 0.  1.
        -11    1    4    4    0    0 -0.19495299031E-01 -0.32759485403E-01 -0.10361026183E+00  0.11040198389E+00  0.51100000000E-03 0. -1.
         11    1    4    4    0    0 -0.65482222483E-02  0.20992413790E-02 -0.22625414165E-01  0.23652833152E-01  0.51100000000E-03 0.  1.
</event>
<event>
 8    1  0.1091347E+005  0.1043930E+01  0.7957747E-01            NaN
         13   -1    0    0    0    0  0.00000000000E+00  0.00000000000E+00  0.74505805969E-08  0.10566000000E+00  0.10566000000E+00 0.  1.
     999900   -1    0    0    0    0 -0.00000000000E+00 -0.00000000000E+00 -0.74505805969E-08  0.93827000000E+00  0.93827000000E+00 0. -1.
     999902    2    1    2    0    0  0.14619961633E-01  0.36607166385E-02 -0.22033731290E-01  0.10172348799E+01  0.10168845418E+01 0.  0.
     999903    2    3    3    0    0 -0.10250169955E+00  0.37822985299E-01  0.57641145848E-01  0.12525246403E+00  0.20700275920E-01 0.  0.
         14    1    1    2    0    0 -0.14619961633E-01 -0.36607166385E-02  0.22033731290E-01  0.26695120135E-01  0.00000000000E+00 0.  1.
     999901    1    3    3    0    0  0.11712166118E+00 -0.34162268660E-01 -0.79674877138E-01  0.89198241584E+00  0.88000000000E+00 0.  1.
        -11    1    4    4    0    0 -0.82994690448E-01  0.22671455704E-01  0.49390580261E-01  0.99205867194E-01  0.51100000000E-03 0.  1.
         11    1    4    4    0    0 -0.19507009099E-01  0.15151529594E-01  0.82505655878E-02  0.26046596832E-01  0.51100000000E-03 0. -1.
</event>
<event>
 8    1  0.1091347E+005  0.1043930E+01  0.7957747E-01            NaN
         13   -1    0    0    0    0  0.00000000000E+00  0.00000000000E+00  0.74505805969E-08  0.10566000000E+00  0.10566000000E+00 0.  1.
     999900   -1    0    0    0    0 -0.00000000000E+00 -0.00000000000E+00 -0.74505805969E-08  0.93827000000E+00  0.93827000000E+00 0. -1.
     999902    2    1    2    0    0  0.21904505584E-01  0.81661297529E-02 -0.86921539645E-02  0.10189891383E+01  0.10186838653E+01 0.  0.
     999903    2    3    3    0    0 -0.11942720823E+00 -0.87618882079E-03  0.36389195302E-01  0.12652695712E+00  0.20524901199E-01 0.  0.
         14    1    1    2    0    0 -0.21904505584E-01 -0.81661297529E-02  0.86921539645E-02  0.24940861664E-01  0.00000000000E+00 0.  1.
     999901    1    3    3    0    0  0.14133171382E+00  0.90423185737E-02 -0.45081349266E-01  0.89246218122E+00  0.88000000000E+00 0.  1.
        -11    1    4    4    0    0 -0.93096155033E-01 -0.46354329489E-02  0.35994122247E-01  0.99921065236E-01  0.51100000000E-03 0. -1.
         11    1    4    4    0    0 -0.26331053200E-01  0.37592441281E-02  0.39507305508E-03  0.26605891880E-01  0.51100000000E-03 0.  1.
</event>
<event>
 8    1  0.1091347E+005  0.1043930E+01  0.7957747E-01            NaN
         13   -1    0    0    0    0  0.00000000000E+00  0.00000000000E+00  0.74505805969E-08  0.10566000000E+00  0.10566000000E+00 0.  1.
     999900   -1    0    0    0    0 -0.00000000000E+00 -0.00000000000E+00 -0.74505805969E-08  0.93827000000E+00  0.93827000000E+00 0. -1.
     999902    2    1    2    0    0 -0.67169090969E-02 -0.20769644227E-02 -0.22455918115E-01  0.10203991924E+01  0.10201278414E+01 0.  0.
     999903    2    3    3    0    0 -0.50612819685E-01 -0.65444337932E-01  0.97031576727E-01  0.12898484629E+00  0.19425365002E-01 0.  0.
         14    1    1    2    0    0  0.67169090969E-02  0.20769644227E-02  0.22455918115E-01  0.23530807624E-01  0.00000000000E+00 0.  1.
     999901    1    3    3    0    0  0.43895910588E-01  0.63367373510E-01 -0.11948749484E+00  0.89141434609E+00  0.88000000000E+00 0. -1.
        -11    1    4    4    0    0 -0.28412788532E-01 -0.51230346486E-01  0.65250958267E-01  0.87691411376E-01  0.51100000000E-03 0.  1.
         11    1    4    4    0    0 -0.22200031153E-01 -0.14213991446E-01  0.31780618460E-01  0.41293434910E-01  0.51100000000E-03 0. -1.
</event>
<event>
 8    1  0.1091347E+005  0.1043930E+01  0.7957747E-01            NaN
         13   -1    0    0    0    0  0.00000000000E+00  0.00000000000E+00  0.74505805969E-08  0.10566000000E+00  0.10566000000E+00 0. -1.
     999900   -1    0    0    0    0 -0.00000000000E+00 -0.00000000000E+00 -0.74505805969E-08  0.93827000000E+00  0.93827000000E+00 0.  1.
     999902    2    1    2    0    0  0.21552575768E-01  0.84827529437E-02 -0.63675416141E-02  0.10199088384E+01  0.10196259228E+01 0.  0.
     999903    2    3    3    0    0 -0.34925363471E-01  0.25156308560E-01  0.11993654616E+00  0.12894279656E+00  0.19719249618E-01 0.  0.
         14    1    1    2    0    0 -0.21552575768E-01 -0.84827529437E-02  0.63675416141E-02  0.24021161627E-01  0.00000000000E+00 0.  1.
     999901    1    3    3    0    0  0.56477939238E-01 -0.16673555616E-01 -0.12630408777E+00  0.89096604181E+00  0.88000000000E+00 0.  1.
        -11    1    4    4    0    0 -0.10752329433E-01  0.19573284377E-01  0.62628755494E-01  0.66493219093E-01  0.51100000000E-03 0. -1.
         11    1    4    4    0    0 -0.24173034038E-01  0.55830241831E-02  0.57307790666E-01  0.62449577466E-01  0.51100000000E-03 0.  1.
</event>
<event>
 8    1  0.1091347E+005  0.1043930E+01  0.7957747E-01            NaN
         13   -1    0    0    0    0  0.00000000000E+00  0.00000000000E+00  0.74505805969E-08  0.10566000000E+00  0.10566000000E+00 0.  1.
     999900   -1    0    0    0    0 -0.00000000000E+00 -0.00000000000E+00 -0.74505805969E-08  0.93827000000E+00  0.93827000000E+00 0.  1.
     999902    2    1    2    0    0  0.23100145044E-01 -0.88518897226E-03 -0.86465067442E-03  0.10207967365E+01  0.10205345802E+01 0.  0.
     999903    2    3    3    0    0  0.58645301547E-01 -0.96895340966E-01  0.65601303665E-01  0.13237165211E+00  0.19767264510E-01 0.  0.
         14    1    1    2    0    0 -0.23100145044E-01  0.88518897226E-03  0.86465067442E-03  0.23133263525E-01  0.00000000000E+00 0. -1.
     999901    1    3    3    0    0 -0.35545156503E-01  0.96010151993E-01 -0.66465954340E-01  0.88842508436E+00  0.88000000000E+00 0.  1.
        -11    1    4    4    0    0  0.41923492413E-01 -0.83574688837E-01  0.55352436841E-01  0.10865754100E+00  0.51100000000E-03 0. -1.
         11    1    4    4    0    0  0.16721809134E-01 -0.13320652129E-01  0.10248866825E-01  0.23714111116E-01  0.51100000000E-03 0.  1.
</event>
<event>
 8    1  0.1091347E+005  0.1043930E+01  0.7957747E-01            NaN
         13   -1    0    0    0    0  0.00000000000E+00  0.00000000000E+00  0.74505805969E-08  0.10566000000E+00  0.10566000000E+00 0. -1.
     999900   -1    0    0    0    0 -0.00000000000E+00 -0.00000000000E+00 -0.74505805969E-08  0.93827000000E+00  0.93827000000E+00 0.  1.
     999902    2    1    2    0    0  0.20071139237E-02  0.23308568515E-01 -0.27655223735E-03  0.10205335397E+01  0.10202653142E+01 0.  0.
     999903    2    3    3    0    0  0.83101306581E-01  0.39007697495E-02  0.99004184751E-01  0.13103390764E+00  0.21142686500E-01 0.  0.
         14    1    1    2    0    0 -0.20071139237E-02 -0.23308568515E-01  0.27655223735E-03  0.23396460281E-01  0.00000000000E+00 0. -1.
     999901    1    3    3    0    0 -0.81094192657E-01  0.19407798766E-01 -0.99280736989E-01  0.88949963208E+00  0.88000000000E+00 0.  1.
        -11    1    4    4    0    0  0.71110833430E-01 -0.43359938537E-02  0.83617910863E-01  0.10985339145E+00  0.51100000000E-03 0. -1.
         11    1    4    4    0    0  0.11990473151E-01  0.82367636031E-02  0.15386273888E-01  0.21180516193E-01  0.51100000000E-03 0.  1.
</event>
<event>
 8    1  0.1091347E+005  0.1043930E+01  0.7957747E-01            NaN
         13   -1    0    0    0    0  0.00000000000E+00  0.00000000000E+00  0.74505805969E-08  0.10566000000E+00  0.10566000000E+00 0. -1.
     999900   -1    0    0    0    0 -0.00000000000E+00 -0.00000000000E+00 -0.74505805969E-08  0.93827000000E+00  0.93827000000E+00 0.  1.
     999902    2    1    2    0    0  0.20589352017E-01  0.57440887136E-02 -0.10118715641E-01  0.10202803831E+01  0.10200062528E+01 0.  0.
     999903    2    3    3    0    0  0.76001980095E-01  0.10115573420E+00  0.31868642910E-01  0.13239701257E+00  0.22462746867E-01 0.  0.
         14    1    1    2    0    0 -0.20589352017E-01 -0.57440887136E-02  0.10118715641E-01  0.23649616864E-01  0.00000000000E+00 0. -1.
     999901    1    3    3    0    0 -0.55412628078E-01 -0.95411645488E-01 -0.41987358551E-01  0.88788337056E+00  0.88000000000E+00 0.  1.
        -11    1    4    4    0    0  0.38575011247E-01  0.46889917917E-01  0.26515228869E-01  0.66257183595E-01  0.51100000000E-03 0. -1.
         11    1    4    4    0    0  0.37426968848E-01  0.54265816285E-01  0.53534140410E-02  0.66139828977E-01  0.51100000000E-03 0.  1.
</event>
<event>
 8    1  0.1091347E+005  0.1043930E+01  0.7957747E-01            NaN
         13   -1    0    0    0    0  0.00000000000E+00  0.00000000000E+00  0.74505805969E-08  0.10566000000E+00  0.10566000000E+00 0. -1.
     999900   -1    0    0    0    0 -0.00000000000E+00 -0.00000000000E+00 -0.74505805969E-08  0.93827000000E+00  0.93827000000E+00 0.  1.
     999902    2    1    2    0    0  0.20858352925E-01 -0.54693887945E-03 -0.38334366511E-03  0.10230609564E+01  0.10228480843E+01 0.  0.
     999903    2    3    3    0    0  0.13183881662E+00 -0.96128945495E-02  0.24200426606E-01  0.13570352185E+00  0.18865415027E-01 0.  0.
         14    1    1    2    0    0 -0.20858352925E-01  0.54693887945E-03  0.38334366511E-03  0.20869043611E-01  0.00000000000E+00 0. -1.
     999901    1    3    3    0    0 -0.11098046370E+00  0.90659556701E-02 -0.24583770271E-01  0.88735743454E+00  0.88000000000E+00 0. -1.
        -11    1    4    4    0    0  0.91609468052E-01 -0.57686249816E-02  0.79253786405E-02  0.92133839703E-01  0.51100000000E-03 0. -1.
         11    1    4    4    0    0  0.40229348570E-01 -0.38442695679E-02  0.16275047966E-01  0.43569682145E-01  0.51100000000E-03 0.  1.
</event>
<event>
 8    1  0.1091347E+005  0.1043930E+01  0.7957747E-01            NaN
         13   -1    0    0    0    0  0.00000000000E+00  0.00000000000E+00  0.74505805969E-08  0.10566000000E+00  0.10566000000E+00 0.  1.
     999900   -1    0    0    0    0 -0.00000000000E+00 -0.00000000000E+00 -0.74505805969E-08  0.93827000000E+00  0.93827000000E+00 0.  1.
     999902    2    1    2    0    0  0.50400095461E-02 -0.22534882103E-01 -0.57996023950E-02  0.10201212202E+01  0.10198433438E+01 0.  0.
     999903    2    3    3    0    0  0.11657190663E+00 -0.29667558197E-01  0.48929704970E-01  0.13136617171E+00  0.19843931449E-01 0.  0.
         14    1    1    2    0    0 -0.50400095461E-02  0.22534882103E-01  0.57996023950E-02  0.23808779800E-01  0.00000000000E+00 0.  1.
     999901    1    3    3    0    0 -0.11153189709E+00  0.71326760947E-02 -0.54729307365E-01  0.88875504849E+00  0.88000000000E+00 0.  1.
        -11    1    4    4    0    0  0.10833723321E+00 -0.27072242342E-01  0.50530487373E-01  0.12257019899E+00  0.51100000000E-03 0.  1.
         11    1    4    4    0    0  0.82346734197E-02 -0.25953158551E-02 -0.16007824036E-02  0.87959727160E-02  0.51100000000E-03 0. -1.
</event>
<event>
 8    1  0.1091347E+005  0.1043930E+01  0.7957747E-01            NaN
         13   -1    0    0    0    0  0.00000000000E+00  0.00000000000E+00  0.74505805969E-08  0.10566000000E+00  0.10566000000E+00 0. -1.
     999900   -1    0    0    0    0 -0.00000000000E+00 -0.00000000000E+00 -0.74505805969E-08  0.93827000000E+00  0.93827000000E+00 0.  1.
     999902    2    1    2    0    0 -0.99869499560E-02  0.19786971945E-01 -0.65549188525E-02  0.10208165756E+01  0.10205548739E+01 0.  0.
     999903    2    3    3    0    0 -0.39593653817E-01  0.77398469302E-01  0.97616861386E-01  0.13230804924E+00  0.20449640451E-01 0.  0.
         14    1    1    2    0    0  0.99869499560E-02 -0.19786971945E-01  0.65549188525E-02  0.23113424440E-01  0.00000000000E+00 0. -1.
     999901    1    3    3    0    0  0.29606703861E-01 -0.57611497357E-01 -0.10417178024E+00  0.88850852632E+00  0.88000000000E+00 0.  1.
        -11    1    4    4    0    0 -0.37716406775E-01  0.55290360358E-01  0.76895953328E-01  0.10194508349E+00  0.51100000000E-03 0.  1.
         11    1    4    4    0    0 -0.18772470417E-02  0.22108108944E-01  0.20720908058E-01  0.30362965752E-01  0.51100000000E-03 0. -1.
</event>
<event>
 8    1  0.1091347E+005  0.1043930E+01  0.7957747E-01            NaN
         13   -1    0    0    0    0  0.00000000000E+00  0.00000000000E+00  0.74505805969E-08  0.10566000000E+00  0.10566000000E+00 0. -1.
     999900   -1    0    0    0    0 -0.00000000000E+00 -0.00000000000E+00 -0.74505805969E-08  0.93827000000E+00  0.93827000000E+00 0. -1.
     999902    2    1    2    0    0 -0.70656529034E-02  0.13044918531E-01 -0.18741472783E-01  0.10200273610E+01  0.10197472633E+01 0.  0.
     999903    2    3    3    0    0 -0.30168167762E-01  0.62331128398E-01 -0.11224026130E+00  0.13340180295E+00  0.20071792681E-01 0.  0.
         14    1    1    2    0    0  0.70656529034E-02 -0.13044918531E-01  0.18741472783E-01  0.23902639028E-01  0.00000000000E+00 0. -1.
     999901    1    3    3    0    0  0.23102514859E-01 -0.49286209866E-01  0.93498788517E-01  0.88662555802E+00  0.88000000000E+00 0.  1.
        -11    1    4    4    0    0 -0.32379290171E-01  0.54341562108E-01 -0.93333633186E-01  0.11275128385E+00  0.51100000000E-03 0. -1.
         11    1    4    4    0    0  0.22111224089E-02  0.79895662895E-02 -0.18906628114E-01  0.20650519108E-01  0.51100000000E-03 0.  1.
</event>
<event>
 8    1  0.1091347E+005  0.1043930E+01  0.7957747E-01            NaN
         13   -1    0    0    0    0  0.00000000000E+00  0.00000000000E+00  0.74505805969E-08  0.10566000000E+00  0.10566000000E+00 0.  1.
     999900   -1    0    0    0    0 -0.00000000000E+00 -0.00000000000E+00 -0.74505805969E-08  0.93827000000E+00  0.93827000000E+00 0.  1.
     999902    2    1    2    0    0 -0.10957718764E-01  0.34457268107E-02 -0.21998688680E-01  0.10191129305E+01  0.10188107176E+01 0.  0.
     999903    2    3    3    0    0 -0.78723995898E-01  0.46935489242E-02 -0.10468994904E+00  0.13264145895E+00  0.20353728634E-01 0.  0.
         14    1    1    2    0    0  0.10957718764E-01 -0.34457268107E-02  0.21998688680E-01  0.24817069477E-01  0.00000000000E+00 0.  1.
     999901    1    3    3    0    0  0.67766277135E-01 -0.12478221135E-02  0.82691260364E-01  0.88647147158E+00  0.88000000000E+00 0. -1.
        -11    1    4    4    0    0 -0.49155641140E-01  0.14334972310E-02 -0.48557295692E-01  0.69111533452E-01  0.51100000000E-03 0.  1.
         11    1    4    4    0    0 -0.29568354758E-01  0.32600516932E-02 -0.56132653352E-01  0.63529925495E-01  0.51100000000E-03 0. -1.
</event>
<event>
 8    1  0.1091347E+005  0.1043930E+01  0.7957747E-01            NaN
         13   -1    0    0    0    0  0.00000000000E+00  0.00000000000E+00  0.74505805969E-08  0.10566000000E+00  0.10566000000E+00 0.  1.
     999900   -1    0    0    0    0 -0.00000000000E+00 -0.00000000000E+00 -0.74505805969E-08  0.93827000000E+00  0.93827000000E+00 0. -1.
     999902    2    1    2    0    0 -0.10536143742E-01  0.16996991222E-02 -0.20475205574E-01  0.10208403195E+01  0.10205791613E+01 0.  0.
     999903    2    3    3    0    0 -0.46222927175E-01 -0.30714917560E-01  0.11493097179E+00  0.12917946091E+00  0.19955943657E-01 0.  0.
         14    1    1    2    0    0  0.10536143742E-01 -0.16996991222E-02  0.20475205574E-01  0.23089680495E-01  0.00000000000E+00 0.  1.
     999901    1    3    3    0    0  0.35686783433E-01  0.32414616682E-01 -0.13540617736E+00  0.89166085860E+00  0.88000000000E+00 0. -1.
        -11    1    4    4    0    0 -0.27999127132E-01 -0.18831238361E-01  0.89822197739E-01  0.95952357897E-01  0.51100000000E-03 0.  1.
         11    1    4    4    0    0 -0.18223800043E-01 -0.11883679198E-01  0.25108774048E-01  0.33227103011E-01  0.51100000000E-03 0. -1.
</event>
<event>
 8    1  0.1091347E+005  0.1043930E+01  0.7957747E-01            NaN
         13   -1    0    0    0    0  0.00000000000E+00  0.00000000000E+00  0.74505805969E-08  0.10566000000E+00  0.10566000000E+00 0.  1.
     999900   -1    0    0    0    0 -0.00000000000E+00 -0.00000000000E+00 -0.74505805969E-08  0.93827000000E+00  0.93827000000E+00 0.  1.
     999902    2    1    2    0    0  0.18112243950E-01  0.11754398784E-01 -0.79731873880E-02  0.10209128110E+01  0.10206533088E+01 0.  0.
     999903    2    3    3    0    0  0.12858370228E+00 -0.27160154186E-01  0.72334331304E-02  0.13302231842E+00  0.19265829172E-01 0.  0.
         14    1    1    2    0    0 -0.18112243950E-01 -0.11754398784E-01  0.79731873880E-02  0.23017188986E-01  0.00000000000E+00 0.  1.
     999901    1    3    3    0    0 -0.11047145833E+00  0.38914552969E-01 -0.15206620518E-01  0.88789049260E+00  0.88000000000E+00 0.  1.
        -11    1    4    4    0    0  0.87978036179E-01 -0.26847443247E-01  0.86268776553E-02  0.92388333667E-01  0.51100000000E-03 0.  1.
         11    1    4    4    0    0  0.40605666104E-01 -0.31271093905E-03 -0.13934445249E-02  0.40633984749E-01  0.51100000000E-03 0. -1.
</event>
<event>
 8    1  0.1091347E+005  0.1043930E+01  0.7957747E-01            NaN
         13   -1    0    0    0    0  0.00000000000E+00  0.00000000000E+00  0.74505805969E-08  0.10566000000E+00  0.10566000000E+00 0. -1.
     999900   -1    0    0    0    0 -0.00000000000E+00 -0.00000000000E+00 -0.74505805969E-08  0.93827000000E+00  0.93827000000E+00 0.  1.
     999902    2    1    2    0    0 -0.11820254161E-01  0.12953338707E-01 -0.12102187170E-01  0.10226234206E+01  0.10224014329E+01 0.  0.
     999903    2    3    3    0    0  0.90211481452E-01  0.94995235611E-01  0.94357862830E-02  0.13267666250E+00  0.18757839311E-01 0.  0.
         14    1    1    2    0    0  0.11820254161E-01 -0.12953338707E-01  0.12102187170E-01  0.21306579415E-01  0.00000000000E+00 0.  1.
     999901    1    3    3    0    0 -0.10203173561E+00 -0.82041896904E-01 -0.21537973453E-01  0.88994675808E+00  0.88000000000E+00 0.  1.
        -11    1    4    4    0    0  0.31398355093E-01  0.28195445048E-01  0.11173384423E-01  0.43657135321E-01  0.51100000000E-03 0. -1.
         11    1    4    4    0    0  0.58813126359E-01  0.66799790563E-01 -0.17375981396E-02  0.89019527182E-01  0.51100000000E-03 0.  1.
</event>
<event>
 8    1  0.1091347E+005  0.1043930E+01  0.7957747E-01            NaN
         13   -1    0    0    0    0  0.00000000000E+00  0.00000000000E+00  0.74505805969E-08  0.10566000000E+00  0.10566000000E+00 0. -1.
     999900   -1    0    0    0    0 -0.00000000000E+00 -0.00000000000E+00 -0.74505805969E-08  0.93827000000E+00  0.93827000000E+00 0.  1.
     999902    2    1    2    0    0 -0.41883432864E-02 -0.13241016282E-01 -0.16263953261E-01  0.10225434877E+01  0.10223198136E+01 0.  0.
     999903    2    3    3    0    0  0.11184442678E+00  0.30724436998E-01  0.56814965974E-01  0.13083888795E+00  0.20921458151E-01 0.  0.
         14    1    1    2    0    0  0.41883432864E-02  0.13241016282E-01  0.16263953261E-01  0.21386512276E-01  0.00000000000E+00 0. -1.
     999901    1    3    3    0    0 -0.11603277007E+00 -0.43965453280E-01 -0.73078919235E-01  0.89170459977E+00  0.88000000000E+00 0.  1.
        -11    1    4    4    0    0  0.79472302228E-01  0.11766017693E-01  0.38962163212E-01  0.89289401817E-01  0.51100000000E-03 0.  1.
         11    1    4    4    0    0  0.32372124556E-01  0.18958419305E-01  0.17852802762E-01  0.41549486137E-01  0.51100000000E-03 0. -1.
</event>
<event>
 8    1  0.1091347E+005  0.1043930E+01  0.7957747E-01            NaN
         13   -1    0    0    0    0  0.00000000000E+00  0.00000000000E+00  0.74505805969E-08  0.10566000000E+00  0.10566000000E+00 0. -1.
     999900   -1    0    0    0    0 -0.00000000000E+00 -0.00000000000E+00 -0.74505805969E-08  0.93827000000E+00  0.93827000000E+00 0.  1.
     999902    2    1    2    0    0  0.10850727037E-01  0.25620007403E-02  0.19975822311E-01  0.10210534705E+01  0.10207971660E+01 0.  0.
     999903    2    3    3    0    0  0.12477213131E-01 -0.12297350127E+00  0.39859055996E-01  0.13192066225E+00  0.23154997772E-01 0.  0.
         14    1    1    2    0    0 -0.10850727037E-01 -0.25620007403E-02 -0.19975822311E-01  0.22876529501E-01  0.00000000000E+00 0.  1.
     999901    1    3    3    0    0 -0.16264860940E-02  0.12553550201E+00 -0.19883233686E-01  0.88913280825E+00  0.88000000000E+00 0.  1.
        -11    1    4    4    0    0  0.79759023171E-02 -0.84630489931E-01  0.38414843434E-01  0.93283954466E-01  0.51100000000E-03 0. -1.
         11    1    4    4    0    0  0.45013108138E-02 -0.38343011338E-01  0.14442125623E-02  0.38636707784E-01  0.51100000000E-03 0.  1.
</event>
<event>
 8    1  0.1091347E+005  0.1043930E+01  0.7957747E-01            NaN
         13   -1    0    0    0    0  0.00000000000E+00  0.00000000000E+00  0.74505805969E-08  0.10566000000E+00  0.10566000000E+00 0. -1.
     999900   -1    0    0    0    0 -0.00000000000E+00 -0.00000000000E+00 -0.74505805969E-08  0.93827000000E+00  0.93827000000E+00 0. -1.
     999902    2    1    2    0    0  0.12824123252E-01  0.19039495660E-01  0.81876635764E-02  0.10195579183E+01  0.10192665747E+01 0.  0.
     999903    2    3    3    0    0  0.26266099077E-01  0.10852445479E+00  0.69195220674E-01  0.13281659939E+00  0.19616453820E-01 0.  0.
         14    1    1    2    0    0 -0.12824123252E-01 -0.19039495660E-01 -0.81876635764E-02  0.24372081712E-01  0.00000000000E+00 0. -1.
     999901    1    3    3    0    0 -0.13441975825E-01 -0.89484959129E-01 -0.61007557098E-01  0.88674131890E+00  0.88000000000E+00 0. -1.
        -11    1    4    4    0    0  0.34789175803E-02  0.55969664533E-01  0.34734342711E-01  0.65965459902E-01  0.51100000000E-03 0.  1.
         11    1    4    4    0    0  0.22787181497E-01  0.52554790255E-01  0.34460877963E-01  0.66851139484E-01  0.51100000000E-03 0. -1.
</event>
<event>
 8    1  0.1091347E+005  0.1043930E+01  0.7957747E-01            NaN
         13   -1    0    0    0    0  0.00000000000E+00  0.00000000000E+00  0.74505805969E-08  0.10566000000E+00  0.10566000000E+00 0. -1.
     999900   -1    0    0    0    0 -0.00000000000E+00 -0.00000000000E+00 -0.74505805969E-08  0.93827000000E+00  0.93827000000E+00 0.  1.
     999902    2    1    2    0    0 -0.19662599949E-01 -0.13468450954E-01 -0.40449034194E-03  0.10200934604E+01  0.10198149280E+01 0.  0.
     999903    2    3    3    0    0 -0.12848768989E+00 -0.24278686909E-01 -0.15625088173E-01  0.13319356300E+00  0.19945945804E-01 0.  0.
         14    1    1    2    0    0  0.19662599949E-01  0.13468450954E-01  0.40449034194E-03  0.23836539604E-01  0.00000000000E+00 0. -1.
     999901    1    3    3    0    0  0.10882508994E+00  0.10810235954E-01  0.15220597832E-01  0.88689989740E+00  0.88000000000E+00 0.  1.
        -11    1    4    4    0    0 -0.81377223455E-01 -0.24897157716E-01 -0.82256783712E-02  0.85498794525E-01  0.51100000000E-03 0.  1.
         11    1    4    4    0    0 -0.47110466432E-01  0.61847080700E-03 -0.73994098022E-02  0.47694768476E-01  0.51100000000E-03 0. -1.
</event>
<event>
 8    1  0.1091347E+005  0.1043930E+01  0.7957747E-01            NaN
         13   -1    0    0    0    0  0.00000000000E+00  0.00000000000E+00  0.74505805969E-08  0.10566000000E+00  0.10566000000E+00 0.  1.
     999900   -1    0    0    0    0 -0.00000000000E+00 -0.00000000000E+00 -0.74505805969E-08  0.93827000000E+00  0.93827000000E+00 0.  1.
     999902    2    1    2    0    0 -0.20315214866E-01 -0.41633235777E-02 -0.75067202370E-02  0.10218757018E+01  0.10216376843E+01 0.  0.
     999903    2    3    3    0    0 -0.17102146184E-01 -0.38599643360E-01  0.12309524972E+00  0.13156504905E+00  0.19352151168E-01 0.  0.
         14    1    1    2    0    0  0.20315214866E-01  0.41633235777E-02  0.75067202370E-02  0.22054298152E-01  0.00000000000E+00 0.  1.
     999901    1    3    3    0    0 -0.32130686823E-02  0.34436319782E-01 -0.13060196996E+00  0.89031065280E+00  0.88000000000E+00 0.  1.
        -11    1    4    4    0    0 -0.10275394652E-02 -0.16370652702E-01  0.68813085377E-01  0.70742886196E-01  0.51100000000E-03 0. -1.
         11    1    4    4    0    0 -0.16074606719E-01 -0.22228990658E-01  0.54282164347E-01  0.60822162852E-01  0.51100000000E-03 0.  1.
</event>
<event>
 8    1  0.1091347E+005  0.1043930E+01  0.7957747E-01            NaN
         13   -1    0    0    0    0  0.00000000000E+00  0.00000000000E+00  0.74505805969E-08  0.10566000000E+00  0.10566000000E+00 0.  1.
     999900   -1    0    0    0    0 -0.00000000000E+00 -0.00000000000E+00 -0.74505805969E-08  0.93827000000E+00  0.93827000000E+00 0. -1.
     999902    2    1    2    0    0 -0.79967720377E-02  0.21523490930E-01  0.36045178431E-02  0.10206877632E+01  0.10204231026E+01 0.  0.
     999903    2    3    3    0    0  0.82822435232E-01  0.38573974879E-01  0.92251391887E-01  0.13142002187E+00  0.20332130400E-01 0.  0.
         14    1    1    2    0    0  0.79967720377E-02 -0.21523490930E-01 -0.36045178431E-02  0.23242236849E-01  0.00000000000E+00 0.  1.
     999901    1    3    3    0    0 -0.90819207270E-01 -0.17050483949E-01 -0.88646874044E-01  0.88926774128E+00  0.88000000000E+00 0. -1.
        -11    1    4    4    0    0  0.48270663305E-01  0.32462139181E-01  0.62840040912E-01  0.85632816601E-01  0.51100000000E-03 0. -1.
         11    1    4    4    0    0  0.34551771927E-01  0.61118356980E-02  0.29411350975E-01  0.45787205266E-01  0.51100000000E-03 0.  1.
</event>
<event>
 8    1  0.1091347E+005  0.1043930E+01  0.7957747E-01            NaN
         13   -1    0    0    0    0  0.00000000000E+00  0.00000000000E+00  0.74505805969E-08  0.10566000000E+00  0.10566000000E+00 0.  1.
     999900   -1    0    0    0    0 -0.00000000000E+00 -0.00000000000E+00 -0.74505805969E-08  0.93827000000E+00  0.93827000000E+00 0.  1.
     999902    2    1    2    0    0  0.67548966828E-02 -0.20026281459E-01  0.88044720914E-02  0.10210346007E+01  0.10207778684E+01 0.  0.
     999903    2    3    3    0    0  0.92348998461E-01 -0.40510240375E-01 -0.82682178979E-01  0.13192507422E+00  0.19961598015E-01 0.  0.
         14    1    1    2    0    0 -0.67548966828E-02  0.20026281459E-01 -0.88044720914E-02  0.22895399256E-01  0.00000000000E+00 0. -1.
     999901    1    3    3    0    0 -0.85594101778E-01  0.20483958916E-01  0.91486651070E-01  0.88910952652E+00  0.88000000000E+00 0. -1.
        -11    1    4    4    0    0  0.81629593565E-01 -0.28489957503E-01 -0.66377707859E-01  0.10900151121E+00  0.51100000000E-03 0. -1.
         11    1    4    4    0    0  0.10719404896E-01 -0.12020282872E-01 -0.16304471120E-01  0.22923563012E-01  0.51100000000E-03 0.  1.
</event>
<event>
 8    1  0.1091347E+005  0.1043930E+01  0.7957747E-01            NaN
         13   -1    0    0    0    0  0.00000000000E+00  0.00000000000E+00  0.74505805969E-08  0.10566000000E+00  0.10566000000E+00 0. -1.
     999900   -1    0    0    0    0 -0.00000000000E+00 -0.00000000000E+00 -0.74505805969E-08  0.93827000000E+00  0.93827000000E+00 0. -1.
     999902    2    1    2    0    0 -0.75418127570E-02  0.11605090438E-02 -0.24936419113E-01  0.10178522179E+01  0.10175181014E+01 0.  0.
     999903    2    3    3    0    0 -0.10318078507E+00  0.32895343095E-01 -0.70332949891E-01  0.13093916821E+00  0.21678651372E-01 0.  0.
         14    1    1    2    0    0  0.75418127570E-02 -0.11605090438E-02  0.24936419113E-01  0.26077782097E-01  0.00000000000E+00 0. -1.
     999901    1    3    3    0    0  0.95638972312E-01 -0.31734834051E-01  0.45396530778E-01  0.88691304970E+00  0.88000000000E+00 0. -1.
        -11    1    4    4    0    0 -0.22202531361E-01  0.77711519854E-02 -0.53914611557E-02  0.24138603448E-01  0.51100000000E-03 0. -1.
         11    1    4    4    0    0 -0.80978253708E-01  0.25124191109E-01 -0.64941488735E-01  0.10680056476E+00  0.51100000000E-03 0.  1.
</event>
<event>
 8    1  0.1091347E+005  0.1043930E+01  0.7957747E-01            NaN
         13   -1    0    0    0    0  0.00000000000E+00  0.00000000000E+00  0.74505805969E-08  0.10566000000E+00  0.10566000000E+00 0.  1.
     999900   -1    0    0    0    0 -0.00000000000E+00 -0.00000000000E+00 -0.74505805969E-08  0.93827000000E+00  0.93827000000E+00 0.  1.
     999902    2    1    2    0    0 -0.23788999289E-01 -0.36174620083E-02 -0.46382676558E-03  0.10198630589E+01  0.10195790510E+01 0.  0.
     999903    2    3    3    0    0  0.42954494738E-01  0.11818336728E+00 -0.19196652840E-01  0.12877324593E+00  0.20040969724E-01 0.  0.
         14    1    1    2    0    0  0.23788999289E-01  0.36174620083E-02  0.46382676558E-03  0.24066941099E-01  0.00000000000E+00 0. -1.
     999901    1    3    3    0    0 -0.66743494027E-01 -0.12180082929E+00  0.18732826074E-01  0.89108981297E+00  0.88000000000E+00 0. -1.
        -11    1    4    4    0    0  0.39421965389E-01  0.95638504607E-01 -0.91993592656E-02  0.10385424522E+00  0.51100000000E-03 0.  1.
         11    1    4    4    0    0  0.35325293490E-02  0.22544862672E-01 -0.99972935744E-02  0.24919000708E-01  0.51100000000E-03 0. -1.
</event>
<event>
 8    1  0.1091347E+005  0.1043930E+01  0.7957747E-01            NaN
         13   -1    0    0    0    0  0.00000000000E+00  0.00000000000E+00  0.74505805969E-08  0.10566000000E+00  0.10566000000E+00 0. -1.
     999900   -1    0    0    0    0 -0.00000000000E+00 -0.00000000000E+00 -0.74505805969E-08  0.93827000000E+00  0.93827000000E+00 0.  1.
     999902    2    1    2    0    0 -0.24615610103E-02  0.13392394468E-01  0.19390816136E-01  0.10202357124E+01  0.10199605334E+01 0.  0.
     999903    2    3    3    0    0  0.12492522458E+00 -0.26371610898E-02  0.28709685258E-01  0.13087010646E+00  0.26257806136E-01 0.  0.
         14    1    1    2    0    0  0.24615610103E-02 -0.13392394468E-01 -0.19390816136E-01  0.23694287552E-01  0.00000000000E+00 0.  1.
     999901    1    3    3    0    0 -0.12738678559E+00  0.16029555558E-01 -0.93188691224E-02  0.88936560599E+00  0.88000000000E+00 0.  1.
        -11    1    4    4    0    0  0.51759605848E-01 -0.15736369828E-02  0.25248401036E-01  0.57613158278E-01  0.51100000000E-03 0. -1.
         11    1    4    4    0    0  0.73165618728E-01 -0.10635241070E-02  0.34612842222E-02  0.73256948181E-01  0.51100000000E-03 0.  1.
</event>
<event>
 8    1  0.1091347E+005  0.1043930E+01  0.7957747E-01            NaN
         13   -1    0    0    0    0  0.00000000000E+00  0.00000000000E+00  0.74505805969E-08  0.10566000000E+00  0.10566000000E+00 0. -1.
     999900   -1    0    0    0    0 -0.00000000000E+00 -0.00000000000E+00 -0.74505805969E-08  0.93827000000E+00  0.93827000000E+00 0.  1.
     999902    2    1    2    0    0 -0.86886926793E-02 -0.13067400065E-01 -0.19434596356E-01  0.10189509316E+01  0.10186447109E+01 0.  0.
     999903    2    3    3    0    0 -0.13784925914E-01 -0.94472177772E-02 -0.12953726631E+00  0.13206780777E+00  0.19563445024E-01 0.  0.
         14    1    1    2    0    0  0.86886926793E-02  0.13067400065E-01  0.19434596356E-01  0.24979068446E-01  0.00000000000E+00 0. -1.
     999901    1    3    3    0    0  0.50962332351E-02 -0.36201822877E-02  0.11010266995E+00  0.88688312378E+00  0.88000000000E+00 0. -1.
        -11    1    4    4    0    0  0.32818490868E-02  0.73456091154E-03 -0.48825091792E-01  0.48943445145E-01  0.51100000000E-03 0.  1.
         11    1    4    4    0    0 -0.17066775001E-01 -0.10181778689E-01 -0.80712174518E-01  0.83124362630E-01  0.51100000000E-03 0. -1.
</event>
<event>
 8    1  0.1091347E+005  0.1043930E+01  0.7957747E-01            NaN
         13   -1    0    0    0    0  0.00000000000E+00  0.00000000000E+00  0.74505805969E-08  0.10566000000E+00  0.10566000000E+00 0. -1.
     999900   -1    0    0    0    0 -0.00000000000E+00 -0.00000000000E+00 -0.74505805969E-08  0.93827000000E+00  0.93827000000E+00 0.  1.
     999902    2    1    2    0    0  0.22920891054E-02 -0.50711911647E-02  0.24916525438E-01  0.10183995497E+01  0.10180794856E+01 0.  0.
     999903    2    3    3    0    0 -0.12520963551E+00 -0.19003969421E-01  0.16341321955E-01  0.12906027462E+00  0.18732645428E-01 0.  0.
         14    1    1    2    0    0 -0.22920891054E-02  0.50711911647E-02 -0.24916525438E-01  0.25530450293E-01  0.00000000000E+00 0.  1.
     999901    1    3    3    0    0  0.12750172461E+00  0.13932778256E-01  0.85752034828E-02  0.88933927508E+00  0.88000000000E+00 0.  1.
        -11    1    4    4    0    0 -0.93018867051E-01 -0.22307385780E-01  0.12237036274E-01  0.96437208926E-01  0.51100000000E-03 0. -1.
         11    1    4    4    0    0 -0.32190768458E-01  0.33034163584E-02  0.41042856808E-02  0.32623065698E-01  0.51100000000E-03 0.  1.
</event>
<event>
 8    1  0.1091347E+005  0.1043930E+01  0.7957747E-01            NaN
         13   -1    0    0    0    0  0.00000000000E+00  0.00000000000E+00  0.74505805969E-08  0.10566000000E+00  0.10566000000E+00 0.  1.
     999900   -1    0    0    0    0 -0.00000000000E+00 -0.00000000000E+00 -0.74505805969E-08  0.93827000000E+00  0.93827000000E+00 0.  1.
     999902    2    1    2    0    0 -0.18189942228E-01  0.52231375088E-02  0.14416033995E-01  0.10201397247E+01  0.10198622851E+01 0.  0.
     999903    2    3    3    0    0 -0.39523750966E-01 -0.82747261447E-01  0.93143212259E-01  0.13200015733E+00  0.18415954463E-01 0.  0.
         14    1    1    2    0    0  0.18189942228E-01 -0.52231375088E-02 -0.14416033995E-01  0.23790275321E-01  0.00000000000E+00 0. -1.
     999901    1    3    3    0    0  0.21333808738E-01  0.87970398956E-01 -0.78727178263E-01  0.88813956735E+00  0.88000000000E+00 0.  1.
        -11    1    4    4    0    0 -0.25063112279E-01 -0.38829507574E-01  0.56535239378E-01  0.73023178978E-01  0.51100000000E-03 0.  1.
         11    1    4    4    0    0 -0.14460638687E-01 -0.43917753873E-01  0.36607972881E-01  0.58976978355E-01  0.51100000000E-03 0. -1.
</event>
<event>
 8    1  0.1091347E+005  0.1043930E+01  0.7957747E-01            NaN
         13   -1    0    0    0    0  0.00000000000E+00  0.00000000000E+00  0.74505805969E-08  0.10566000000E+00  0.10566000000E+00 0. -1.
     999900   -1    0    0    0    0 -0.00000000000E+00 -0.00000000000E+00 -0.74505805969E-08  0.93827000000E+00  0.93827000000E+00 0.  1.
     999902    2    1    2    0    0  0.93481147089E-02  0.13262419628E-01  0.16936913246E-01  0.10204749781E+01  0.10202053925E+01 0.  0.
     999903    2    3    3    0    0 -0.33630039788E-01  0.11484988055E+00 -0.49582737726E-01  0.13109766898E+00  0.20166216588E-01 0.  0.
         14    1    1    2    0    0 -0.93481147089E-02 -0.13262419628E-01 -0.16936913246E-01  0.23455021921E-01  0.00000000000E+00 0.  1.
     999901    1    3    3    0    0  0.42978154497E-01 -0.10158746093E+00  0.66519650972E-01  0.88937730910E+00  0.88000000000E+00 0. -1.
        -11    1    4    4    0    0 -0.20645084527E-01  0.40270102097E-01 -0.13447755433E-01  0.47212327683E-01  0.51100000000E-03 0.  1.
         11    1    4    4    0    0 -0.12984955261E-01  0.74579778456E-01 -0.36134982292E-01  0.83885341294E-01  0.51100000000E-03 0. -1.
</event>
<event>
 8    1  0.1091347E+005  0.1043930E+01  0.7957747E-01            NaN
         13   -1    0    0    0    0  0.00000000000E+00  0.00000000000E+00  0.74505805969E-08  0.10566000000E+00  0.10566000000E+00 0. -1.
     999900   -1    0    0    0    0 -0.00000000000E+00 -0.00000000000E+00 -0.74505805969E-08  0.93827000000E+00  0.93827000000E+00 0.  1.
     999902    2    1    2    0    0  0.22594571588E-01 -0.46285228850E-02 -0.27325219292E-02  0.10207049152E+01  0.10204406496E+01 0.  0.
     999903    2    3    3    0    0 -0.86347725180E-01 -0.92561299885E-01  0.18003668804E-01  0.12939655837E+00  0.19895058355E-01 0.  0.
         14    1    1    2    0    0 -0.22594571588E-01  0.46285228850E-02  0.27325219292E-02  0.23225084832E-01  0.00000000000E+00 0.  1.
     999901    1    3    3    0    0  0.10894229677E+00  0.87932777000E-01 -0.20736190733E-01  0.89130835680E+00  0.88000000000E+00 0.  1.
        -11    1    4    4    0    0 -0.56703302564E-01 -0.49337854586E-01  0.16530020850E-01  0.76960971454E-01  0.51100000000E-03 0.  1.
         11    1    4    4    0    0 -0.29644422615E-01 -0.43223445299E-01  0.14736479540E-02  0.52435586914E-01  0.51100000000E-03 0. -1.
</event>
<event>
 7    1  0.1091347E+005  0.1043930E+01  0.7957747E-01            NaN
         13   -1    0    0    0    0  0.00000000000E+00  0.00000000000E+00  0.74505805969E-08  0.10566000000E+00  0.10566000000E+00 0. -1.
     999900   -1    0    0    0    0 -0.00000000000E+00 -0.00000000000E+00 -0.74505805969E-08  0.93827000000E+00  0.93827000000E+00 0.  1.
     999903    2    1    2    0    0 -0.44063277348E-01 -0.69723782476E-02  0.97416009762E-01  0.10892292832E+00  0.19599461413E-01 0.  0.
         14    1    1    2    0    0 -0.12147402639E-01  0.37808927270E-01  0.20734001091E-01  0.44799254161E-01  0.00000000000E+00 0. -1.
     999901    1    1    2    0    0  0.56210679987E-01 -0.30836549022E-01 -0.11815001085E+00  0.89020781751E+00  0.88000000000E+00 0.  1.
        -11    1    3    3    0    0 -0.10019937347E-01 -0.11642947305E-02  0.45218492602E-01  0.46332795306E-01  0.51100000000E-03 0. -1.
         11    1    3    3    0    0 -0.34043340002E-01 -0.58080835171E-02  0.52197517160E-01  0.62590133018E-01  0.51100000000E-03 0.  1.
</event>
<event>
 8    1  0.1091347E+005  0.1043930E+01  0.7957747E-01            NaN
         13   -1    0    0    0    0  0.00000000000E+00  0.00000000000E+00  0.74505805969E-08  0.10566000000E+00  0.10566000000E+00 0.  1.
     999900   -1    0    0    0    0 -0.00000000000E+00 -0.00000000000E+00 -0.74505805969E-08  0.93827000000E+00  0.93827000000E+00 0.  1.
     999902    2    1    2    0    0  0.17133485863E-01  0.14219427171E-02 -0.13427765631E-01  0.10221152539E+01  0.10218824341E+01 0.  0.
     999903    2    3    3    0    0  0.10477250858E+00  0.36776522697E-01 -0.73822454884E-01  0.13499741327E+00  0.21089228723E-01 0.  0.
         14    1    1    2    0    0 -0.17133485863E-01 -0.14219427171E-02  0.13427765631E-01  0.21814746131E-01  0.00000000000E+00 0.  1.
     999901    1    3    3    0    0 -0.87639022713E-01 -0.35354579980E-01  0.60394689253E-01  0.88711784060E+00  0.88000000000E+00 0. -1.
        -11    1    4    4    0    0  0.37052523485E-01  0.12192875605E-01 -0.38304463263E-01  0.54672193472E-01  0.51100000000E-03 0.  1.
         11    1    4    4    0    0  0.67719985091E-01  0.24583647092E-01 -0.35517991621E-01  0.80325219794E-01  0.51100000000E-03 0. -1.
</event>
<event>
 8    1  0.1091347E+005  0.1043930E+01  0.7957747E-01            NaN
         13   -1    0    0    0    0  0.00000000000E+00  0.00000000000E+00  0.74505805969E-08  0.10566000000E+00  0.10566000000E+00 0. -1.
     999900   -1    0    0    0    0 -0.00000000000E+00 -0.00000000000E+00 -0.74505805969E-08  0.93827000000E+00  0.93827000000E+00 0.  1.
     999902    2    1    2    0    0 -0.10951413567E-01 -0.17083584455E-02 -0.21620284489E-01  0.10196341434E+01  0.10193446413E+01 0.  0.
     999903    2    3    3    0    0 -0.55647242312E-01  0.93657523463E-01 -0.71492908243E-01  0.13195196650E+00  0.20778312175E-01 0.  0.
         14    1    1    2    0    0  0.10951413567E-01  0.17083584455E-02  0.21620284489E-01  0.24295856623E-01  0.00000000000E+00 0. -1.
     999901    1    3    3    0    0  0.44695828745E-01 -0.95365881908E-01  0.49872623754E-01  0.88768217687E+00  0.88000000000E+00 0. -1.
        -11    1    4    4    0    0 -0.47584283065E-01  0.61618010855E-01 -0.49422875906E-01  0.92216728636E-01  0.51100000000E-03 0. -1.
         11    1    4    4    0    0 -0.80629592463E-02  0.32039512608E-01 -0.22070032337E-01  0.39735237866E-01  0.51100000000E-03 0.  1.
</event>
<event>
 8    1  0.1091347E+005  0.1043930E+01  0.7957747E-01            NaN
         13   -1    0    0    0    0  0.00000000000E+00  0.00000000000E+00  0.74505805969E-08  0.10566000000E+00  0.10566000000E+00 0.  1.
     999900   -1    0    0    0    0 -0.00000000000E+00 -0.00000000000E+00 -0.74505805969E-08  0.93827000000E+00  0.93827000000E+00 0.  1.
     999902    2    1    2    0    0 -0.15196127784E-01  0.19815903716E-01  0.85748869653E-03  0.10189434511E+01  0.10186370447E+01 0.  0.
     999903    2    3    3    0    0  0.16906240757E-01  0.75284533153E-01  0.10357247705E+00  0.13065425282E+00  0.19740665391E-01 0.  0.
         14    1    1    2    0    0  0.15196127784E-01 -0.19815903716E-01 -0.85748869653E-03  0.24986548913E-01  0.00000000000E+00 0.  1.
     999901    1    3    3    0    0 -0.32102368541E-01 -0.55468629436E-01 -0.10271498835E+00  0.88828919826E+00  0.88000000000E+00 0.  1.
        -11    1    4    4    0    0  0.69312399689E-02  0.24604165390E-01  0.20231729947E-01  0.32603543667E-01  0.51100000000E-03 0.  1.
         11    1    4    4    0    0  0.99750007881E-02  0.50680367763E-01  0.83340747104E-01  0.98050709157E-01  0.51100000000E-03 0. -1.
</event>
<event>
 8    1  0.1091347E+005  0.1043930E+01  0.7957747E-01            NaN
         13   -1    0    0    0    0  0.00000000000E+00  0.00000000000E+00  0.74505805969E-08  0.10566000000E+00  0.10566000000E+00 0.  1.
     999900   -1    0    0    0    0 -0.00000000000E+00 -0.00000000000E+00 -0.74505805969E-08  0.93827000000E+00  0.93827000000E+00 0.  1.
     999902    2    1    2    0    0  0.14798834258E-01 -0.14818862694E-01  0.11906806180E-01  0.10198390013E+01  0.10195544185E+01 0.  0.
     999903    2    3    3    0    0  0.68821856665E-01  0.85470527887E-01 -0.65066168220E-01  0.12916437627E+00  0.20203236318E-01 0.  0.
         14    1    1    2    0    0 -0.14798834258E-01  0.14818862694E-01 -0.11906806180E-01  0.24090998741E-01  0.00000000000E+00 0.  1.
     999901    1    3    3    0    0 -0.54023022407E-01 -0.10028939058E+00  0.76972974400E-01  0.89067462499E+00  0.88000000000E+00 0.  1.
        -11    1    4    4    0    0  0.29856329186E-01  0.34947520982E-01 -0.15992456539E-01  0.48669799695E-01  0.51100000000E-03 0. -1.
         11    1    4    4    0    0  0.38965527480E-01  0.50523006906E-01 -0.49073711681E-01  0.80494576573E-01  0.51100000000E-03 0.  1.
</event>
<event>
 8    1  0.1091347E+005  0.1043930E+01  0.7957747E-01            NaN
         13   -1    0    0    0    0  0.00000000000E+00  0.00000000000E+00  0.74505805969E-08  0.10566000000E+00  0.10566000000E+00 0. -1.
     999900   -1    0    0    0    0 -0.00000000000E+00 -0.00000000000E+00 -0.74505805969E-08  0.93827000000E+00  0.93827000000E+00 0. -1.
     999902    2    1    2    0    0  0.20591847582E-01 -0.75818868837E-03  0.11299429635E-01  0.10204294437E+01  0.10201587981E+01 0.  0.
     999903    2    3    3    0    0 -0.67106098602E-01 -0.10892179498E+00  0.24200499627E-02  0.12943609979E+00  0.19510545762E-01 0.  0.
         14    1    1    2    0    0 -0.20591847582E-01  0.75818868837E-03 -0.11299429635E-01  0.23500556313E-01  0.00000000000E+00 0.  1.
     999901    1    3    3    0    0  0.87697946184E-01  0.10816360629E+00  0.88793796722E-02  0.89099334390E+00  0.88000000000E+00 0. -1.
        -11    1    4    4    0    0 -0.48711004287E-01 -0.88344175043E-01 -0.44693955942E-02  0.10098362155E+00  0.51100000000E-03 0.  1.
         11    1    4    4    0    0 -0.18395094314E-01 -0.20577619934E-01  0.68894455569E-02  0.28452478241E-01  0.51100000000E-03 0. -1.
</event>
<event>
 8    1  0.1091347E+005  0.1043930E+01  0.7957747E-01            NaN
         13   -1    0    0    0    0  0.00000000000E+00  0.00000000000E+00  0.74505805969E-08  0.10566000000E+00  0.10566000000E+00 0.  1.
     999900   -1    0    0    0    0 -0.00000000000E+00 -0.00000000000E+00 -0.74505805969E-08  0.93827000000E+00  0.93827000000E+00 0. -1.
     999902    2    1    2    0    0  0.21739660791E-01 -0.10502577614E-02 -0.10435065251E-01  0.10197927574E+01  0.10195070680E+01 0.  0.
     999903    2    3    3    0    0  0.26001660136E-02  0.12236409503E+00  0.36920016318E-01  0.12971415050E+00  0.21975910025E-01 0.  0.
         14    1    1    2    0    0 -0.21739660791E-01  0.10502577614E-02  0.10435065251E-01  0.24137242582E-01  0.00000000000E+00 0. -1.
     999901    1    3    3    0    0  0.19139494777E-01 -0.12341435279E+00 -0.47355081569E-01  0.89007860691E+00  0.88000000000E+00 0. -1.
        -11    1    4    4    0    0 -0.62858193029E-02  0.72891430086E-01  0.29567060518E-01  0.78912256925E-01  0.51100000000E-03 0. -1.
         11    1    4    4    0    0  0.88859853165E-02  0.49472664940E-01  0.73529557999E-02  0.50801893580E-01  0.51100000000E-03 0.  1.
</event>
<event>
 8    1  0.1091347E+005  0.1043930E+01  0.7957747E-01            NaN
         13   -1    0    0    0    0  0.00000000000E+00  0.00000000000E+00  0.74505805969E-08  0.10566000000E+00  0.10566000000E+00 0. -1.
     999900   -1    0    0    0    0 -0.00000000000E+00 -0.00000000000E+00 -0.74505805969E-08  0.93827000000E+00  0.93827000000E+00 0.  1.
     999902    2    1    2    0    0 -0.21753802594E-01 -0.90702052709E-02 -0.46718376651E-02  0.10199024613E+01  0.10196193936E+01 0.  0.
     999903    2    3    3    0    0 -0.14839829870E-01  0.89046212819E-01  0.90361195980E-01  0.12933752146E+00  0.20337161780E-01 0.  0.
         14    1    1    2    0    0  0.21753802594E-01  0.90702052709E-02  0.46718376651E-02  0.24027538744E-01  0.00000000000E+00 0.  1.
     999901    1    3    3    0    0 -0.69139727237E-02 -0.98116418090E-01 -0.95033033645E-01  0.89056493980E+00  0.88000000000E+00 0.  1.
        -11    1    4    4    0    0 -0.54828655163E-02  0.20546426908E-01  0.34146589672E-01  0.40230189909E-01  0.51100000000E-03 0. -1.
         11    1    4    4    0    0 -0.93569643538E-02  0.68499785911E-01  0.56214606309E-01  0.89107331546E-01  0.51100000000E-03 0.  1.
</event>
<event>
 8    1  0.1091347E+005  0.1043930E+01  0.7957747E-01            NaN
         13   -1    0    0    0    0  0.00000000000E+00  0.00000000000E+00  0.74505805969E-08  0.10566000000E+00  0.10566000000E+00 0. -1.
     999900   -1    0    0    0    0 -0.00000000000E+00 -0.00000000000E+00 -0.74505805969E-08  0.93827000000E+00  0.93827000000E+00 0.  1.
     999902    2    1    2    0    0 -0.48286692876E-02  0.17404611978E-01  0.14438117634E-01  0.10208065096E+01  0.10205445773E+01 0.  0.
     999903    2    3    3    0    0 -0.23223177975E-01 -0.24942805678E-01 -0.12272381486E+00  0.12898530702E+00  0.20362100644E-01 0.  0.
         14    1    1    2    0    0  0.48286692876E-02 -0.17404611978E-01 -0.14438117634E-01  0.23123490351E-01  0.00000000000E+00 0. -1.
     999901    1    3    3    0    0  0.18394508688E-01  0.42347417657E-01  0.13716193250E+00  0.89182120263E+00  0.88000000000E+00 0. -1.
        -11    1    4    4    0    0 -0.58253326903E-02 -0.15652781892E-01 -0.82600681550E-01  0.84273826277E-01  0.51100000000E-03 0.  1.
         11    1    4    4    0    0 -0.17397845285E-01 -0.92900237864E-02 -0.40123133312E-01  0.44711480743E-01  0.51100000000E-03 0. -1.
</event>
<event>
 8    1  0.1091347E+005  0.1043930E+01  0.7957747E-01            NaN
         13   -1    0    0    0    0  0.00000000000E+00  0.00000000000E+00  0.74505805969E-08  0.10566000000E+00  0.10566000000E+00 0.  1.
     999900   -1    0    0    0    0 -0.00000000000E+00 -0.00000000000E+00 -0.74505805969E-08  0.93827000000E+00  0.93827000000E+00 0.  1.
     999902    2    1    2    0    0  0.93803082824E-02  0.21141782279E-01  0.43147431248E-02  0.10204016735E+01  0.10201303804E+01 0.  0.
     999903    2    3    3    0    0 -0.41895120340E-01  0.12443143871E+00  0.39989742749E-02  0.13287814002E+00  0.20055529181E-01 0.  0.
         14    1    1    2    0    0 -0.93803082824E-02 -0.21141782279E-01 -0.43147431248E-02  0.23528326537E-01  0.00000000000E+00 0. -1.
     999901    1    3    3    0    0  0.51275428622E-01 -0.10328965644E+00  0.31576884989E-03  0.88752353344E+00  0.88000000000E+00 0.  1.
        -11    1    4    4    0    0 -0.62624522898E-02  0.15951713122E-01 -0.62213496379E-02  0.18238469577E-01  0.51100000000E-03 0. -1.
         11    1    4    4    0    0 -0.35632668050E-01  0.10847972559E+00  0.10220323913E-01  0.11463967044E+00  0.51100000000E-03 0.  1.
</event>
<event>
 8    1  0.1091347E+005  0.1043930E+01  0.7957747E-01            NaN
         13   -1    0    0    0    0  0.00000000000E+00  0.00000000000E+00  0.74505805969E-08  0.10566000000E+00  0.10566000000E+00 0. -1.
     999900   -1    0    0    0    0 -0.00000000000E+00 -0.00000000000E+00 -0.74505805969E-08  0.93827000000E+00  0.93827000000E+00 0. -1.
     999902    2    1    2    0    0  0.23490629537E-01 -0.58881710976E-02  0.25666941097E-02  0.10195770094E+01  0.10192861276E+01 0.  0.
     999903    2    3    3    0    0 -0.29111344261E-01 -0.12489848575E+00  0.68643226769E-02  0.12999908008E+00  0.20138018456E-01 0.  0.
         14    1    1    2    0    0 -0.23490629537E-01  0.58881710976E-02 -0.25666941097E-02  0.24352990649E-01  0.00000000000E+00 0.  1.
     999901    1    3    3    0    0  0.52601973798E-01  0.11901031465E+00 -0.42976285672E-02  0.88957792927E+00  0.88000000000E+00 0.  1.
        -11    1    4    4    0    0 -0.18773038844E-01 -0.10227876867E+00  0.11743184189E-01  0.10464959152E+00  0.51100000000E-03 0. -1.
         11    1    4    4    0    0 -0.10338305418E-01 -0.22619717079E-01 -0.48788615122E-02  0.25349488561E-01  0.51100000000E-03 0.  1.
</event>
<event>
 8    1  0.1091347E+005  0.1043930E+01  0.7957747E-01            NaN
         13   -1    0    0    0    0  0.00000000000E+00  0.00000000000E+00  0.74505805969E-08  0.10566000000E+00  0.10566000000E+00 0. -1.
     999900   -1    0    0    0    0 -0.00000000000E+00 -0.00000000000E+00 -0.74505805969E-08  0.93827000000E+00  0.93827000000E+00 0. -1.
     999902    2    1    2    0    0 -0.66862754655E-02  0.12304761128E-01  0.18742263224E-01  0.10205337213E+01  0.10202655000E+01 0.  0.
     999903    2    3    3    0    0  0.35109065408E-01  0.66313327643E-01  0.10846892249E+00  0.13333890101E+00  0.19587023242E-01 0.  0.
         14    1    1    2    0    0  0.66862754655E-02 -0.12304761128E-01 -0.18742263224E-01  0.23396278695E-01  0.00000000000E+00 0.  1.
     999901    1    3    3    0    0 -0.41795340874E-01 -0.54008566515E-01 -0.89726659266E-01  0.88719482030E+00  0.88000000000E+00 0. -1.
        -11    1    4    4    0    0  0.89678837738E-02  0.34950541301E-01  0.59408387903E-01  0.69509574526E-01  0.51100000000E-03 0.  1.
         11    1    4    4    0    0  0.26141181634E-01  0.31362786342E-01  0.49060534587E-01  0.63829326484E-01  0.51100000000E-03 0. -1.
</event>
<event>
 7    1  0.1091347E+005  0.1043930E+01  0.7957747E-01            NaN
         13   -1    0    0    0    0  0.00000000000E+00  0.00000000000E+00  0.74505805969E-08  0.10566000000E+00  0.10566000000E+00 0. -1.
     999900   -1    0    0    0    0 -0.00000000000E+00 -0.00000000000E+00 -0.74505805969E-08  0.93827000000E+00  0.93827000000E+00 0. -1.
     999902    2    1    2    0    0 -0.77459195633E-02 -0.10910907191E-01 -0.19398000103E-01  0.10203645682E+01  0.10200924088E+01 0.  0.
         14    1    1    2    0    0  0.77459195633E-02  0.10910907191E-01  0.19398000103E-01  0.23565431751E-01  0.00000000000E+00 0. -1.
     999901    1    3    3    0    0  0.74533597156E-01  0.46808903679E-01  0.68216345862E-01  0.88701736196E+00  0.88000000000E+00 0.  1.
        -11    1    3    3    0    0 -0.27337959384E-01 -0.18763571451E-01 -0.28024984841E-01  0.43417698386E-01  0.51100000000E-03 0. -1.
         11    1    3    3    0    0 -0.54941557336E-01 -0.38956239420E-01 -0.59589361123E-01  0.89929507907E-01  0.51100000000E-03 0.  1.
</event>
<event>
 8    1  0.1091347E+005  0.1043930E+01  0.7957747E-01            NaN
         13   -1    0    0    0    0  0.00000000000E+00  0.00000000000E+00  0.74505805969E-08  0.10566000000E+00  0.10566000000E+00 0. -1.
     999900   -1    0    0    0    0 -0.00000000000E+00 -0.00000000000E+00 -0.74505805969E-08  0.93827000000E+00  0.93827000000E+00 0.  1.
     999902    2    1    2    0    0  0.29622257050E-03  0.19723887381E-01  0.14288473774E-01  0.10195726610E+01  0.10192816741E+01 0.  0.
     999903    2    3    3    0    0 -0.92228571658E-01 -0.85732088206E-01 -0.12815695217E-01  0.12804787932E+00  0.19388578526E-01 0.  0.
         14    1    1    2    0    0 -0.29622257050E-03 -0.19723887381E-01 -0.14288473774E-01  0.24357339018E-01  0.00000000000E+00 0. -1.
     999901    1    3    3    0    0  0.92524794228E-01  0.10545597559E+00  0.27104168991E-01  0.89152478166E+00  0.88000000000E+00 0.  1.
        -11    1    4    4    0    0 -0.92927562904E-02 -0.18235073202E-01 -0.19895075412E-02  0.20569211833E-01  0.51100000000E-03 0. -1.
         11    1    4    4    0    0 -0.82935815367E-01 -0.67497015004E-01 -0.10826187675E-01  0.10747866749E+00  0.51100000000E-03 0.  1.
</event>
<event>
 8    1  0.1091347E+005  0.1043930E+01  0.7957747E-01            NaN
         13   -1    0    0    0    0  0.00000000000E+00  0.00000000000E+00  0.74505805969E-08  0.10566000000E+00  0.10566000000E+00 0. -1.
     999900   -1    0    0    0    0 -0.00000000000E+00 -0.00000000000E+00 -0.74505805969E-08  0.93827000000E+00  0.93827000000E+00 0.  1.
     999902    2    1    2    0    0 -0.10331157861E-01  0.58378651267E-02 -0.19577759265E-01  0.10210367226E+01  0.10207800384E+01 0.  0.
     999903    2    3    3    0    0  0.44468859010E-01 -0.72660941111E-01  0.94025897289E-01  0.12858454170E+00  0.20881168963E-01 0.  0.
         14    1    1    2    0    0  0.10331157861E-01 -0.58378651267E-02  0.19577759265E-01  0.22893277394E-01  0.00000000000E+00 0.  1.
     999901    1    3    3    0    0 -0.54800016871E-01  0.78498806237E-01 -0.11360365655E+00  0.89245218091E+00  0.88000000000E+00 0.  1.
        -11    1    4    4    0    0  0.31909794434E-02 -0.15567214753E-01  0.27044543309E-01  0.31371786190E-01  0.51100000000E-03 0. -1.
         11    1    4    4    0    0  0.41277879567E-01 -0.57093726358E-01  0.66981353980E-01  0.97212755505E-01  0.51100000000E-03 0.  1.
</event>
<event>
 8    1  0.1091347E+005  0.1043930E+01  0.7957747E-01            NaN
         13   -1    0    0    0    0  0.00000000000E+00  0.00000000000E+00  0.74505805969E-08  0.10566000000E+00  0.10566000000E+00 0.  1.
     999900   -1    0    0    0    0 -0.00000000000E+00 -0.00000000000E+00 -0.74505805969E-08  0.93827000000E+00  0.93827000000E+00 0. -1.
     999902    2    1    2    0    0 -0.83303570172E-03  0.19673266525E-01  0.48111420931E-02  0.10236598630E+01  0.10234591525E+01 0.  0.
     999903    2    3    3    0    0  0.37545117977E-01  0.12873650631E+00  0.72764938888E-02  0.13609366781E+00  0.22041213988E-01 0.  0.
         14    1    1    2    0    0  0.83303570172E-03 -0.19673266525E-01 -0.48111420931E-02  0.20270136962E-01  0.00000000000E+00 0.  1.
     999901    1    3    3    0    0 -0.38378153679E-01 -0.10906323978E+00 -0.24653517957E-02  0.88756619523E+00  0.88000000000E+00 0. -1.
        -11    1    4    4    0    0  0.22773538565E-01  0.69553041842E-01  0.14676473283E-01  0.74645292398E-01  0.51100000000E-03 0.  1.
         11    1    4    4    0    0  0.14771579412E-01  0.59183464467E-01 -0.73999793943E-02  0.61448375411E-01  0.51100000000E-03 0. -1.
</event>
<event>
 8    1  0.1091347E+005  0.1043930E+01  0.7957747E-01            NaN
         13   -1    0    0    0    0  0.00000000000E+00  0.00000000000E+00  0.74505805969E-08  0.10566000000E+00  0.10566000000E+00 0. -1.
     999900   -1    0    0    0    0 -0.00000000000E+00 -0.00000000000E+00 -0.74505805969E-08  0.93827000000E+00  0.93827000000E+00 0. -1.
     999902    2    1    2    0    0  0.50324064697E-02  0.12943344106E-01  0.18518486132E-01  0.10207828706E+01  0.10205203963E+01 0.  0.
     999903    2    3    3    0    0 -0.11245626173E+00  0.36150579115E-01 -0.50243436093E-01  0.13001333537E+00  0.20634663367E-01 0.  0.
         14    1    1    2    0    0 -0.50324064697E-02 -0.12943344106E-01 -0.18518486132E-01  0.23147129415E-01  0.00000000000E+00 0.  1.
     999901    1    3    3    0    0  0.11748866820E+00 -0.23207235010E-01  0.68761922226E-01  0.89076953521E+00  0.88000000000E+00 0.  1.
        -11    1    4    4    0    0 -0.78568227098E-01  0.15764150251E-01 -0.29852808362E-01  0.85515647870E-01  0.51100000000E-03 0.  1.
         11    1    4    4    0    0 -0.33888034631E-01  0.20386428864E-01 -0.20390627732E-01  0.44497687505E-01  0.51100000000E-03 0. -1.
</event>
<event>
 8    1  0.1091347E+005  0.1043930E+01  0.7957747E-01            NaN
         13   -1    0    0    0    0  0.00000000000E+00  0.00000000000E+00  0.74505805969E-08  0.10566000000E+00  0.10566000000E+00 0. -1.
     999900   -1    0    0    0    0 -0.00000000000E+00 -0.00000000000E+00 -0.74505805969E-08  0.93827000000E+00  0.93827000000E+00 0. -1.
     999902    2    1    2    0    0 -0.89309287871E-02  0.67428011860E-02 -0.20418415723E-01  0.10206461310E+01  0.10203805104E+01 0.  0.
     999903    2    3    3    0    0  0.90476731082E-01 -0.31458111228E-01  0.82789500041E-01  0.12823755501E+00  0.20374434198E-01 0.  0.
         14    1    1    2    0    0  0.89309287871E-02 -0.67428011860E-02  0.20418415723E-01  0.23283869040E-01  0.00000000000E+00 0. -1.
     999901    1    3    3    0    0 -0.99407659869E-01  0.38200912414E-01 -0.10320791576E+00  0.89240857595E+00  0.88000000000E+00 0. -1.
        -11    1    4    4    0    0  0.97069308739E-02 -0.29539176785E-02  0.18626745313E-01  0.21217136909E-01  0.51100000000E-03 0. -1.
         11    1    4    4    0    0  0.80769800208E-01 -0.28504193550E-01  0.64162754728E-01  0.10702041810E+00  0.51100000000E-03 0.  1.
</event>
<event>
 8    1  0.1091347E+005  0.1043930E+01  0.7957747E-01            NaN
         13   -1    0    0    0    0  0.00000000000E+00  0.00000000000E+00  0.74505805969E-08  0.10566000000E+00  0.10566000000E+00 0. -1.
     999900   -1    0    0    0    0 -0.00000000000E+00 -0.00000000000E+00 -0.74505805969E-08  0.93827000000E+00  0.93827000000E+00 0. -1.
     999902    2    1    2    0    0 -0.13340654031E-01 -0.13952842569E-01 -0.14462670588E-01  0.10198089779E+01  0.10195236769E+01 0.  0.
     999903    2    3    3    0    0 -0.72014740086E-01 -0.10470476525E+00  0.28788108922E-01  0.13214395677E+00  0.22001350835E-01 0.  0.
         14    1    1    2    0    0  0.13340654031E-01  0.13952842569E-01  0.14462670588E-01  0.24121022082E-01  0.00000000000E+00 0. -1.
     999901    1    3    3    0    0  0.58674086055E-01  0.90751922685E-01 -0.43250779510E-01  0.88766502115E+00  0.88000000000E+00 0. -1.
        -11    1    4    4    0    0 -0.69386878301E-01 -0.91245531514E-01  0.21589436046E-01  0.11664754936E+00  0.51100000000E-03 0. -1.
         11    1    4    4    0    0 -0.26278617850E-02 -0.13459233739E-01  0.71986728760E-02  0.15496407409E-01  0.51100000000E-03 0.  1.
</event>
<event>
 8    1  0.1091347E+005  0.1043930E+01  0.7957747E-01            NaN
         13   -1    0    0    0    0  0.00000000000E+00  0.00000000000E+00  0.74505805969E-08  0.10566000000E+00  0.10566000000E+00 0. -1.
     999900   -1    0    0    0    0 -0.00000000000E+00 -0.00000000000E+00 -0.74505805969E-08  0.93827000000E+00  0.93827000000E+00 0.  1.
     999902    2    1    2    0    0 -0.22021356880E-01 -0.13156737296E-02 -0.72448512099E-02  0.10207102019E+01  0.10204460579E+01 0.  0.
     999903    2    3    3    0    0 -0.93413524788E-01 -0.46263593033E-01  0.79354191228E-01  0.13244416557E+00  0.19441262172E-01 0.  0.
         14    1    1    2    0    0  0.22021356880E-01  0.13156737296E-02  0.72448512099E-02  0.23219798131E-01  0.00000000000E+00 0. -1.
     999901    1    3    3    0    0  0.71392167908E-01  0.44947919304E-01 -0.86599042437E-01  0.88826603630E+00  0.88000000000E+00 0.  1.
        -11    1    4    4    0    0 -0.21168409061E-01 -0.52377701960E-02  0.90810555683E-02  0.23627578590E-01  0.51100000000E-03 0.  1.
         11    1    4    4    0    0 -0.72245115727E-01 -0.41025822837E-01  0.70273135659E-01  0.10881658698E+00  0.51100000000E-03 0. -1.
</event>
<event>
 8    1  0.1091347E+005  0.1043930E+01  0.7957747E-01            NaN
         13   -1    0    0    0    0  0.00000000000E+00  0.00000000000E+00  0.74505805969E-08  0.10566000000E+00  0.10566000000E+00 0.  1.
     999900   -1    0    0    0    0 -0.00000000000E+00 -0.00000000000E+00 -0.74505805969E-08  0.93827000000E+00  0.93827000000E+00 0. -1.
     999902    2    1    2    0    0  0.19263052581E-01  0.14792227328E-01  0.23634536859E-02  0.10195279284E+01  0.10192358587E+01 0.  0.
     999903    2    3    3    0    0 -0.68077100530E-01 -0.98474385593E-01  0.38521886605E-01  0.12724710927E+00  0.19395742729E-01 0.  0.
         14    1    1    2    0    0 -0.19263052581E-01 -0.14792227328E-01 -0.23634536859E-02  0.24402071580E-01  0.00000000000E+00 0.  1.
     999901    1    3    3    0    0  0.87340153112E-01  0.11326661292E+00 -0.36158432919E-01  0.89228081915E+00  0.88000000000E+00 0. -1.
        -11    1    4    4    0    0 -0.18561172625E-01 -0.42704263179E-01  0.17661889792E-01  0.49803360277E-01  0.51100000000E-03 0.  1.
         11    1    4    4    0    0 -0.49515927905E-01 -0.55770122414E-01  0.20859996813E-01  0.77443748995E-01  0.51100000000E-03 0. -1.
</event>
<event>
 8    1  0.1091347E+005  0.1043930E+01  0.7957747E-01            NaN
         13   -1    0    0    0    0  0.00000000000E+00  0.00000000000E+00  0.74505805969E-08  0.10566000000E+00  0.10566000000E+00 0. -1.
     999900   -1    0    0    0    0 -0.00000000000E+00 -0.00000000000E+00 -0.74505805969E-08  0.93827000000E+00  0.93827000000E+00 0. -1.
     999902    2    1    2    0    0 -0.29164080464E-02 -0.87893672182E-02 -0.54816366305E-02  0.10331686454E+01  0.10331125995E+01 0.  0.
     999903    2    3    3    0    0 -0.87092924699E-01  0.85693247465E-01  0.67844265477E-01  0.14109839127E+00  0.19426823422E-01 0.  0.
         14    1    1    2    0    0  0.29164080464E-02  0.87893672182E-02  0.54816366305E-02  0.10761354568E-01  0.00000000000E+00 0.  1.
     999901    1    3    3    0    0  0.84176516653E-01 -0.94482614683E-01 -0.73325902108E-01  0.89207025416E+00  0.88000000000E+00 0. -1.
        -11    1    4    4    0    0 -0.60205134824E-01  0.50178769338E-01  0.35465985088E-01  0.86027114160E-01  0.51100000000E-03 0.  1.
         11    1    4    4    0    0 -0.26887789875E-01  0.35514478127E-01  0.32378280389E-01  0.55071277114E-01  0.51100000000E-03 0. -1.
</event>
<event>
 8    1  0.1091347E+005  0.1043930E+01  0.7957747E-01            NaN
         13   -1    0    0    0    0  0.00000000000E+00  0.00000000000E+00  0.74505805969E-08  0.10566000000E+00  0.10566000000E+00 0. -1.
     999900   -1    0    0    0    0 -0.00000000000E+00 -0.00000000000E+00 -0.74505805969E-08  0.93827000000E+00  0.93827000000E+00 0.  1.
     999902    2    1    2    0    0 -0.52225821991E-02 -0.18514174006E-01 -0.14086707525E-01  0.10200870695E+01  0.10198083860E+01 0.  0.
     999903    2    3    3    0    0 -0.52457894435E-01 -0.12039759466E+00  0.68172804111E-02  0.13270418553E+00  0.17790841943E-01 0.  0.
         14    1    1    2    0    0  0.52225821991E-02  0.18514174006E-01  0.14086707525E-01  0.23842930458E-01  0.00000000000E+00 0. -1.
     999901    1    3    3    0    0  0.47235312236E-01  0.10188342065E+00 -0.20903987936E-01  0.88738288401E+00  0.88000000000E+00 0.  1.
        -11    1    4    4    0    0 -0.53068874984E-01 -0.11782530398E+00  0.47568813869E-02  0.12931355997E+00  0.51100000000E-03 0. -1.
         11    1    4    4    0    0  0.61098054884E-03 -0.25722906760E-02  0.20603990242E-02  0.33906255606E-02  0.51100000000E-03 0.  1.
</event>
<event>
 8    1  0.1091347E+005  0.1043930E+01  0.7957747E-01            NaN
         13   -1    0    0    0    0  0.00000000000E+00  0.00000000000E+00  0.74505805969E-08  0.10566000000E+00  0.10566000000E+00 0.  1.
     999900   -1    0    0    0    0 -0.00000000000E+00 -0.00000000000E+00 -0.74505805969E-08  0.93827000000E+00  0.93827000000E+00 0. -1.
     999902    2    1    2    0    0  0.84727556110E-02 -0.22402102792E-01  0.99037711516E-04  0.10199789749E+01  0.10196977285E+01 0.  0.
     999903    2    3    3    0    0 -0.10686341391E+00  0.39458637637E-01  0.56264861416E-01  0.12852859319E+00  0.19418839361E-01 0.  0.
         14    1    1    2    0    0 -0.84727556110E-02  0.22402102792E-01 -0.99037711516E-04  0.23951025147E-01  0.00000000000E+00 0. -1.
     999901    1    3    3    0    0  0.11533616952E+00 -0.61860740429E-01 -0.56165823705E-01  0.89145038166E+00  0.88000000000E+00 0.  1.
        -11    1    4    4    0    0 -0.78368277213E-01  0.37712522085E-01  0.43695617452E-01  0.97331337712E-01  0.51100000000E-03 0. -1.
         11    1    4    4    0    0 -0.28495136696E-01  0.17461155520E-02  0.12569243965E-01  0.31197255483E-01  0.51100000000E-03 0.  1.
</event>
<event>
 8    1  0.1091347E+005  0.1043930E+01  0.7957747E-01            NaN
         13   -1    0    0    0    0  0.00000000000E+00  0.00000000000E+00  0.74505805969E-08  0.10566000000E+00  0.10566000000E+00 0.  1.
     999900   -1    0    0    0    0 -0.00000000000E+00 -0.00000000000E+00 -0.74505805969E-08  0.93827000000E+00  0.93827000000E+00 0.  1.
     999902    2    1    2    0    0  0.21109991223E-01  0.58458124440E-02 -0.82863593730E-04  0.10220253859E+01  0.10217906230E+01 0.  0.
     999903    2    3    3    0    0 -0.45563706177E-01  0.12172879792E+00  0.10752504858E-01  0.13186155072E+00  0.19439666544E-01 0.  0.
         14    1    1    2    0    0 -0.21109991223E-01 -0.58458124440E-02  0.82863593730E-04  0.21904614101E-01  0.00000000000E+00 0.  1.
     999901    1    3    3    0    0  0.66673697400E-01 -0.11588298547E+00 -0.10835368452E-01  0.89016383518E+00  0.88000000000E+00 0.  1.
        -11    1    4    4    0    0 -0.11768436670E-01  0.23709423453E-01  0.96328661169E-02  0.28172434981E-01  0.51100000000E-03 0.  1.
         11    1    4    4    0    0 -0.33795269507E-01  0.98019374464E-01  0.11196387412E-02  0.10368911574E+00  0.51100000000E-03 0. -1.
</event>
<event>
 8    1  0.1091347E+005  0.1043930E+01  0.7957747E-01            NaN
         13   -1    0    0    0    0  0.00000000000E+00  0.00000000000E+00  0.74505805969E-08  0.10566000000E+00  0.10566000000E+00 0. -1.
     999900   -1    0    0    0    0 -0.00000000000E+00 -0.00000000000E+00 -0.74505805969E-08  0.93827000000E+00  0.93827000000E+00 0.  1.
     999902    2    1    2    0    0  0.22534508455E-01  0.58387974082E-02  0.38987084487E-02  0.10203271283E+01  0.10200540932E+01 0.  0.
     999903    2    3    3    0    0  0.30515050995E-01 -0.11836408023E+00  0.41899539947E-01  0.13075750926E+00  0.20018265459E-01 0.  0.
         14    1    1    2    0    0 -0.22534508455E-01 -0.58387974082E-02 -0.38987084487E-02  0.23602871733E-01  0.00000000000E+00 0. -1.
     999901    1    3    3    0    0 -0.79805425400E-02  0.12420287764E+00 -0.38000831499E-01  0.88956961901E+00  0.88000000000E+00 0. -1.
        -11    1    4    4    0    0  0.17420228709E-01 -0.98608438944E-01  0.34776232021E-01  0.10600347180E+00  0.51100000000E-03 0. -1.
         11    1    4    4    0    0  0.13094822286E-01 -0.19755641290E-01  0.71233079267E-02  0.24754037454E-01  0.51100000000E-03 0.  1.
</event>
<event>
 7    1  0.1091347E+005  0.1043930E+01  0.7957747E-01            NaN
         13   -1    0    0    0    0  0.00000000000E+00  0.00000000000E+00  0.74505805969E-08  0.10566000000E+00  0.10566000000E+00 0.  1.
     999900   -1    0    0    0    0 -0.00000000000E+00 -0.00000000000E+00 -0.74505805969E-08  0.93827000000E+00  0.93827000000E+00 0.  1.
     999902    2    1    2    0    0 -0.69862677532E-02  0.26508279654E-02 -0.21104238604E-01  0.10215419739E+01  0.10212966174E+01 0.  0.
         14    1    1    2    0    0  0.69862677532E-02 -0.26508279654E-02  0.21104238604E-01  0.22388026109E-01  0.00000000000E+00 0.  1.
     999901    1    3    3    0    0 -0.11622202247E-01 -0.10352103415E+00 -0.85171289264E-01  0.89022796441E+00  0.88000000000E+00 0.  1.
        -11    1    3    3    0    0 -0.14660882305E-01  0.82114543824E-01  0.42023246410E-01  0.93402109918E-01  0.51100000000E-03 0. -1.
         11    1    3    3    0    0  0.19296816799E-01  0.24057318290E-01  0.22043804251E-01  0.37911899566E-01  0.51100000000E-03 0.  1.
</event>
<event>
 8    1  0.1091347E+005  0.1043930E+01  0.7957747E-01            NaN
         13   -1    0    0    0    0  0.00000000000E+00  0.00000000000E+00  0.74505805969E-08  0.10566000000E+00  0.10566000000E+00 0. -1.
     999900   -1    0    0    0    0 -0.00000000000E+00 -0.00000000000E+00 -0.74505805969E-08  0.93827000000E+00  0.93827000000E+00 0. -1.
     999902    2    1    2    0    0  0.13958314217E-01  0.72361567393E-02 -0.17386499205E-01  0.10204888640E+01  0.10202196013E+01 0.  0.
     999903    2    3    3    0    0  0.58164965673E-01  0.79768635673E-02  0.11366283702E+00  0.12968658228E+00  0.21273822389E-01 0.  0.
         14    1    1    2    0    0 -0.13958314217E-01 -0.72361567393E-02  0.17386499205E-01  0.23441135953E-01  0.00000000000E+00 0. -1.
     999901    1    3    3    0    0 -0.44206651456E-01 -0.74070682807E-03 -0.13104933623E+00  0.89080228177E+00  0.88000000000E+00 0. -1.
        -11    1    4    4    0    0  0.17397571634E-01  0.16932940230E-02  0.56835956907E-01  0.59465366912E-01  0.51100000000E-03 0. -1.
         11    1    4    4    0    0  0.40767394039E-01  0.62835695444E-02  0.56826880114E-01  0.70221215366E-01  0.51100000000E-03 0.  1.
</event>
<event>
 8    1  0.1091347E+005  0.1043930E+01  0.7957747E-01            NaN
         13   -1    0    0    0    0  0.00000000000E+00  0.00000000000E+00  0.74505805969E-08  0.10566000000E+00  0.10566000000E+00 0.  1.
     999900   -1    0    0    0    0 -0.00000000000E+00 -0.00000000000E+00 -0.74505805969E-08  0.93827000000E+00  0.93827000000E+00 0. -1.
     999902    2    1    2    0    0  0.12152049146E-01 -0.60194209736E-02 -0.19642268779E-01  0.10200610987E+01  0.10197818005E+01 0.  0.
     999903    2    3    3    0    0 -0.33109408782E-02 -0.12570130924E+00  0.28236104706E-01  0.13053583368E+00  0.20749573260E-01 0.  0.
         14    1    1    2    0    0 -0.12152049146E-01  0.60194209736E-02  0.19642268779E-01  0.23868901317E-01  0.00000000000E+00 0. -1.
     999901    1    3    3    0    0  0.15462990024E-01  0.11968188827E+00 -0.47878373485E-01  0.88952526501E+00  0.88000000000E+00 0.  1.
        -11    1    4    4    0    0 -0.11018956421E-01 -0.54018876193E-01  0.84924740529E-02  0.55783865250E-01  0.51100000000E-03 0. -1.
         11    1    4    4    0    0  0.77080155430E-02 -0.71682433046E-01  0.19743630653E-01  0.74751968425E-01  0.51100000000E-03 0.  1.
</event>
<event>
 8    1  0.1091347E+005  0.1043930E+01  0.7957747E-01            NaN
         13   -1    0    0    0    0  0.00000000000E+00  0.00000000000E+00  0.74505805969E-08  0.10566000000E+00  0.10566000000E+00 0. -1.
     999900   -1    0    0    0    0 -0.00000000000E+00 -0.00000000000E+00 -0.74505805969E-08  0.93827000000E+00  0.93827000000E+00 0.  1.
     999902    2    1    2    0    0 -0.16281239405E-01 -0.16229524147E-01  0.70838839209E-02  0.10198746966E+01  0.10195909666E+01 0.  0.
     999903    2    3    3    0    0 -0.72563775491E-01 -0.63483637493E-01  0.89527610419E-01  0.13297129535E+00  0.19248340624E-01 0.  0.
         14    1    1    2    0    0  0.16281239405E-01  0.16229524147E-01 -0.70838839209E-02  0.24055303407E-01  0.00000000000E+00 0. -1.
     999901    1    3    3    0    0  0.56282536086E-01  0.47254113346E-01 -0.82443726499E-01  0.88690340124E+00  0.88000000000E+00 0.  1.
        -11    1    4    4    0    0 -0.44146358820E-01 -0.40267951135E-01  0.67585341527E-01  0.90213349323E-01  0.51100000000E-03 0. -1.
         11    1    4    4    0    0 -0.28417416671E-01 -0.23215686358E-01  0.21942268892E-01  0.42757946027E-01  0.51100000000E-03 0.  1.
</event>
<event>
 8    1  0.1091347E+005  0.1043930E+01  0.7957747E-01            NaN
         13   -1    0    0    0    0  0.00000000000E+00  0.00000000000E+00  0.74505805969E-08  0.10566000000E+00  0.10566000000E+00 0. -1.
     999900   -1    0    0    0    0 -0.00000000000E+00 -0.00000000000E+00 -0.74505805969E-08  0.93827000000E+00  0.93827000000E+00 0. -1.
     999902    2    1    2    0    0  0.40172699444E-02 -0.38371725369E-02  0.28408219134E-01  0.10149836830E+01  0.10145708391E+01 0.  0.
     999903    2    3    3    0    0 -0.35280571599E-01  0.29257875620E-01  0.12008507025E+00  0.12873075775E+00  0.71022444896E-02 0.  0.
         14    1    1    2    0    0 -0.40172699444E-02  0.38371725369E-02 -0.28408219134E-01  0.28946316955E-01  0.00000000000E+00 0.  1.
     999901    1    3    3    0    0  0.39297841544E-01 -0.33095048157E-01 -0.91676851112E-01  0.88625292529E+00  0.88000000000E+00 0. -1.
        -11    1    4    4    0    0 -0.23699814394E-01  0.17225432390E-01  0.84027016290E-01  0.88989871957E-01  0.51100000000E-03 0. -1.
         11    1    4    4    0    0 -0.11580757205E-01  0.12032443230E-01  0.36058053956E-01  0.39740885794E-01  0.51100000000E-03 0.  1.
</event>
<event>
 8    1  0.1091347E+005  0.1043930E+01  0.7957747E-01            NaN
         13   -1    0    0    0    0  0.00000000000E+00  0.00000000000E+00  0.74505805969E-08  0.10566000000E+00  0.10566000000E+00 0.  1.
     999900   -1    0    0    0    0 -0.00000000000E+00 -0.00000000000E+00 -0.74505805969E-08  0.93827000000E+00  0.93827000000E+00 0. -1.
     999902    2    1    2    0    0  0.11454992769E-01  0.10979888671E-01 -0.17440312111E-01  0.10203516349E+01  0.10200791732E+01 0.  0.
     999903    2    3    3    0    0  0.11038587992E-01 -0.12526322073E+00  0.18077106415E-01  0.12915926213E+00  0.23293954681E-01 0.  0.
         14    1    1    2    0    0 -0.11454992769E-01 -0.10979888671E-01  0.17440312111E-01  0.23578365106E-01  0.00000000000E+00 0.  1.
     999901    1    3    3    0    0  0.41640477666E-03  0.13624310940E+00 -0.35517418526E-01  0.89119237276E+00  0.88000000000E+00 0. -1.
        -11    1    4    4    0    0  0.16614492060E-01 -0.80299377469E-01  0.57598766740E-02  0.82203823929E-01  0.51100000000E-03 0. -1.
         11    1    4    4    0    0 -0.55759040674E-02 -0.44963843263E-01  0.12317229741E-01  0.46955438201E-01  0.51100000000E-03 0.  1.
</event>
<event>
 8    1  0.1091347E+005  0.1043930E+01  0.7957747E-01            NaN
         13   -1    0    0    0    0  0.00000000000E+00  0.00000000000E+00  0.74505805969E-08  0.10566000000E+00  0.10566000000E+00 0.  1.
     999900   -1    0    0    0    0 -0.00000000000E+00 -0.00000000000E+00 -0.74505805969E-08  0.93827000000E+00  0.93827000000E+00 0.  1.
     999902    2    1    2    0    0  0.97286742048E-02 -0.22959536019E-01 -0.34793147516E-02  0.10187527677E+01  0.10184416079E+01 0.  0.
     999903    2    3    3    0    0  0.11795739098E+00 -0.41593691823E-01  0.34132754199E-01  0.13112933704E+00  0.19643748051E-01 0.  0.
         14    1    1    2    0    0 -0.97286742048E-02  0.22959536019E-01  0.34793147516E-02  0.25177232317E-01  0.00000000000E+00 0. -1.
     999901    1    3    3    0    0 -0.10822871677E+00  0.18634155804E-01 -0.37612068951E-01  0.88762343064E+00  0.88000000000E+00 0. -1.
        -11    1    4    4    0    0  0.76232353220E-01 -0.30783587529E-01  0.31158908540E-01  0.87921212691E-01  0.51100000000E-03 0. -1.
         11    1    4    4    0    0  0.41725037758E-01 -0.10810104294E-01  0.29738456590E-02  0.43208124349E-01  0.51100000000E-03 0.  1.
</event>
<event>
 8    1  0.1091347E+005  0.1043930E+01  0.7957747E-01            NaN
         13   -1    0    0    0    0  0.00000000000E+00  0.00000000000E+00  0.74505805969E-08  0.10566000000E+00  0.10566000000E+00 0.  1.
     999900   -1    0    0    0    0 -0.00000000000E+00 -0.00000000000E+00 -0.74505805969E-08  0.93827000000E+00  0.93827000000E+00 0. -1.
     999902    2    1    2    0    0  0.92799874253E-02  0.12852345204E-01  0.15632944325E-01  0.10216659058E+01  0.10214232879E+01 0.  0.
     999903    2    3    3    0    0  0.78622625302E-01 -0.41920071749E-01 -0.93277018012E-01  0.13055996426E+00  0.20161660495E-01 0.  0.
         14    1    1    2    0    0 -0.92799874253E-02 -0.12852345204E-01 -0.15632944325E-01  0.22264094235E-01  0.00000000000E+00 0. -1.
     999901    1    3    3    0    0 -0.69342637876E-01  0.54772416953E-01  0.10890996234E+00  0.89110594150E+00  0.88000000000E+00 0.  1.
        -11    1    4    4    0    0  0.34710385173E-01 -0.11672779237E-01 -0.27032709126E-01  0.45520249315E-01  0.51100000000E-03 0.  1.
         11    1    4    4    0    0  0.43912240129E-01 -0.30247292512E-01 -0.66244308886E-01  0.85039714946E-01  0.51100000000E-03 0. -1.
</event>
<event>
 8    1  0.1091347E+005  0.1043930E+01  0.7957747E-01            NaN
         13   -1    0    0    0    0  0.00000000000E+00  0.00000000000E+00  0.74505805969E-08  0.10566000000E+00  0.10566000000E+00 0. -1.
     999900   -1    0    0    0    0 -0.00000000000E+00 -0.00000000000E+00 -0.74505805969E-08  0.93827000000E+00  0.93827000000E+00 0. -1.
     999902    2    1    2    0    0  0.67832259059E-02 -0.14345289386E-01  0.17633170403E-01  0.10202081076E+01  0.10199322794E+01 0.  0.
     999903    2    3    3    0    0 -0.64626871020E-02 -0.37866376751E-01 -0.12134966443E+00  0.12889170802E+00  0.20290454025E-01 0.  0.
         14    1    1    2    0    0 -0.67832259059E-02  0.14345289386E-01 -0.17633170403E-01  0.23721892414E-01  0.00000000000E+00 0.  1.
     999901    1    3    3    0    0  0.13245913008E-01  0.23521087365E-01  0.13898283484E+00  0.89131639957E+00  0.88000000000E+00 0.  1.
        -11    1    4    4    0    0  0.58373683682E-02 -0.11212835838E-01 -0.22958801639E-01  0.26213932378E-01  0.51100000000E-03 0.  1.
         11    1    4    4    0    0 -0.12300055470E-01 -0.26653540913E-01 -0.98390862794E-01  0.10267777564E+00  0.51100000000E-03 0. -1.
</event>
<event>
 8    1  0.1091347E+005  0.1043930E+01  0.7957747E-01            NaN
         13   -1    0    0    0    0  0.00000000000E+00  0.00000000000E+00  0.74505805969E-08  0.10566000000E+00  0.10566000000E+00 0. -1.
     999900   -1    0    0    0    0 -0.00000000000E+00 -0.00000000000E+00 -0.74505805969E-08  0.93827000000E+00  0.93827000000E+00 0.  1.
     999902    2    1    2    0    0 -0.16636229569E-01 -0.16154156772E-01  0.57133002716E-02  0.10200477322E+01  0.10197681174E+01 0.  0.
     999903    2    3    3    0    0 -0.12876087196E+00  0.25762249312E-01  0.11228971966E-01  0.13192648869E+00  0.59542396142E-02 0.  0.
         14    1    1    2    0    0  0.16636229569E-01  0.16154156772E-01 -0.57133002716E-02  0.23882267801E-01  0.00000000000E+00 0.  1.
     999901    1    3    3    0    0  0.11212464239E+00 -0.41916406084E-01 -0.55156716941E-02  0.88812124351E+00  0.88000000000E+00 0. -1.
        -11    1    4    4    0    0 -0.90103929671E-01  0.20269058170E-01  0.94169600876E-02  0.92835839629E-01  0.51100000000E-03 0.  1.
         11    1    4    4    0    0 -0.38656942293E-01  0.54931911416E-02  0.18120118781E-02  0.39090649066E-01  0.51100000000E-03 0. -1.
</event>
<event>
 8    1  0.1091347E+005  0.1043930E+01  0.7957747E-01            NaN
         13   -1    0    0    0    0  0.00000000000E+00  0.00000000000E+00  0.74505805969E-08  0.10566000000E+00  0.10566000000E+00 0. -1.
     999900   -1    0    0    0    0 -0.00000000000E+00 -0.00000000000E+00 -0.74505805969E-08  0.93827000000E+00  0.93827000000E+00 0. -1.
     999902    2    1    2    0    0 -0.15729088428E-01 -0.14555393549E-01 -0.11135370334E-01  0.10197792200E+01  0.10194932061E+01 0.  0.
     999903    2    3    3    0    0 -0.95924712300E-01 -0.18645283010E-01 -0.87802964248E-01  0.13280346762E+00  0.19447454128E-01 0.  0.
         14    1    1    2    0    0  0.15729088428E-01  0.14555393549E-01  0.11135370334E-01  0.24150780041E-01  0.00000000000E+00 0. -1.
     999901    1    3    3    0    0  0.80195623873E-01  0.40898894611E-02  0.76667593914E-01  0.88697575234E+00  0.88000000000E+00 0.  1.
        -11    1    4    4    0    0 -0.29802030105E-01 -0.83368927048E-02 -0.39927576650E-01  0.50518682450E-01  0.51100000000E-03 0.  1.
         11    1    4    4    0    0 -0.66122682196E-01 -0.10308390305E-01 -0.47875387599E-01  0.82284785168E-01  0.51100000000E-03 0. -1.
</event>
<event>
 8    1  0.1091347E+005  0.1043930E+01  0.7957747E-01            NaN
         13   -1    0    0    0    0  0.00000000000E+00  0.00000000000E+00  0.74505805969E-08  0.10566000000E+00  0.10566000000E+00 0.  1.
     999900   -1    0    0    0    0 -0.00000000000E+00 -0.00000000000E+00 -0.74505805969E-08  0.93827000000E+00  0.93827000000E+00 0.  1.
     999902    2    1    2    0    0 -0.73404582624E-02  0.81911543313E-02 -0.21028497575E-01  0.10201986906E+01  0.10199226408E+01 0.  0.
     999903    2    3    3    0    0  0.92727808097E-01 -0.41391443316E-01 -0.80995450008E-01  0.13111594566E+00  0.17872613404E-01 0.  0.
         14    1    1    2    0    0  0.73404582624E-02 -0.81911543313E-02  0.21028497575E-01  0.23731309426E-01  0.00000000000E+00 0.  1.
     999901    1    3    3    0    0 -0.10006826636E+00  0.49582597647E-01  0.59966952433E-01  0.88908274492E+00  0.88000000000E+00 0. -1.
        -11    1    4    4    0    0  0.37005190759E-01 -0.87858432659E-02 -0.36404722025E-01  0.52651116719E-01  0.51100000000E-03 0.  1.
         11    1    4    4    0    0  0.55722617338E-01 -0.32605600050E-01 -0.44590727982E-01  0.78464828940E-01  0.51100000000E-03 0. -1.
</event>
<event>
 8    1  0.1091347E+005  0.1043930E+01  0.7957747E-01            NaN
         13   -1    0    0    0    0  0.00000000000E+00  0.00000000000E+00  0.74505805969E-08  0.10566000000E+00  0.10566000000E+00 0.  1.
     999900   -1    0    0    0    0 -0.00000000000E+00 -0.00000000000E+00 -0.74505805969E-08  0.93827000000E+00  0.93827000000E+00 0.  1.
     999902    2    1    2    0    0  0.47534582320E-02 -0.98643852644E-02 -0.21126693784E-01  0.10201342304E+01  0.10198566612E+01 0.  0.
     999903    2    3    3    0    0  0.78360988722E-01  0.10199095831E+00 -0.22216961477E-03  0.12975976670E+00  0.17174037542E-01 0.  0.
         14    1    1    2    0    0 -0.47534582320E-02  0.98643852644E-02  0.21126693784E-01  0.23795769626E-01  0.00000000000E+00 0.  1.
     999901    1    3    3    0    0 -0.73607530490E-01 -0.11185534357E+00 -0.20904524170E-01  0.89037446367E+00  0.88000000000E+00 0.  1.
        -11    1    4    4    0    0  0.48618844052E-01  0.72293714731E-01 -0.60094925206E-02  0.87330111118E-01  0.51100000000E-03 0. -1.
         11    1    4    4    0    0  0.29742144670E-01  0.29697243575E-01  0.57873229058E-02  0.42429655583E-01  0.51100000000E-03 0.  1.
</event>
<event>
 8    1  0.1091347E+005  0.1043930E+01  0.7957747E-01            NaN
         13   -1    0    0    0    0  0.00000000000E+00  0.00000000000E+00  0.74505805969E-08  0.10566000000E+00  0.10566000000E+00 0.  1.
     999900   -1    0    0    0    0 -0.00000000000E+00 -0.00000000000E+00 -0.74505805969E-08  0.93827000000E+00  0.93827000000E+00 0. -1.
     999902    2    1    2    0    0  0.18356786763E-01  0.45498660179E-02 -0.14701112469E-01  0.10199759688E+01  0.10196946511E+01 0.  0.
     999903    2    3    3    0    0  0.32197132290E-01  0.11310417869E+00  0.53496856039E-01  0.13057923123E+00  0.18968696747E-01 0.  0.
         14    1    1    2    0    0 -0.18356786763E-01 -0.45498660179E-02  0.14701112469E-01  0.23954031161E-01  0.00000000000E+00 0.  1.
     999901    1    3    3    0    0 -0.13840345528E-01 -0.10855431268E+00 -0.68197968508E-01  0.88939673761E+00  0.88000000000E+00 0. -1.
        -11    1    4    4    0    0  0.58345789549E-02  0.80029517602E-02  0.91631610044E-02  0.13502377163E-01  0.51100000000E-03 0. -1.
         11    1    4    4    0    0  0.26362553336E-01  0.10510122693E+00  0.44333695035E-01  0.11707685406E+00  0.51100000000E-03 0.  1.
</event>
<event>
 8    1  0.1091347E+005  0.1043930E+01  0.7957747E-01            NaN
         13   -1    0    0    0    0  0.00000000000E+00  0.00000000000E+00  0.74505805969E-08  0.10566000000E+00  0.10566000000E+00 0.  1.
     999900   -1    0    0    0    0 -0.00000000000E+00 -0.00000000000E+00 -0.74505805969E-08  0.93827000000E+00  0.93827000000E+00 0.  1.
     999902    2    1    2    0    0 -0.15404328385E-01 -0.83892980258E-02  0.19983730505E-01  0.10173400933E+01  0.10169925478E+01 0.  0.
     999903    2    3    3    0    0  0.47966072592E-01  0.10400519161E+00 -0.47041606553E-01  0.12540919639E+00  0.19918076981E-01 0.  0.
         14    1    1    2    0    0  0.15404328385E-01  0.83892980258E-02 -0.19983730505E-01  0.26589906717E-01  0.00000000000E+00 0. -1.
     999901    1    3    3    0    0 -0.63370400977E-01 -0.11239448964E+00  0.67025337058E-01  0.89193089689E+00  0.88000000000E+00 0. -1.
        -11    1    4    4    0    0  0.48749029225E-01  0.94778229157E-01 -0.40311086159E-01  0.11395010031E+00  0.51100000000E-03 0. -1.
         11    1    4    4    0    0 -0.78295663336E-03  0.92269624541E-02 -0.67305203942E-02  0.11459096081E-01  0.51100000000E-03 0.  1.
</event>
<event>
 8    1  0.1091347E+005  0.1043930E+01  0.7957747E-01            NaN
         13   -1    0    0    0    0  0.00000000000E+00  0.00000000000E+00  0.74505805969E-08  0.10566000000E+00  0.10566000000E+00 0.  1.
     999900   -1    0    0    0    0 -0.00000000000E+00 -0.00000000000E+00 -0.74505805969E-08  0.93827000000E+00  0.93827000000E+00 0. -1.
     999902    2    1    2    0    0 -0.18268529224E-02 -0.23513648871E-01  0.31008736545E-02  0.10201425140E+01  0.10198651402E+01 0.  0.
     999903    2    3    3    0    0  0.53430275030E-01 -0.19735583623E-02  0.11773486985E+00  0.13072794315E+00  0.19225148089E-01 0.  0.
         14    1    1    2    0    0  0.18268529224E-02  0.23513648871E-01 -0.31008736545E-02  0.23787486043E-01  0.00000000000E+00 0. -1.
     999901    1    3    3    0    0 -0.55257127952E-01 -0.21540090509E-01 -0.11463399619E+00  0.88941457081E+00  0.88000000000E+00 0. -1.
        -11    1    4    4    0    0  0.40518879284E-01  0.60461091560E-02  0.76542727636E-01  0.86818116136E-01  0.51100000000E-03 0. -1.
         11    1    4    4    0    0  0.12911395746E-01 -0.80196675183E-02  0.41192142210E-01  0.43909827010E-01  0.51100000000E-03 0.  1.
</event>
<event>
 8    1  0.1091347E+005  0.1043930E+01  0.7957747E-01            NaN
         13   -1    0    0    0    0  0.00000000000E+00  0.00000000000E+00  0.74505805969E-08  0.10566000000E+00  0.10566000000E+00 0. -1.
     999900   -1    0    0    0    0 -0.00000000000E+00 -0.00000000000E+00 -0.74505805969E-08  0.93827000000E+00  0.93827000000E+00 0.  1.
     999902    2    1    2    0    0  0.95045387569E-02  0.91902211073E-02  0.20383749445E-01  0.10196340402E+01  0.10193445356E+01 0.  0.
     999903    2    3    3    0    0 -0.10922498695E+00 -0.42462361345E-01 -0.45965869660E-01  0.12768843564E+00  0.21408538426E-01 0.  0.
         14    1    1    2    0    0 -0.95045387569E-02 -0.91902211073E-02 -0.20383749445E-01  0.24295959796E-01  0.00000000000E+00 0.  1.
     999901    1    3    3    0    0  0.11872952570E+00  0.51652582452E-01  0.66349619106E-01  0.89194560457E+00  0.88000000000E+00 0. -1.
        -11    1    4    4    0    0 -0.76385093222E-01 -0.21643389863E-01 -0.23592084213E-01  0.82824913823E-01  0.51100000000E-03 0.  1.
         11    1    4    4    0    0 -0.32839893726E-01 -0.20818971481E-01 -0.22373785447E-01  0.44863521815E-01  0.51100000000E-03 0. -1.
</event>
<event>
 8    1  0.1091347E+005  0.1043930E+01  0.7957747E-01            NaN
         13   -1    0    0    0    0  0.00000000000E+00  0.00000000000E+00  0.74505805969E-08  0.10566000000E+00  0.10566000000E+00 0. -1.
     999900   -1    0    0    0    0 -0.00000000000E+00 -0.00000000000E+00 -0.74505805969E-08  0.93827000000E+00  0.93827000000E+00 0. -1.
     999902    2    1    2    0    0 -0.15178020705E-01  0.21235799317E-02 -0.11615117908E-01  0.10247000008E+01  0.10245195454E+01 0.  0.
     999903    2    3    3    0    0 -0.25590596886E-01  0.94225643576E-01  0.89618554673E-01  0.13406008013E+00  0.20180911447E-01 0.  0.
         14    1    1    2    0    0  0.15178020705E-01 -0.21235799317E-02  0.11615117908E-01  0.19229999175E-01  0.00000000000E+00 0.  1.
     999901    1    3    3    0    0  0.10412576181E-01 -0.92102063644E-01 -0.10123367258E+00  0.89063992069E+00  0.88000000000E+00 0.  1.
        -11    1    4    4    0    0 -0.17838288051E-01  0.37939966829E-01  0.47336452913E-01  0.63234851933E-01  0.51100000000E-03 0. -1.
         11    1    4    4    0    0 -0.77523088350E-02  0.56285676747E-01  0.42282101760E-01  0.70825228198E-01  0.51100000000E-03 0.  1.
</event>
<event>
 8    1  0.1091347E+005  0.1043930E+01  0.7957747E-01            NaN
         13   -1    0    0    0    0  0.00000000000E+00  0.00000000000E+00  0.74505805969E-08  0.10566000000E+00  0.10566000000E+00 0. -1.
     999900   -1    0    0    0    0 -0.00000000000E+00 -0.00000000000E+00 -0.74505805969E-08  0.93827000000E+00  0.93827000000E+00 0.  1.
     999902    2    1    2    0    0  0.18667516344E-01 -0.14031709968E-01  0.32761575409E-02  0.10203482643E+01  0.10200757237E+01 0.  0.
     999903    2    3    3    0    0  0.99015986044E-01 -0.87085553359E-01  0.99785980528E-02  0.13364782822E+00  0.19341935568E-01 0.  0.
         14    1    1    2    0    0 -0.18667516344E-01  0.14031709968E-01 -0.32761575409E-02  0.23581735715E-01  0.00000000000E+00 0.  1.
     999901    1    3    3    0    0 -0.80348469700E-01  0.73053843391E-01 -0.67024405118E-02  0.88670043607E+00  0.88000000000E+00 0. -1.
        -11    1    4    4    0    0  0.46798512302E-01 -0.53572465775E-01  0.28835128058E-02  0.71194702121E-01  0.51100000000E-03 0.  1.
         11    1    4    4    0    0  0.52217473742E-01 -0.33513087584E-01  0.70950852470E-02  0.62453126095E-01  0.51100000000E-03 0. -1.
</event>
<event>
 8    1  0.1091347E+005  0.1043930E+01  0.7957747E-01            NaN
         13   -1    0    0    0    0  0.00000000000E+00  0.00000000000E+00  0.74505805969E-08  0.10566000000E+00  0.10566000000E+00 0. -1.
     999900   -1    0    0    0    0 -0.00000000000E+00 -0.00000000000E+00 -0.74505805969E-08  0.93827000000E+00  0.93827000000E+00 0.  1.
     999902    2    1    2    0    0 -0.10665084550E-01 -0.22913697311E-01 -0.21937799931E-02  0.10185608411E+01  0.10182448590E+01 0.  0.
     999903    2    3    3    0    0 -0.54847314139E-01  0.16883196740E-02  0.11533131190E+00  0.12930864072E+00  0.20207294941E-01 0.  0.
         14    1    1    2    0    0  0.10665084550E-01  0.22913697311E-01  0.21937799931E-02  0.25369158906E-01  0.00000000000E+00 0.  1.
     999901    1    3    3    0    0  0.44182229589E-01 -0.24602016985E-01 -0.11752509189E+00  0.88925220038E+00  0.88000000000E+00 0.  1.
        -11    1    4    4    0    0 -0.31956962302E-01  0.10896053809E-01  0.68678556753E-01  0.76530887273E-01  0.51100000000E-03 0.  1.
         11    1    4    4    0    0 -0.22890351837E-01 -0.92077341350E-02  0.46652755144E-01  0.52777753444E-01  0.51100000000E-03 0. -1.
</event>
<event>
 8    1  0.1091347E+005  0.1043930E+01  0.7957747E-01            NaN
         13   -1    0    0    0    0  0.00000000000E+00  0.00000000000E+00  0.74505805969E-08  0.10566000000E+00  0.10566000000E+00 0. -1.
     999900   -1    0    0    0    0 -0.00000000000E+00 -0.00000000000E+00 -0.74505805969E-08  0.93827000000E+00  0.93827000000E+00 0.  1.
     999902    2    1    2    0    0  0.78499031054E-02 -0.45502943088E-02  0.22825792929E-01  0.10193669591E+01  0.10190709761E+01 0.  0.
     999903    2    3    3    0    0  0.65968755872E-01 -0.60885644414E-01  0.94796183629E-01  0.13272655289E+00  0.23897342232E-01 0.  0.
         14    1    1    2    0    0 -0.78499031054E-02  0.45502943088E-02 -0.22825792929E-01  0.24563040934E-01  0.00000000000E+00 0.  1.
     999901    1    3    3    0    0 -0.58118852767E-01  0.56335350105E-01 -0.71970390700E-01  0.88664040617E+00  0.88000000000E+00 0.  1.
        -11    1    4    4    0    0  0.20725278939E-01 -0.28020202238E-01  0.23167816418E-01  0.41853049580E-01  0.51100000000E-03 0.  1.
         11    1    4    4    0    0  0.45243476934E-01 -0.32865442175E-01  0.71628367211E-01  0.90873503315E-01  0.51100000000E-03 0. -1.
</event>
<event>
 8    1  0.1091347E+005  0.1043930E+01  0.7957747E-01            NaN
         13   -1    0    0    0    0  0.00000000000E+00  0.00000000000E+00  0.74505805969E-08  0.10566000000E+00  0.10566000000E+00 0. -1.
     999900   -1    0    0    0    0 -0.00000000000E+00 -0.00000000000E+00 -0.74505805969E-08  0.93827000000E+00  0.93827000000E+00 0.  1.
     999902    2    1    2    0    0 -0.10874027205E-01 -0.12851567482E-01 -0.19575654651E-01  0.10181111404E+01  0.10177837102E+01 0.  0.
     999903    2    3    3    0    0  0.11495470162E+00 -0.52870273616E-01 -0.21660115234E-02  0.12809009489E+00  0.19812408884E-01 0.  0.
         14    1    1    2    0    0  0.10874027205E-01  0.12851567482E-01  0.19575654651E-01  0.25818859569E-01  0.00000000000E+00 0. -1.
     999901    1    3    3    0    0 -0.12582872882E+00  0.40018706134E-01 -0.17409643128E-01  0.89002104554E+00  0.88000000000E+00 0.  1.
        -11    1    4    4    0    0  0.57721652160E-01 -0.15867575447E-01  0.80523360242E-03  0.59870515287E-01  0.51100000000E-03 0. -1.
         11    1    4    4    0    0  0.57233049459E-01 -0.37002698169E-01 -0.29712451259E-02  0.68219579600E-01  0.51100000000E-03 0.  1.
</event>
<event>
 8    1  0.1091347E+005  0.1043930E+01  0.7957747E-01            NaN
         13   -1    0    0    0    0  0.00000000000E+00  0.00000000000E+00  0.74505805969E-08  0.10566000000E+00  0.10566000000E+00 0. -1.
     999900   -1    0    0    0    0 -0.00000000000E+00 -0.00000000000E+00 -0.74505805969E-08  0.93827000000E+00  0.93827000000E+00 0.  1.
     999902    2    1    2    0    0  0.21691321132E-01  0.81974576665E-02  0.93713528192E-03  0.10207224593E+01  0.10204585973E+01 0.  0.
     999903    2    3    3    0    0 -0.41462864319E-01  0.11333344304E+00  0.46655640032E-01  0.13104150058E+00  0.20772281976E-01 0.  0.
         14    1    1    2    0    0 -0.21691321132E-01 -0.81974576665E-02 -0.93713528192E-03  0.23207540739E-01  0.00000000000E+00 0.  1.
     999901    1    3    3    0    0  0.63154185450E-01 -0.10513598538E+00 -0.45718504750E-01  0.88968095868E+00  0.88000000000E+00 0. -1.
        -11    1    4    4    0    0 -0.36151427952E-01  0.92832838673E-01  0.29848442266E-01  0.10400025147E+00  0.51100000000E-03 0. -1.
         11    1    4    4    0    0 -0.53114363667E-02  0.20500604369E-01  0.16807197766E-01  0.27041249112E-01  0.51100000000E-03 0.  1.
</event>
<event>
 8    1  0.1091347E+005  0.1043930E+01  0.7957747E-01            NaN
         13   -1    0    0    0    0  0.00000000000E+00  0.00000000000E+00  0.74505805969E-08  0.10566000000E+00  0.10566000000E+00 0.  1.
     999900   -1    0    0    0    0 -0.00000000000E+00 -0.00000000000E+00 -0.74505805969E-08  0.93827000000E+00  0.93827000000E+00 0.  1.
     999902    2    1    2    0    0 -0.18901059241E-01  0.10750441141E-01  0.41207350080E-02  0.10217985183E+01  0.10215588135E+01 0.  0.
     999903    2    3    3    0    0  0.47038688648E-01  0.11382742622E+00  0.44904729692E-01  0.13239633176E+00  0.18521142643E-01 0.  0.
         14    1    1    2    0    0  0.18901059241E-01 -0.10750441141E-01 -0.41207350080E-02  0.22131481698E-01  0.00000000000E+00 0.  1.
     999901    1    3    3    0    0 -0.65939747889E-01 -0.10307698508E+00 -0.40783994684E-01  0.88940218654E+00  0.88000000000E+00 0. -1.
        -11    1    4    4    0    0  0.20520856662E-01  0.42027529627E-01  0.26164796902E-01  0.53593623899E-01  0.51100000000E-03 0.  1.
         11    1    4    4    0    0  0.26517831986E-01  0.71799896594E-01  0.18739932789E-01  0.78802707860E-01  0.51100000000E-03 0. -1.
</event>
<event>
 8    1  0.1091347E+005  0.1043930E+01  0.7957747E-01            NaN
         13   -1    0    0    0    0  0.00000000000E+00  0.00000000000E+00  0.74505805969E-08  0.10566000000E+00  0.10566000000E+00 0. -1.
     999900   -1    0    0    0    0 -0.00000000000E+00 -0.00000000000E+00 -0.74505805969E-08  0.93827000000E+00  0.93827000000E+00 0. -1.
     999902    2    1    2    0    0  0.68299024332E-03  0.14675132885E-02 -0.24043575264E-01  0.10198320004E+01  0.10195472503E+01 0.  0.
     999903    2    3    3    0    0  0.54417645943E-01  0.10204964207E+00  0.54866628372E-01  0.12897230437E+00  0.15751150702E-01 0.  0.
         14    1    1    2    0    0 -0.68299024332E-03 -0.14675132885E-02  0.24043575264E-01  0.24097999552E-01  0.00000000000E+00 0. -1.
     999901    1    3    3    0    0 -0.53734655700E-01 -0.10058212879E+00 -0.78910203637E-01  0.89085969608E+00  0.88000000000E+00 0. -1.
        -11    1    4    4    0    0  0.19634429267E-01  0.25037625851E-01  0.19812252689E-01  0.37485730599E-01  0.51100000000E-03 0.  1.
         11    1    4    4    0    0  0.34783216676E-01  0.77012016224E-01  0.35054375683E-01  0.91486573773E-01  0.51100000000E-03 0. -1.
</event>
<event>
 8    1  0.1091347E+005  0.1043930E+01  0.7957747E-01            NaN
         13   -1    0    0    0    0  0.00000000000E+00  0.00000000000E+00  0.74505805969E-08  0.10566000000E+00  0.10566000000E+00 0. -1.
     999900   -1    0    0    0    0 -0.00000000000E+00 -0.00000000000E+00 -0.74505805969E-08  0.93827000000E+00  0.93827000000E+00 0.  1.
     999902    2    1    2    0    0 -0.39693754742E-02  0.87995021599E-02 -0.16826305430E-01  0.10245312440E+01  0.10243475769E+01 0.  0.
     999903    2    3    3    0    0 -0.98273256853E-01 -0.55844499360E-01 -0.71570105866E-01  0.13544803492E+00  0.21157717030E-01 0.  0.
         14    1    1    2    0    0  0.39693754742E-02 -0.87995021599E-02  0.16826305430E-01  0.19398756000E-01  0.00000000000E+00 0.  1.
     999901    1    3    3    0    0  0.94303881378E-01  0.64644001519E-01  0.54743800437E-01  0.88908320908E+00  0.88000000000E+00 0. -1.
        -11    1    4    4    0    0 -0.14207973355E-01 -0.43528052186E-02 -0.25019327662E-02  0.15077606199E-01  0.51100000000E-03 0.  1.
         11    1    4    4    0    0 -0.84065283497E-01 -0.51491694141E-01 -0.69068173100E-01  0.12037042872E+00  0.51100000000E-03 0. -1.
</event>
<event>
 8    1  0.1091347E+005  0.1043930E+01  0.7957747E-01            NaN
         13   -1    0    0    0    0  0.00000000000E+00  0.00000000000E+00  0.74505805969E-08  0.10566000000E+00  0.10566000000E+00 0.  1.
     999900   -1    0    0    0    0 -0.00000000000E+00 -0.00000000000E+00 -0.74505805969E-08  0.93827000000E+00  0.93827000000E+00 0.  1.
     999902    2    1    2    0    0 -0.50952017406E-02 -0.98276564671E-03 -0.18749487764E-01  0.10244756894E+01  0.10242909587E+01 0.  0.
     999903    2    3    3    0    0 -0.12054816762E-01 -0.10884797446E+00 -0.77581209157E-01  0.13591251723E+00  0.21451530838E-01 0.  0.
         14    1    1    2    0    0  0.50952017406E-02  0.98276564671E-03  0.18749487764E-01  0.19454310589E-01  0.00000000000E+00 0.  1.
     999901    1    3    3    0    0  0.69596150212E-02  0.10786520881E+00  0.58831721393E-01  0.88856317218E+00  0.88000000000E+00 0. -1.
        -11    1    4    4    0    0 -0.16937290829E-01 -0.55724732035E-01 -0.40770964949E-01  0.71096063779E-01  0.51100000000E-03 0.  1.
         11    1    4    4    0    0  0.48824740675E-02 -0.53123242422E-01 -0.36810244208E-01  0.64816453452E-01  0.51100000000E-03 0. -1.
</event>
<event>
 8    1  0.1091347E+005  0.1043930E+01  0.7957747E-01            NaN
         13   -1    0    0    0    0  0.00000000000E+00  0.00000000000E+00  0.74505805969E-08  0.10566000000E+00  0.10566000000E+00 0.  1.
     999900   -1    0    0    0    0 -0.00000000000E+00 -0.00000000000E+00 -0.74505805969E-08  0.93827000000E+00  0.93827000000E+00 0. -1.
     999902    2    1    2    0    0  0.18759376635E-01 -0.17015251402E-02  0.14538000674E-01  0.10201358229E+01  0.10198582913E+01 0.  0.
     999903    2    3    3    0    0  0.22656640050E-01 -0.12149629927E+00  0.40972969603E-01  0.13161751463E+00  0.19227892408E-01 0.  0.
         14    1    1    2    0    0 -0.18759376635E-01  0.17015251402E-02 -0.14538000674E-01  0.23794177084E-01  0.00000000000E+00 0. -1.
     999901    1    3    3    0    0 -0.38972634150E-02  0.11979477413E+00 -0.26434968930E-01  0.88851830828E+00  0.88000000000E+00 0.  1.
        -11    1    4    4    0    0  0.24886483160E-01 -0.10709167439E+00  0.40011828586E-01  0.11700073211E+00  0.51100000000E-03 0. -1.
         11    1    4    4    0    0 -0.22298431105E-02 -0.14404624880E-01  0.96114101740E-03  0.14616782521E-01  0.51100000000E-03 0.  1.
</event>
<event>
 8    1  0.1091347E+005  0.1043930E+01  0.7957747E-01            NaN
         13   -1    0    0    0    0  0.00000000000E+00  0.00000000000E+00  0.74505805969E-08  0.10566000000E+00  0.10566000000E+00 0.  1.
     999900   -1    0    0    0    0 -0.00000000000E+00 -0.00000000000E+00 -0.74505805969E-08  0.93827000000E+00  0.93827000000E+00 0. -1.
     999902    2    1    2    0    0 -0.72674489208E-02 -0.61029173418E-03 -0.21890491674E-01  0.10208565977E+01  0.10205958118E+01 0.  0.
     999903    2    3    3    0    0  0.35531457667E-01  0.12333137434E+00  0.12549201086E-01  0.13047500787E+00  0.19827578025E-01 0.  0.
         14    1    1    2    0    0  0.72674489208E-02  0.61029173418E-03  0.21890491674E-01  0.23073402340E-01  0.00000000000E+00 0.  1.
     999901    1    3    3    0    0 -0.42798906588E-01 -0.12394166608E+00 -0.34439692760E-01  0.89038158979E+00  0.88000000000E+00 0.  1.
        -11    1    4    4    0    0  0.23338430015E-01  0.46057044190E-01  0.45663035424E-02  0.51836723316E-01  0.51100000000E-03 0.  1.
         11    1    4    4    0    0  0.12193027652E-01  0.77274330152E-01  0.79828975438E-02  0.78638284557E-01  0.51100000000E-03 0. -1.
</event>
<event>
 8    1  0.1091347E+005  0.1043930E+01  0.7957747E-01            NaN
         13   -1    0    0    0    0  0.00000000000E+00  0.00000000000E+00  0.74505805969E-08  0.10566000000E+00  0.10566000000E+00 0. -1.
     999900   -1    0    0    0    0 -0.00000000000E+00 -0.00000000000E+00 -0.74505805969E-08  0.93827000000E+00  0.93827000000E+00 0. -1.
     999902    2    1    2    0    0 -0.33438880718E-02 -0.13762912583E-01 -0.16248644403E-01  0.10223750053E+01  0.10221477553E+01 0.  0.
     999903    2    3    3    0    0 -0.65125670547E-01 -0.94183427143E-01  0.64188173768E-01  0.13290632712E+00  0.20786996498E-01 0.  0.
         14    1    1    2    0    0  0.33438880718E-02  0.13762912583E-01  0.16248644403E-01  0.21554994668E-01  0.00000000000E+00 0. -1.
     999901    1    3    3    0    0  0.61781782475E-01  0.80420514560E-01 -0.80436818171E-01  0.88946867821E+00  0.88000000000E+00 0. -1.
        -11    1    4    4    0    0 -0.53156354283E-01 -0.60475698506E-01  0.46796208528E-01  0.93129234744E-01  0.51100000000E-03 0.  1.
         11    1    4    4    0    0 -0.11969316263E-01 -0.33707728637E-01  0.17391965240E-01  0.39777092372E-01  0.51100000000E-03 0. -1.
</event>
<event>
 8    1  0.1091347E+005  0.1043930E+01  0.7957747E-01            NaN
         13   -1    0    0    0    0  0.00000000000E+00  0.00000000000E+00  0.74505805969E-08  0.10566000000E+00  0.10566000000E+00 0. -1.
     999900   -1    0    0    0    0 -0.00000000000E+00 -0.00000000000E+00 -0.74505805969E-08  0.93827000000E+00  0.93827000000E+00 0. -1.
     999902    2    1    2    0    0  0.45545904020E-02  0.21294669952E-01  0.94938856625E-02  0.10201741349E+01  0.10198975068E+01 0.  0.
     999903    2    3    3    0    0 -0.11384934964E+00  0.42544950893E-01  0.45325187470E-01  0.13126753145E+00  0.20125728126E-01 0.  0.
         14    1    1    2    0    0 -0.45545904020E-02 -0.21294669952E-01 -0.94938856625E-02  0.23755865109E-01  0.00000000000E+00 0.  1.
     999901    1    3    3    0    0  0.11840394004E+00 -0.21250280942E-01 -0.35831301807E-01  0.88890660344E+00  0.88000000000E+00 0. -1.
        -11    1    4    4    0    0 -0.10303468225E+00  0.31937293481E-01  0.41930174555E-01  0.11573477057E+00  0.51100000000E-03 0.  1.
         11    1    4    4    0    0 -0.10814667396E-01  0.10607657413E-01  0.33950129144E-02  0.15532760874E-01  0.51100000000E-03 0. -1.
</event>
<event>
 8    1  0.1091347E+005  0.1043930E+01  0.7957747E-01            NaN
         13   -1    0    0    0    0  0.00000000000E+00  0.00000000000E+00  0.74505805969E-08  0.10566000000E+00  0.10566000000E+00 0. -1.
     999900   -1    0    0    0    0 -0.00000000000E+00 -0.00000000000E+00 -0.74505805969E-08  0.93827000000E+00  0.93827000000E+00 0.  1.
     999902    2    1    2    0    0  0.11816908750E-01  0.19633683862E-01  0.71691986551E-02  0.10199192048E+01  0.10196365363E+01 0.  0.
     999903    2    3    3    0    0  0.54476103029E-01 -0.15127558831E-01  0.11690144391E+00  0.13139834606E+00  0.20077074554E-01 0.  0.
         14    1    1    2    0    0 -0.11816908750E-01 -0.19633683862E-01 -0.71691986551E-02  0.24010795151E-01  0.00000000000E+00 0.  1.
     999901    1    3    3    0    0 -0.42659194279E-01  0.34761242694E-01 -0.10973224525E+00  0.88852085879E+00  0.88000000000E+00 0.  1.
        -11    1    4    4    0    0  0.44830730784E-01 -0.17352956380E-01  0.81373445087E-01  0.94513587404E-01  0.51100000000E-03 0. -1.
         11    1    4    4    0    0  0.96453722455E-02  0.22253975485E-02  0.35527998822E-01  0.36884758659E-01  0.51100000000E-03 0.  1.
</event>
<event>
 8    1  0.1091347E+005  0.1043930E+01  0.7957747E-01            NaN
         13   -1    0    0    0    0  0.00000000000E+00  0.00000000000E+00  0.74505805969E-08  0.10566000000E+00  0.10566000000E+00 0.  1.
     999900   -1    0    0    0    0 -0.00000000000E+00 -0.00000000000E+00 -0.74505805969E-08  0.93827000000E+00  0.93827000000E+00 0.  1.
     999902    2    1    2    0    0  0.44798926387E-02  0.20110749302E-01 -0.93741445612E-02  0.10212940494E+01  0.10210431670E+01 0.  0.
     999903    2    3    3    0    0  0.78361404447E-01  0.10624685872E+00 -0.11540609673E-01  0.13400458097E+00  0.19878062136E-01 0.  0.
         14    1    1    2    0    0 -0.44798926387E-02 -0.20110749302E-01  0.93741445612E-02  0.22635950650E-01  0.00000000000E+00 0.  1.
     999901    1    3    3    0    0 -0.73881511808E-01 -0.86136109416E-01  0.21664651119E-02  0.88728946838E+00  0.88000000000E+00 0.  1.
        -11    1    4    4    0    0  0.37995796540E-01  0.54420870172E-01 -0.15610833045E-01  0.68185562214E-01  0.51100000000E-03 0.  1.
         11    1    4    4    0    0  0.40365607906E-01  0.51825988546E-01  0.40702233716E-02  0.65819018754E-01  0.51100000000E-03 0. -1.
</event>
<event>
 8    1  0.1091347E+005  0.1043930E+01  0.7957747E-01            NaN
         13   -1    0    0    0    0  0.00000000000E+00  0.00000000000E+00  0.74505805969E-08  0.10566000000E+00  0.10566000000E+00 0.  1.
     999900   -1    0    0    0    0 -0.00000000000E+00 -0.00000000000E+00 -0.74505805969E-08  0.93827000000E+00  0.93827000000E+00 0. -1.
     999902    2    1    2    0    0  0.20466643704E-01  0.11883874666E-01  0.14617658178E-02  0.10202182573E+01  0.10199426679E+01 0.  0.
     999903    2    3    3    0    0  0.11092738139E+00  0.63628116327E-01 -0.32678341249E-01  0.13341153739E+00  0.19425323504E-01 0.  0.
         14    1    1    2    0    0 -0.20466643704E-01 -0.11883874666E-01 -0.14617658178E-02  0.23711742679E-01  0.00000000000E+00 0.  1.
     999901    1    3    3    0    0 -0.90460737681E-01 -0.51744241660E-01  0.34140107067E-01  0.88680671993E+00  0.88000000000E+00 0.  1.
        -11    1    4    4    0    0  0.82086427324E-01  0.37006624249E-01 -0.21033306580E-01  0.92468010122E-01  0.51100000000E-03 0.  1.
         11    1    4    4    0    0  0.28840954061E-01  0.26621492078E-01 -0.11645034669E-01  0.40943527266E-01  0.51100000000E-03 0. -1.
</event>
<event>
 8    1  0.1091347E+005  0.1043930E+01  0.7957747E-01            NaN
         13   -1    0    0    0    0  0.00000000000E+00  0.00000000000E+00  0.74505805969E-08  0.10566000000E+00  0.10566000000E+00 0.  1.
     999900   -1    0    0    0    0 -0.00000000000E+00 -0.00000000000E+00 -0.74505805969E-08  0.93827000000E+00  0.93827000000E+00 0. -1.
     999902    2    1    2    0    0 -0.91771758766E-02 -0.15812088827E-01  0.15147421930E-01  0.10201879044E+01  0.10199116007E+01 0.  0.
     999903    2    3    3    0    0  0.32521979741E-01  0.29418189353E-01 -0.11854801125E+00  0.12796648210E+00  0.19966986224E-01 0.  0.
         14    1    1    2    0    0  0.91771758766E-02  0.15812088827E-01 -0.15147421930E-01  0.23742095553E-01  0.00000000000E+00 0. -1.
     999901    1    3    3    0    0 -0.41699155618E-01 -0.45230278180E-01  0.13369543318E+00  0.89222142235E+00  0.88000000000E+00 0.  1.
        -11    1    4    4    0    0  0.17009578346E-02  0.43327104652E-02 -0.36507771069E-01  0.36806848642E-01  0.51100000000E-03 0.  1.
         11    1    4    4    0    0  0.30821021906E-01  0.25085478888E-01 -0.82040240180E-01  0.91159633458E-01  0.51100000000E-03 0. -1.
</event>
<event>
 8    1  0.1091347E+005  0.1043930E+01  0.7957747E-01            NaN
         13   -1    0    0    0    0  0.00000000000E+00  0.00000000000E+00  0.74505805969E-08  0.10566000000E+00  0.10566000000E+00 0. -1.
     999900   -1    0    0    0    0 -0.00000000000E+00 -0.00000000000E+00 -0.74505805969E-08  0.93827000000E+00  0.93827000000E+00 0.  1.
     999902    2    1    2    0    0 -0.10681593804E-01 -0.12915334715E-01  0.17032605956E-01  0.10200341430E+01  0.10197542061E+01 0.  0.
     999903    2    3    3    0    0  0.10384509939E+00  0.92661392803E-02 -0.71161482045E-01  0.12796543576E+00  0.21012620444E-01 0.  0.
         14    1    1    2    0    0  0.10681593804E-01  0.12915334715E-01 -0.17032605956E-01  0.23895857018E-01  0.00000000000E+00 0.  1.
     999901    1    3    3    0    0 -0.11452669320E+00 -0.22181473995E-01  0.88194088001E-01  0.89206870722E+00  0.88000000000E+00 0. -1.
        -11    1    4    4    0    0  0.56273813899E-01  0.13630641430E-01 -0.31773250163E-01  0.66047990609E-01  0.51100000000E-03 0. -1.
         11    1    4    4    0    0  0.47571285493E-01 -0.43645021495E-02 -0.39388231883E-01  0.61917445153E-01  0.51100000000E-03 0.  1.
</event>
<event>
 8    1  0.1091347E+005  0.1043930E+01  0.7957747E-01            NaN
         13   -1    0    0    0    0  0.00000000000E+00  0.00000000000E+00  0.74505805969E-08  0.10566000000E+00  0.10566000000E+00 0. -1.
     999900   -1    0    0    0    0 -0.00000000000E+00 -0.00000000000E+00 -0.74505805969E-08  0.93827000000E+00  0.93827000000E+00 0. -1.
     999902    2    1    2    0    0 -0.71385513787E-02  0.15344717512E-01  0.20021527274E-01  0.10177139586E+01  0.10173762435E+01 0.  0.
     999903    2    3    3    0    0  0.30612875811E-01 -0.78797416120E-01 -0.90034431618E-01  0.12507728804E+00  0.19797680504E-01 0.  0.
         14    1    1    2    0    0  0.71385513787E-02 -0.15344717512E-01 -0.20021527274E-01  0.26216041381E-01  0.00000000000E+00 0.  1.
     999901    1    3    3    0    0 -0.37751427189E-01  0.94142133632E-01  0.11005595889E+00  0.89263667058E+00  0.88000000000E+00 0. -1.
        -11    1    4    4    0    0  0.85998609548E-02 -0.17511993918E-01 -0.10102447029E-01  0.21976080096E-01  0.51100000000E-03 0. -1.
         11    1    4    4    0    0  0.22013014856E-01 -0.61285422202E-01 -0.79931984588E-01  0.10310120794E+00  0.51100000000E-03 0.  1.
</event>
<event>
 8    1  0.1091347E+005  0.1043930E+01  0.7957747E-01            NaN
         13   -1    0    0    0    0  0.00000000000E+00  0.00000000000E+00  0.74505805969E-08  0.10566000000E+00  0.10566000000E+00 0. -1.
     999900   -1    0    0    0    0 -0.00000000000E+00 -0.00000000000E+00 -0.74505805969E-08  0.93827000000E+00  0.93827000000E+00 0. -1.
     999902    2    1    2    0    0  0.87687326805E-02 -0.54272529423E-02  0.20832337380E-01  0.10206849569E+01  0.10204202317E+01 0.  0.
     999903    2    3    3    0    0  0.12756714399E+00 -0.23522298136E-01  0.18616359660E-01  0.13251526381E+00  0.19673625996E-01 0.  0.
         14    1    1    2    0    0 -0.87687326805E-02  0.54272529423E-02 -0.20832337380E-01  0.23245043085E-01  0.00000000000E+00 0.  1.
     999901    1    3    3    0    0 -0.11879841131E+00  0.18095045194E-01  0.22159777194E-02  0.88816969310E+00  0.88000000000E+00 0.  1.
        -11    1    4    4    0    0  0.37416875736E-01 -0.11736264236E-01  0.13411741976E-01  0.41447538309E-01  0.51100000000E-03 0.  1.
         11    1    4    4    0    0  0.90150268257E-01 -0.11786033900E-01  0.52046176844E-02  0.91067725502E-01  0.51100000000E-03 0. -1.
</event>
<event>
 8    1  0.1091347E+005  0.1043930E+01  0.7957747E-01            NaN
         13   -1    0    0    0    0  0.00000000000E+00  0.00000000000E+00  0.74505805969E-08  0.10566000000E+00  0.10566000000E+00 0. -1.
     999900   -1    0    0    0    0 -0.00000000000E+00 -0.00000000000E+00 -0.74505805969E-08  0.93827000000E+00  0.93827000000E+00 0. -1.
     999902    2    1    2    0    0  0.25397421025E-05  0.10625185945E-01 -0.16255462726E-01  0.10245100450E+01  0.10243259724E+01 0.  0.
     999903    2    3    3    0    0  0.63977726038E-01 -0.76009577762E-01 -0.89128147969E-01  0.13495463079E+00  0.19957962574E-01 0.  0.
         14    1    1    2    0    0 -0.25397421025E-05 -0.10625185945E-01  0.16255462726E-01  0.19419954976E-01  0.00000000000E+00 0. -1.
     999901    1    3    3    0    0 -0.63975186296E-01  0.86634763707E-01  0.72872685242E-01  0.88955541424E+00  0.88000000000E+00 0.  1.
        -11    1    4    4    0    0  0.50258713113E-01 -0.53747450498E-01 -0.54559178256E-01  0.91606177367E-01  0.51100000000E-03 0. -1.
         11    1    4    4    0    0  0.13719012925E-01 -0.22262127263E-01 -0.34568969712E-01  0.43348453420E-01  0.51100000000E-03 0.  1.
</event>
<event>
 8    1  0.1091347E+005  0.1043930E+01  0.7957747E-01            NaN
         13   -1    0    0    0    0  0.00000000000E+00  0.00000000000E+00  0.74505805969E-08  0.10566000000E+00  0.10566000000E+00 0. -1.
     999900   -1    0    0    0    0 -0.00000000000E+00 -0.00000000000E+00 -0.74505805969E-08  0.93827000000E+00  0.93827000000E+00 0.  1.
     999902    2    1    2    0    0  0.16492944423E-01 -0.20333007105E-02  0.16417164343E-01  0.10205703165E+01  0.10203029433E+01 0.  0.
     999903    2    3    3    0    0 -0.91553789073E-01 -0.82688047972E-01  0.35966297856E-01  0.13008648539E+00  0.20236341767E-01 0.  0.
         14    1    1    2    0    0 -0.16492944423E-01  0.20333007105E-02 -0.16417164343E-01  0.23359683486E-01  0.00000000000E+00 0.  1.
     999901    1    3    3    0    0  0.10804673350E+00  0.80654747262E-01 -0.19549133513E-01  0.89048383113E+00  0.88000000000E+00 0. -1.
        -11    1    4    4    0    0 -0.52732946318E-01 -0.34012632270E-01  0.17844633752E-01  0.65240438810E-01  0.51100000000E-03 0.  1.
         11    1    4    4    0    0 -0.38820842755E-01 -0.48675415702E-01  0.18121664104E-01  0.64846046578E-01  0.51100000000E-03 0. -1.
</event>
<event>
 8    1  0.1091347E+005  0.1043930E+01  0.7957747E-01            NaN
         13   -1    0    0    0    0  0.00000000000E+00  0.00000000000E+00  0.74505805969E-08  0.10566000000E+00  0.10566000000E+00 0.  1.
     999900   -1    0    0    0    0 -0.00000000000E+00 -0.00000000000E+00 -0.74505805969E-08  0.93827000000E+00  0.93827000000E+00 0.  1.
     999902    2    1    2    0    0  0.76765955082E-02 -0.20130505122E-01  0.91544790528E-02  0.10205212016E+01  0.10202526898E+01 0.  0.
     999903    2    3    3    0    0 -0.92085497902E-01 -0.29184072034E-01 -0.84548687148E-01  0.12989517139E+00  0.19819840269E-01 0.  0.
         14    1    1    2    0    0 -0.76765955082E-02  0.20130505122E-01 -0.91544790528E-02  0.23408798385E-01  0.00000000000E+00 0. -1.
     999901    1    3    3    0    0  0.99762093410E-01  0.90535669110E-02  0.93703166201E-01  0.89062603022E+00  0.88000000000E+00 0. -1.
        -11    1    4    4    0    0 -0.45516935847E-01 -0.17889784933E-01 -0.30401710678E-01  0.57587854510E-01  0.51100000000E-03 0.  1.
         11    1    4    4    0    0 -0.46568562055E-01 -0.11294287100E-01 -0.54146976469E-01  0.72307316882E-01  0.51100000000E-03 0. -1.
</event>
<event>
 8    1  0.1091347E+005  0.1043930E+01  0.7957747E-01            NaN
         13   -1    0    0    0    0  0.00000000000E+00  0.00000000000E+00  0.74505805969E-08  0.10566000000E+00  0.10566000000E+00 0.  1.
     999900   -1    0    0    0    0 -0.00000000000E+00 -0.00000000000E+00 -0.74505805969E-08  0.93827000000E+00  0.93827000000E+00 0.  1.
     999902    2    1    2    0    0 -0.13959748765E-01 -0.49906631683E-02  0.18271928536E-01  0.10204003447E+01  0.10201290207E+01 0.  0.
     999903    2    3    3    0    0  0.41125596702E-01 -0.41389346017E-01 -0.11317902472E+00  0.12819038486E+00  0.14794947282E-01 0.  0.
         14    1    1    2    0    0  0.13959748765E-01  0.49906631683E-02 -0.18271928536E-01  0.23529655264E-01  0.00000000000E+00 0. -1.
     999901    1    3    3    0    0 -0.55085345467E-01  0.36398682849E-01  0.13145095326E+00  0.89220995988E+00  0.88000000000E+00 0. -1.
        -11    1    4    4    0    0  0.10846741481E-01 -0.35163797897E-02 -0.16963692040E-01  0.20446141353E-01  0.51100000000E-03 0.  1.
         11    1    4    4    0    0  0.30278855221E-01 -0.37872966228E-01 -0.96215332679E-01  0.10774424350E+00  0.51100000000E-03 0. -1.
</event>
<event>
 8    1  0.1091347E+005  0.1043930E+01  0.7957747E-01            NaN
         13   -1    0    0    0    0  0.00000000000E+00  0.00000000000E+00  0.74505805969E-08  0.10566000000E+00  0.10566000000E+00 0. -1.
     999900   -1    0    0    0    0 -0.00000000000E+00 -0.00000000000E+00 -0.74505805969E-08  0.93827000000E+00  0.93827000000E+00 0.  1.
     999902    2    1    2    0    0  0.21969716798E-01  0.29704988065E-02 -0.75221490936E-02  0.10205189973E+01  0.10202504344E+01 0.  0.
     999903    2    3    3    0    0  0.11385783465E+00  0.65436900534E-01 -0.12971049731E-01  0.13351552040E+00  0.20311366128E-01 0.  0.
         14    1    1    2    0    0 -0.21969716798E-01 -0.29704988065E-02  0.75221490936E-02  0.23411002677E-01  0.00000000000E+00 0. -1.
     999901    1    3    3    0    0 -0.91888117857E-01 -0.62466401728E-01  0.54489006373E-02  0.88700347692E+00  0.88000000000E+00 0.  1.
        -11    1    4    4    0    0  0.54682777345E-01  0.41459783569E-01 -0.14887655390E-02  0.68641076154E-01  0.51100000000E-03 0.  1.
         11    1    4    4    0    0  0.59175057309E-01  0.23977116966E-01 -0.11482284192E-01  0.64874444250E-01  0.51100000000E-03 0. -1.
</event>
<event>
 8    1  0.1091347E+005  0.1043930E+01  0.7957747E-01            NaN
         13   -1    0    0    0    0  0.00000000000E+00  0.00000000000E+00  0.74505805969E-08  0.10566000000E+00  0.10566000000E+00 0.  1.
     999900   -1    0    0    0    0 -0.00000000000E+00 -0.00000000000E+00 -0.74505805969E-08  0.93827000000E+00  0.93827000000E+00 0.  1.
     999902    2    1    2    0    0  0.18353638782E-01  0.13732711691E-01 -0.47378210812E-02  0.10205229418E+01  0.10202544704E+01 0.  0.
     999903    2    3    3    0    0 -0.23427538842E-01  0.12067099425E+00  0.42717582575E-01  0.13179718067E+00  0.20865438991E-01 0.  0.
         14    1    1    2    0    0 -0.18353638782E-01 -0.13732711691E-01  0.47378210812E-02  0.23407058241E-01  0.00000000000E+00 0.  1.
     999901    1    3    3    0    0  0.41781177624E-01 -0.10693828255E+00 -0.47455403656E-01  0.88872576108E+00  0.88000000000E+00 0. -1.
        -11    1    4    4    0    0 -0.18124429631E-01  0.79301869033E-01  0.38109959282E-01  0.89832686140E-01  0.51100000000E-03 0. -1.
         11    1    4    4    0    0 -0.53031092114E-02  0.41369125212E-01  0.46076232926E-02  0.41964494534E-01  0.51100000000E-03 0.  1.
</event>
<event>
 8    1  0.1091347E+005  0.1043930E+01  0.7957747E-01            NaN
         13   -1    0    0    0    0  0.00000000000E+00  0.00000000000E+00  0.74505805969E-08  0.10566000000E+00  0.10566000000E+00 0. -1.
     999900   -1    0    0    0    0 -0.00000000000E+00 -0.00000000000E+00 -0.74505805969E-08  0.93827000000E+00  0.93827000000E+00 0.  1.
     999902    2    1    2    0    0  0.16511103025E-01  0.17108183423E-01  0.25651492715E-02  0.10200158524E+01  0.10197354818E+01 0.  0.
     999903    2    3    3    0    0 -0.67487235047E-01 -0.86952578278E-01 -0.62029333246E-01  0.12757156280E+00  0.17651846613E-01 0.  0.
         14    1    1    2    0    0 -0.16511103025E-01 -0.17108183423E-01 -0.25651492715E-02  0.23914147568E-01  0.00000000000E+00 0. -1.
     999901    1    3    3    0    0  0.83998338071E-01  0.10406076170E+00  0.64594482517E-01  0.89244428963E+00  0.88000000000E+00 0.  1.
        -11    1    4    4    0    0 -0.54903478778E-01 -0.72746482539E-01 -0.58390291313E-01  0.10824107328E+00  0.51100000000E-03 0.  1.
         11    1    4    4    0    0 -0.12583756269E-01 -0.14206095740E-01 -0.36390419330E-02  0.19330489523E-01  0.51100000000E-03 0. -1.
</event>
<event>
 8    1  0.1091347E+005  0.1043930E+01  0.7957747E-01            NaN
         13   -1    0    0    0    0  0.00000000000E+00  0.00000000000E+00  0.74505805969E-08  0.10566000000E+00  0.10566000000E+00 0.  1.
     999900   -1    0    0    0    0 -0.00000000000E+00 -0.00000000000E+00 -0.74505805969E-08  0.93827000000E+00  0.93827000000E+00 0. -1.
     999902    2    1    2    0    0 -0.12458427117E-01  0.12255629285E-01  0.15957961616E-01  0.10202642147E+01  0.10199897050E+01 0.  0.
     999903    2    3    3    0    0  0.71569669190E-01 -0.82307460229E-01 -0.63523789469E-01  0.12767234400E+00  0.19189060334E-01 0.  0.
         14    1    1    2    0    0  0.12458427117E-01 -0.12255629285E-01 -0.15957961616E-01  0.23665785310E-01  0.00000000000E+00 0. -1.
     999901    1    3    3    0    0 -0.84028096307E-01  0.94563089514E-01  0.79481751085E-01  0.89259187069E+00  0.88000000000E+00 0.  1.
        -11    1    4    4    0    0  0.59628770913E-02 -0.24764179825E-02 -0.19842292616E-03  0.64798952066E-02  0.51100000000E-03 0.  1.
         11    1    4    4    0    0  0.65606792099E-01 -0.79831042246E-01 -0.63325366543E-01  0.12119244879E+00  0.51100000000E-03 0. -1.
</event>
<event>
 8    1  0.1091347E+005  0.1043930E+01  0.7957747E-01            NaN
         13   -1    0    0    0    0  0.00000000000E+00  0.00000000000E+00  0.74505805969E-08  0.10566000000E+00  0.10566000000E+00 0.  1.
     999900   -1    0    0    0    0 -0.00000000000E+00 -0.00000000000E+00 -0.74505805969E-08  0.93827000000E+00  0.93827000000E+00 0. -1.
     999902    2    1    2    0    0 -0.13749149876E-01 -0.21677756953E-01  0.11948710093E-01  0.10156150580E+01  0.10152202766E+01 0.  0.
     999903    2    3    3    0    0  0.92622158707E-01  0.78712860576E-01 -0.57328376525E-02  0.12336746425E+00  0.20299928697E-01 0.  0.
         14    1    1    2    0    0  0.13749149876E-01  0.21677756953E-01 -0.11948710093E-01  0.28314942022E-01  0.00000000000E+00 0. -1.
     999901    1    3    3    0    0 -0.10637130858E+00 -0.10039061753E+00  0.17681547745E-01  0.89224759373E+00  0.88000000000E+00 0. -1.
        -11    1    4    4    0    0  0.31127988054E-01  0.15283927107E-01  0.15935303525E-02  0.34718158478E-01  0.51100000000E-03 0.  1.
         11    1    4    4    0    0  0.61494170653E-01  0.63428933469E-01 -0.73263680050E-02  0.88649305776E-01  0.51100000000E-03 0. -1.
</event>
<event>
 8    1  0.1091347E+005  0.1043930E+01  0.7957747E-01            NaN
         13   -1    0    0    0    0  0.00000000000E+00  0.00000000000E+00  0.74505805969E-08  0.10566000000E+00  0.10566000000E+00 0.  1.
     999900   -1    0    0    0    0 -0.00000000000E+00 -0.00000000000E+00 -0.74505805969E-08  0.93827000000E+00  0.93827000000E+00 0.  1.
     999902    2    1    2    0    0 -0.13408954893E-01 -0.12181029497E-01  0.14059159879E-01  0.10209988525E+01  0.10207413087E+01 0.  0.
     999903    2    3    3    0    0 -0.10162461232E+00 -0.70297492070E-01  0.48242751931E-01  0.13402193991E+00  0.19110678759E-01 0.  0.
         14    1    1    2    0    0  0.13408954893E-01  0.12181029497E-01 -0.14059159879E-01  0.22931147538E-01  0.00000000000E+00 0. -1.
     999901    1    3    3    0    0  0.88215657425E-01  0.58116462573E-01 -0.34183592052E-01  0.88697691255E+00  0.88000000000E+00 0.  1.
        -11    1    4    4    0    0 -0.65614582804E-01 -0.40586298564E-01  0.38910532324E-01  0.86410715507E-01  0.51100000000E-03 0. -1.
         11    1    4    4    0    0 -0.36010029514E-01 -0.29711193507E-01  0.93322196070E-02  0.47611224401E-01  0.51100000000E-03 0.  1.
</event>
<event>
 8    1  0.1091347E+005  0.1043930E+01  0.7957747E-01            NaN
         13   -1    0    0    0    0  0.00000000000E+00  0.00000000000E+00  0.74505805969E-08  0.10566000000E+00  0.10566000000E+00 0.  1.
     999900   -1    0    0    0    0 -0.00000000000E+00 -0.00000000000E+00 -0.74505805969E-08  0.93827000000E+00  0.93827000000E+00 0.  1.
     999902    2    1    2    0    0  0.16485342247E-02  0.21668973112E-01 -0.82469680797E-02  0.10206861934E+01  0.10204214967E+01 0.  0.
     999903    2    3    3    0    0 -0.80000796715E-01 -0.34771219626E-01 -0.95722452542E-01  0.13079627386E+00  0.18322449198E-01 0.  0.
         14    1    1    2    0    0 -0.16485342247E-02 -0.21668973112E-01  0.82469680797E-02  0.23243806558E-01  0.00000000000E+00 0. -1.
     999901    1    3    3    0    0  0.81649330939E-01  0.56440192738E-01  0.87475484462E-01  0.88988991959E+00  0.88000000000E+00 0. -1.
        -11    1    4    4    0    0 -0.49243821483E-01 -0.28117461962E-01 -0.70415756541E-01  0.90411202358E-01  0.51100000000E-03 0.  1.
         11    1    4    4    0    0 -0.30756975231E-01 -0.66537576641E-02 -0.25306696000E-01  0.40385071498E-01  0.51100000000E-03 0. -1.
</event>
<event>
 8    1  0.1091347E+005  0.1043930E+01  0.7957747E-01            NaN
         13   -1    0    0    0    0  0.00000000000E+00  0.00000000000E+00  0.74505805969E-08  0.10566000000E+00  0.10566000000E+00 0. -1.
     999900   -1    0    0    0    0 -0.00000000000E+00 -0.00000000000E+00 -0.74505805969E-08  0.93827000000E+00  0.93827000000E+00 0. -1.
     999902    2    1    2    0    0 -0.11585658138E-01 -0.19610941530E-01  0.13447020511E-01  0.10174793126E+01  0.10171354446E+01 0.  0.
     999903    2    3    3    0    0 -0.93010109460E-01 -0.50729326134E-03 -0.82925744867E-01  0.12827596099E+00  0.30445117788E-01 0.  0.
         14    1    1    2    0    0  0.11585658138E-01  0.19610941530E-01 -0.13447020511E-01  0.26450687379E-01  0.00000000000E+00 0. -1.
     999901    1    3    3    0    0  0.81424451322E-01 -0.19103648269E-01  0.96372765378E-01  0.88920335163E+00  0.88000000000E+00 0.  1.
        -11    1    4    4    0    0 -0.74671382786E-01 -0.61739949287E-02 -0.49736997237E-01  0.89933106450E-01  0.51100000000E-03 0. -1.
         11    1    4    4    0    0 -0.18338726674E-01  0.56667016674E-02 -0.33188747630E-01  0.38342854537E-01  0.51100000000E-03 0.  1.
</event>
<event>
 8    1  0.1091347E+005  0.1043930E+01  0.7957747E-01            NaN
         13   -1    0    0    0    0  0.00000000000E+00  0.00000000000E+00  0.74505805969E-08  0.10566000000E+00  0.10566000000E+00 0.  1.
     999900   -1    0    0    0    0 -0.00000000000E+00 -0.00000000000E+00 -0.74505805969E-08  0.93827000000E+00  0.93827000000E+00 0.  1.
     999902    2    1    2    0    0  0.17467088123E-01 -0.13035589514E-01  0.46704779302E-02  0.10216401116E+01  0.10213969250E+01 0.  0.
     999903    2    3    3    0    0 -0.26411382540E-01  0.11212404404E+00 -0.55879758927E-01  0.12964426785E+00  0.20389368528E-01 0.  0.
         14    1    1    2    0    0 -0.17467088123E-01  0.13035589514E-01 -0.46704779302E-02  0.22289888415E-01  0.00000000000E+00 0.  1.
     999901    1    3    3    0    0  0.43878470663E-01 -0.12515963355E+00  0.60550236857E-01  0.89199584374E+00  0.88000000000E+00 0.  1.
        -11    1    4    4    0    0 -0.36764118500E-02  0.50596897967E-01 -0.17614462520E-01  0.53703747531E-01  0.51100000000E-03 0. -1.
         11    1    4    4    0    0 -0.22734970690E-01  0.61527146072E-01 -0.38265296407E-01  0.75940520318E-01  0.51100000000E-03 0.  1.
</event>
<event>
 8    1  0.1091347E+005  0.1043930E+01  0.7957747E-01            NaN
         13   -1    0    0    0    0  0.00000000000E+00  0.00000000000E+00  0.74505805969E-08  0.10566000000E+00  0.10566000000E+00 0.  1.
     999900   -1    0    0    0    0 -0.00000000000E+00 -0.00000000000E+00 -0.74505805969E-08  0.93827000000E+00  0.93827000000E+00 0. -1.
     999902    2    1    2    0    0 -0.14739078713E-01  0.17042561306E-01  0.14680134861E-01  0.10170377019E+01  0.10166820995E+01 0.  0.
     999903    2    3    3    0    0  0.90401605434E-01  0.88102863134E-01  0.59745540009E-02  0.12789209117E+00  0.19650112732E-01 0.  0.
         14    1    1    2    0    0  0.14739078713E-01 -0.17042561306E-01 -0.14680134861E-01  0.26892298093E-01  0.00000000000E+00 0. -1.
     999901    1    3    3    0    0 -0.10514068415E+00 -0.71060301827E-01  0.87055808604E-02  0.88914561074E+00  0.88000000000E+00 0.  1.
        -11    1    4    4    0    0  0.37572768553E-02  0.11368539975E-01 -0.22793853479E-03  0.11986405111E-01  0.51100000000E-03 0. -1.
         11    1    4    4    0    0  0.86644328579E-01  0.76734323159E-01  0.62024925357E-02  0.11590568606E+00  0.51100000000E-03 0.  1.
</event>
<event>
 8    1  0.1091347E+005  0.1043930E+01  0.7957747E-01            NaN
         13   -1    0    0    0    0  0.00000000000E+00  0.00000000000E+00  0.74505805969E-08  0.10566000000E+00  0.10566000000E+00 0.  1.
     999900   -1    0    0    0    0 -0.00000000000E+00 -0.00000000000E+00 -0.74505805969E-08  0.93827000000E+00  0.93827000000E+00 0.  1.
     999902    2    1    2    0    0  0.98331561974E-02  0.19553155783E-01 -0.10690582112E-01  0.10195721387E+01  0.10192811391E+01 0.  0.
     999903    2    3    3    0    0 -0.88430481927E-01 -0.83301883449E-01 -0.34718211487E-01  0.12782540971E+00  0.19360455516E-01 0.  0.
         14    1    1    2    0    0 -0.98331561974E-02 -0.19553155783E-01  0.10690582112E-01  0.24357861314E-01  0.00000000000E+00 0.  1.
     999901    1    3    3    0    0  0.98263638125E-01  0.10285503923E+00  0.24027629374E-01  0.89174672898E+00  0.88000000000E+00 0.  1.
        -11    1    4    4    0    0 -0.60535583417E-01 -0.67129377553E-01 -0.29948786001E-01  0.95226577668E-01  0.51100000000E-03 0.  1.
         11    1    4    4    0    0 -0.27894898510E-01 -0.16172505896E-01 -0.47694254851E-02  0.32598832039E-01  0.51100000000E-03 0. -1.
</event>
<event>
 8    1  0.1091347E+005  0.1043930E+01  0.7957747E-01            NaN
         13   -1    0    0    0    0  0.00000000000E+00  0.00000000000E+00  0.74505805969E-08  0.10566000000E+00  0.10566000000E+00 0. -1.
     999900   -1    0    0    0    0 -0.00000000000E+00 -0.00000000000E+00 -0.74505805969E-08  0.93827000000E+00  0.93827000000E+00 0.  1.
     999902    2    1    2    0    0  0.10194208581E-01  0.19025476262E-01 -0.60601861976E-02  0.10215108900E+01  0.10212648442E+01 0.  0.
     999903    2    3    3    0    0  0.39153307136E-01  0.73140468944E-01 -0.10328874294E+00  0.13403105697E+00  0.20328555212E-01 0.  0.
         14    1    1    2    0    0 -0.10194208581E-01 -0.19025476262E-01  0.60601861976E-02  0.22419109981E-01  0.00000000000E+00 0.  1.
     999901    1    3    3    0    0 -0.28959098555E-01 -0.54114992682E-01  0.97228556743E-01  0.88747983305E+00  0.88000000000E+00 0. -1.
        -11    1    4    4    0    0  0.20541949067E-01  0.18371551663E-01 -0.33992059818E-01  0.43763076145E-01  0.51100000000E-03 0. -1.
         11    1    4    4    0    0  0.18611358069E-01  0.54768917282E-01 -0.69296683123E-01  0.90267980825E-01  0.51100000000E-03 0.  1.
</event>
<event>
 8    1  0.1091347E+005  0.1043930E+01  0.7957747E-01            NaN
         13   -1    0    0    0    0  0.00000000000E+00  0.00000000000E+00  0.74505805969E-08  0.10566000000E+00  0.10566000000E+00 0. -1.
     999900   -1    0    0    0    0 -0.00000000000E+00 -0.00000000000E+00 -0.74505805969E-08  0.93827000000E+00  0.93827000000E+00 0.  1.
     999902    2    1    2    0    0  0.18602486700E-01 -0.14873632688E-01 -0.36433461653E-02  0.10198353651E+01  0.10195506954E+01 0.  0.
     999903    2    3    3    0    0 -0.90408937375E-01 -0.78857110683E-01 -0.45487308080E-01  0.12981947017E+00  0.19793427616E-01 0.  0.
         14    1    1    2    0    0 -0.18602486700E-01  0.14873632688E-01  0.36433461653E-02  0.24094634922E-01  0.00000000000E+00 0.  1.
     999901    1    3    3    0    0  0.10901142408E+00  0.63983477996E-01  0.41843961914E-01  0.89001589491E+00  0.88000000000E+00 0. -1.
        -11    1    4    4    0    0 -0.41486766516E-01 -0.31131487374E-01 -0.29327447759E-01  0.59587596151E-01  0.51100000000E-03 0.  1.
         11    1    4    4    0    0 -0.48922170859E-01 -0.47725623310E-01 -0.16159860321E-01  0.70231874021E-01  0.51100000000E-03 0. -1.
</event>
<event>
 8    1  0.1091347E+005  0.1043930E+01  0.7957747E-01            NaN
         13   -1    0    0    0    0  0.00000000000E+00  0.00000000000E+00  0.74505805969E-08  0.10566000000E+00  0.10566000000E+00 0. -1.
     999900   -1    0    0    0    0 -0.00000000000E+00 -0.00000000000E+00 -0.74505805969E-08  0.93827000000E+00  0.93827000000E+00 0. -1.
     999902    2    1    2    0    0  0.20140507386E-01  0.91510026195E-02 -0.38859664694E-02  0.10214693317E+01  0.10212223626E+01 0.  0.
     999903    2    3    3    0    0 -0.42259352655E-01 -0.66991978565E-01 -0.10178824093E+00  0.13058418112E+00  0.20435368542E-01 0.  0.
         14    1    1    2    0    0 -0.20140507386E-01 -0.91510026195E-02  0.38859664694E-02  0.22460668336E-01  0.00000000000E+00 0. -1.
     999901    1    3    3    0    0  0.62399860041E-01  0.76142981184E-01  0.97902274463E-01  0.89088515055E+00  0.88000000000E+00 0.  1.
        -11    1    4    4    0    0 -0.25833766484E-01 -0.56694738278E-01 -0.80341441894E-01  0.10166949024E+00  0.51100000000E-03 0.  1.
         11    1    4    4    0    0 -0.16425586171E-01 -0.10297240287E-01 -0.21446799038E-01  0.28914690878E-01  0.51100000000E-03 0. -1.
</event>
<event>
 8    1  0.1091347E+005  0.1043930E+01  0.7957747E-01            NaN
         13   -1    0    0    0    0  0.00000000000E+00  0.00000000000E+00  0.74505805969E-08  0.10566000000E+00  0.10566000000E+00 0.  1.
     999900   -1    0    0    0    0 -0.00000000000E+00 -0.00000000000E+00 -0.74505805969E-08  0.93827000000E+00  0.93827000000E+00 0. -1.
     999902    2    1    2    0    0  0.32913452613E-02  0.54017175752E-02 -0.23413677920E-01  0.10196769214E+01  0.10193884501E+01 0.  0.
     999903    2    3    3    0    0  0.52081175093E-02 -0.11464282011E+00  0.54358435293E-01  0.12812610031E+00  0.17069194557E-01 0.  0.
         14    1    1    2    0    0 -0.32913452613E-02 -0.54017175752E-02  0.23413677920E-01  0.24253078571E-01  0.00000000000E+00 0.  1.
     999901    1    3    3    0    0 -0.19167722481E-02  0.12004453768E+00 -0.77772113213E-01  0.89155082112E+00  0.88000000000E+00 0. -1.
        -11    1    4    4    0    0  0.63261059626E-02 -0.94072475954E-01  0.37380477835E-01  0.10142589212E+00  0.51100000000E-03 0.  1.
         11    1    4    4    0    0 -0.11179884533E-02 -0.20570344155E-01  0.16977957458E-01  0.26700208188E-01  0.51100000000E-03 0. -1.
</event>
<event>
 8    1  0.1091347E+005  0.1043930E+01  0.7957747E-01            NaN
         13   -1    0    0    0    0  0.00000000000E+00  0.00000000000E+00  0.74505805969E-08  0.10566000000E+00  0.10566000000E+00 0.  1.
     999900   -1    0    0    0    0 -0.00000000000E+00 -0.00000000000E+00 -0.74505805969E-08  0.93827000000E+00  0.93827000000E+00 0. -1.
     999902    2    1    2    0    0  0.19253545290E-01  0.81154555637E-02 -0.11832989120E-01  0.10199179352E+01  0.10196352364E+01 0.  0.
     999903    2    3    3    0    0  0.94248898389E-01 -0.24368259726E-01 -0.88016905394E-01  0.13285340323E+00  0.20649072275E-01 0.  0.
         14    1    1    2    0    0 -0.19253545290E-01 -0.81154555637E-02  0.11832989120E-01  0.24012064816E-01  0.00000000000E+00 0. -1.
     999901    1    3    3    0    0 -0.74995353100E-01  0.32483715289E-01  0.76183916275E-01  0.88706453195E+00  0.88000000000E+00 0.  1.
        -11    1    4    4    0    0  0.66095971343E-01 -0.24713800726E-01 -0.70158274746E-01  0.99508261016E-01  0.51100000000E-03 0.  1.
         11    1    4    4    0    0  0.28152927046E-01  0.34554100076E-03 -0.17858630649E-01  0.33345142217E-01  0.51100000000E-03 0. -1.
</event>
<event>
 8    1  0.1091347E+005  0.1043930E+01  0.7957747E-01            NaN
         13   -1    0    0    0    0  0.00000000000E+00  0.00000000000E+00  0.74505805969E-08  0.10566000000E+00  0.10566000000E+00 0. -1.
     999900   -1    0    0    0    0 -0.00000000000E+00 -0.00000000000E+00 -0.74505805969E-08  0.93827000000E+00  0.93827000000E+00 0. -1.
     999902    2    1    2    0    0 -0.18518855697E-01 -0.46223672066E-02  0.13925242648E-01  0.10203031788E+01  0.10200295829E+01 0.  0.
     999903    2    3    3    0    0 -0.43215017602E-01 -0.65330288973E-01  0.10576958882E+00  0.13309929242E+00  0.19814926693E-01 0.  0.
         14    1    1    2    0    0  0.18518855697E-01  0.46223672066E-02 -0.13925242648E-01  0.23626821151E-01  0.00000000000E+00 0.  1.
     999901    1    3    3    0    0  0.24696161905E-01  0.60707921766E-01 -0.91844346168E-01  0.88720388643E+00  0.88000000000E+00 0.  1.
        -11    1    4    4    0    0 -0.29144048163E-01 -0.30139658721E-01  0.45243878884E-01  0.61685040882E-01  0.51100000000E-03 0. -1.
         11    1    4    4    0    0 -0.14070969439E-01 -0.35190630251E-01  0.60525709931E-01  0.71414251534E-01  0.51100000000E-03 0.  1.
</event>
<event>
 8    1  0.1091347E+005  0.1043930E+01  0.7957747E-01            NaN
         13   -1    0    0    0    0  0.00000000000E+00  0.00000000000E+00  0.74505805969E-08  0.10566000000E+00  0.10566000000E+00 0. -1.
     999900   -1    0    0    0    0 -0.00000000000E+00 -0.00000000000E+00 -0.74505805969E-08  0.93827000000E+00  0.93827000000E+00 0.  1.
     999902    2    1    2    0    0  0.63093910116E-02  0.21908998850E-01 -0.52765734741E-02  0.10205279729E+01  0.10202596182E+01 0.  0.
     999903    2    3    3    0    0  0.12769669020E+00 -0.21258355169E-01  0.51078179892E-02  0.13108650070E+00  0.19980453116E-01 0.  0.
         14    1    1    2    0    0 -0.63093910116E-02 -0.21908998850E-01  0.52765734741E-02  0.23402027117E-01  0.00000000000E+00 0.  1.
     999901    1    3    3    0    0 -0.12138729919E+00  0.43167354019E-01 -0.10384391463E-01  0.88944147219E+00  0.88000000000E+00 0. -1.
        -11    1    4    4    0    0  0.69236295149E-01 -0.21208743707E-01  0.55038575444E-02  0.72622509902E-01  0.51100000000E-03 0.  1.
         11    1    4    4    0    0  0.58460395056E-01 -0.49611461583E-04 -0.39603955518E-03  0.58463990795E-01  0.51100000000E-03 0. -1.
</event>
<event>
 8    1  0.1091347E+005  0.1043930E+01  0.7957747E-01            NaN
         13   -1    0    0    0    0  0.00000000000E+00  0.00000000000E+00  0.74505805969E-08  0.10566000000E+00  0.10566000000E+00 0.  1.
     999900   -1    0    0    0    0 -0.00000000000E+00 -0.00000000000E+00 -0.74505805969E-08  0.93827000000E+00  0.93827000000E+00 0.  1.
     999902    2    1    2    0    0  0.22838634688E-03  0.22082648181E-01  0.84030146377E-02  0.10203014967E+01  0.10200278614E+01 0.  0.
     999903    2    3    3    0    0  0.12728227517E+00  0.20687620167E-01  0.90976920644E-02  0.13117545431E+00  0.22259303917E-01 0.  0.
         14    1    1    2    0    0 -0.22838634688E-03 -0.22082648181E-01 -0.84030146377E-02  0.23628503254E-01  0.00000000000E+00 0.  1.
     999901    1    3    3    0    0 -0.12705388882E+00  0.13950280143E-02 -0.69467742667E-03  0.88912604244E+00  0.88000000000E+00 0.  1.
        -11    1    4    4    0    0  0.10597458048E+00  0.22296744363E-01  0.94830756063E-03  0.10830012431E+00  0.51100000000E-03 0. -1.
         11    1    4    4    0    0  0.21307694687E-01 -0.16091241957E-02  0.81493845038E-02  0.22875329994E-01  0.51100000000E-03 0.  1.
</event>
<event>
 8    1  0.1091347E+005  0.1043930E+01  0.7957747E-01            NaN
         13   -1    0    0    0    0  0.00000000000E+00  0.00000000000E+00  0.74505805969E-08  0.10566000000E+00  0.10566000000E+00 0.  1.
     999900   -1    0    0    0    0 -0.00000000000E+00 -0.00000000000E+00 -0.74505805969E-08  0.93827000000E+00  0.93827000000E+00 0. -1.
     999902    2    1    2    0    0  0.17740038613E-01  0.64678306399E-02 -0.13907025397E-01  0.10204790478E+01  0.10202095568E+01 0.  0.
     999903    2    3    3    0    0 -0.12211145146E+00 -0.11943388203E-01 -0.34405182965E-01  0.12900970638E+00  0.20147868976E-01 0.  0.
         14    1    1    2    0    0 -0.17740038613E-01 -0.64678306399E-02  0.13907025397E-01  0.23450952189E-01  0.00000000000E+00 0.  1.
     999901    1    3    3    0    0  0.13985149008E+00  0.18411218843E-01  0.20498157568E-01  0.89146934144E+00  0.88000000000E+00 0.  1.
        -11    1    4    4    0    0 -0.10716777086E+00 -0.43968210290E-02 -0.32908868673E-01  0.11219410816E+00  0.51100000000E-03 0.  1.
         11    1    4    4    0    0 -0.14943680597E-01 -0.75465671742E-02 -0.14963142919E-02  0.16815598216E-01  0.51100000000E-03 0. -1.
</event>
<event>
 8    1  0.1091347E+005  0.1043930E+01  0.7957747E-01            NaN
         13   -1    0    0    0    0  0.00000000000E+00  0.00000000000E+00  0.74505805969E-08  0.10566000000E+00  0.10566000000E+00 0.  1.
     999900   -1    0    0    0    0 -0.00000000000E+00 -0.00000000000E+00 -0.74505805969E-08  0.93827000000E+00  0.93827000000E+00 0.  1.
     999902    2    1    2    0    0  0.12728234444E-01  0.12518905847E-01  0.10407868466E-01  0.10232646986E+01  0.10230560047E+01 0.  0.
     999903    2    3    3    0    0 -0.46611246891E-02 -0.83155959591E-01 -0.99327694788E-01  0.13113356277E+00  0.19833825498E-01 0.  0.
         14    1    1    2    0    0 -0.12728234444E-01 -0.12518905847E-01 -0.10407868466E-01  0.20665301393E-01  0.00000000000E+00 0. -1.
     999901    1    3    3    0    0  0.17389359133E-01  0.95674865438E-01  0.10973556325E+00  0.89213113584E+00  0.88000000000E+00 0.  1.
        -11    1    4    4    0    0  0.38418674084E-02 -0.17500309392E-01 -0.32184460978E-01  0.36839128972E-01  0.51100000000E-03 0.  1.
         11    1    4    4    0    0 -0.85029920975E-02 -0.65655650199E-01 -0.67143233810E-01  0.94294433797E-01  0.51100000000E-03 0. -1.
</event>
<event>
 8    1  0.1091347E+005  0.1043930E+01  0.7957747E-01            NaN
         13   -1    0    0    0    0  0.00000000000E+00  0.00000000000E+00  0.74505805969E-08  0.10566000000E+00  0.10566000000E+00 0. -1.
     999900   -1    0    0    0    0 -0.00000000000E+00 -0.00000000000E+00 -0.74505805969E-08  0.93827000000E+00  0.93827000000E+00 0. -1.
     999902    2    1    2    0    0  0.17745273729E-01 -0.83383538165E-03  0.13803776131E-01  0.10214325722E+01  0.10211847851E+01 0.  0.
     999903    2    3    3    0    0  0.12318745851E-01  0.12114416938E+00  0.41871029837E-01  0.13255921140E+00  0.31481742521E-01 0.  0.
         14    1    1    2    0    0 -0.17745273729E-01  0.83383538165E-03 -0.13803776131E-01  0.22497427778E-01  0.00000000000E+00 0.  1.
     999901    1    3    3    0    0  0.54265278778E-02 -0.12197800476E+00 -0.28067253706E-01  0.88887336082E+00  0.88000000000E+00 0.  1.
        -11    1    4    4    0    0  0.12177425798E-01  0.28273099115E-01  0.25629655521E-03  0.30789359226E-01  0.51100000000E-03 0. -1.
         11    1    4    4    0    0  0.14132005313E-03  0.92871070268E-01  0.41614733281E-01  0.10176985217E+00  0.51100000000E-03 0.  1.
</event>
<event>
 7    1  0.1195904E+005  0.1043930E+01  0.7957747E-01            NaN
         13   -1    0    0    0    0  0.00000000000E+00  0.00000000000E+00  0.74505805969E-08  0.10566000000E+00  0.10566000000E+00 0.  1.
     999900   -1    0    0    0    0 -0.00000000000E+00 -0.00000000000E+00 -0.74505805969E-08  0.93827000000E+00  0.93827000000E+00 0.  1.
     999903    2    1    2    0    0  0.59187288842E-01  0.65953302183E-02  0.62776942496E-01  0.88482945020E-01  0.18483871596E-01 0.  0.
         14    1    1    2    0    0 -0.14453636242E-01  0.13879909027E-01  0.62115769840E-01  0.65268126510E-01  0.00000000000E+00 0.  1.
     999901    1    1    2    0    0 -0.44733652600E-01 -0.20475239246E-01 -0.12489271234E+00  0.89017892847E+00  0.88000000000E+00 0.  1.
        -11    1    3    3    0    0  0.19120273584E-01  0.97576370822E-02  0.28324203273E-01  0.35543184374E-01  0.51100000000E-03 0.  1.
         11    1    3    3    0    0  0.40067015258E-01 -0.31623068639E-02  0.34452739223E-01  0.52939760647E-01  0.51100000000E-03 0. -1.
</event>
<event>
 8    1  0.1091347E+005  0.1043930E+01  0.7957747E-01            NaN
         13   -1    0    0    0    0  0.00000000000E+00  0.00000000000E+00  0.74505805969E-08  0.10566000000E+00  0.10566000000E+00 0.  1.
     999900   -1    0    0    0    0 -0.00000000000E+00 -0.00000000000E+00 -0.74505805969E-08  0.93827000000E+00  0.93827000000E+00 0. -1.
     999902    2    1    2    0    0  0.19315912451E-01  0.10338377005E-01  0.43280597064E-02  0.10215979913E+01  0.10213538746E+01 0.  0.
     999903    2    3    3    0    0 -0.11467933123E-02 -0.55808962878E-01 -0.11651149991E+00  0.13064547174E+00  0.19425606835E-01 0.  0.
         14    1    1    2    0    0 -0.19315912451E-01 -0.10338377005E-01 -0.43280597064E-02  0.22332008726E-01  0.00000000000E+00 0. -1.
     999901    1    3    3    0    0  0.20462705763E-01  0.66147339883E-01  0.12083955962E+00  0.89095251954E+00  0.88000000000E+00 0.  1.
        -11    1    4    4    0    0  0.53247482911E-02 -0.33081739447E-01 -0.51232684839E-01  0.61219306972E-01  0.51100000000E-03 0. -1.
         11    1    4    4    0    0 -0.64715416034E-02 -0.22727223431E-01 -0.65278815074E-01  0.69426164765E-01  0.51100000000E-03 0.  1.
</event>
<event>
 8    1  0.1091347E+005  0.1043930E+01  0.7957747E-01            NaN
         13   -1    0    0    0    0  0.00000000000E+00  0.00000000000E+00  0.74505805969E-08  0.10566000000E+00  0.10566000000E+00 0.  1.
     999900   -1    0    0    0    0 -0.00000000000E+00 -0.00000000000E+00 -0.74505805969E-08  0.93827000000E+00  0.93827000000E+00 0. -1.
     999902    2    1    2    0    0 -0.27400357137E-02 -0.22043040546E-01 -0.56036504195E-02  0.10210213918E+01  0.10207643598E+01 0.  0.
     999903    2    3    3    0    0  0.45594050026E-01 -0.65360296415E-01  0.10324232624E+00  0.13194320898E+00  0.19981159244E-01 0.  0.
         14    1    1    2    0    0  0.27400357137E-02  0.22043040546E-01  0.56036504195E-02  0.22908608213E-01  0.00000000000E+00 0. -1.
     999901    1    3    3    0    0 -0.48334085739E-01  0.43317255868E-01 -0.10884597666E+00  0.88907818280E+00  0.88000000000E+00 0. -1.
        -11    1    4    4    0    0  0.12563672630E-01 -0.34049162852E-01  0.39839676178E-01  0.53894826096E-01  0.51100000000E-03 0.  1.
         11    1    4    4    0    0  0.33030377395E-01 -0.31311133563E-01  0.63402650060E-01  0.78048382889E-01  0.51100000000E-03 0. -1.
</event>
<event>
 8    1  0.1091347E+005  0.1043930E+01  0.7957747E-01            NaN
         13   -1    0    0    0    0  0.00000000000E+00  0.00000000000E+00  0.74505805969E-08  0.10566000000E+00  0.10566000000E+00 0. -1.
     999900   -1    0    0    0    0 -0.00000000000E+00 -0.00000000000E+00 -0.74505805969E-08  0.93827000000E+00  0.93827000000E+00 0.  1.
     999902    2    1    2    0    0  0.11778966295E-01  0.24233780915E-01 -0.69333027101E-03  0.10169763195E+01  0.10166190700E+01 0.  0.
     999903    2    3    3    0    0  0.71821210543E-02  0.12335228973E+00  0.36808520644E-01  0.13060619446E+00  0.20874400456E-01 0.  0.
         14    1    1    2    0    0 -0.11778966295E-01 -0.24233780915E-01  0.69333027101E-03  0.26953680477E-01  0.00000000000E+00 0. -1.
     999901    1    3    3    0    0  0.45968452406E-02 -0.99118508820E-01 -0.37501850915E-01  0.88637012506E+00  0.88000000000E+00 0. -1.
        -11    1    4    4    0    0 -0.30997089415E-02  0.94456684431E-01  0.25225510164E-01  0.97817487768E-01  0.51100000000E-03 0. -1.
         11    1    4    4    0    0  0.10281829996E-01  0.28895605304E-01  0.11583010481E-01  0.32788706695E-01  0.51100000000E-03 0.  1.
</event>
<event>
 8    1  0.1091347E+005  0.1043930E+01  0.7957747E-01            NaN
         13   -1    0    0    0    0  0.00000000000E+00  0.00000000000E+00  0.74505805969E-08  0.10566000000E+00  0.10566000000E+00 0.  1.
     999900   -1    0    0    0    0 -0.00000000000E+00 -0.00000000000E+00 -0.74505805969E-08  0.93827000000E+00  0.93827000000E+00 0.  1.
     999902    2    1    2    0    0  0.21599725559E-01 -0.35722046978E-02 -0.82110257374E-02  0.10205477475E+01  0.10202798514E+01 0.  0.
     999903    2    3    3    0    0 -0.88753339543E-01 -0.62633960591E-01 -0.67954766306E-01  0.12968557824E+00  0.20008264322E-01 0.  0.
         14    1    1    2    0    0 -0.21599725559E-01  0.35722046978E-02  0.82110257374E-02  0.23382252550E-01  0.00000000000E+00 0.  1.
     999901    1    3    3    0    0  0.11035306510E+00  0.59061755893E-01  0.59743740569E-01  0.89086216921E+00  0.88000000000E+00 0. -1.
        -11    1    4    4    0    0 -0.58348301289E-01 -0.34246226503E-01 -0.51159959685E-01  0.84822938460E-01  0.51100000000E-03 0. -1.
         11    1    4    4    0    0 -0.30405038254E-01 -0.28387734088E-01 -0.16794806621E-01  0.44862639783E-01  0.51100000000E-03 0.  1.
</event>
<event>
 8    1  0.1091347E+005  0.1043930E+01  0.7957747E-01            NaN
         13   -1    0    0    0    0  0.00000000000E+00  0.00000000000E+00  0.74505805969E-08  0.10566000000E+00  0.10566000000E+00 0. -1.
     999900   -1    0    0    0    0 -0.00000000000E+00 -0.00000000000E+00 -0.74505805969E-08  0.93827000000E+00  0.93827000000E+00 0. -1.
     999902    2    1    2    0    0  0.88689876444E-02  0.11205480388E-01  0.18212137763E-01  0.10207804062E+01  0.10205178754E+01 0.  0.
     999903    2    3    3    0    0 -0.10740241362E+00  0.69358556146E-01 -0.12130277392E-01  0.13071216096E+00  0.24344149859E-01 0.  0.
         14    1    1    2    0    0 -0.88689876444E-02 -0.11205480388E-01 -0.18212137763E-01  0.23149593829E-01  0.00000000000E+00 0.  1.
     999901    1    3    3    0    0  0.11627140126E+00 -0.58153075758E-01  0.30342415155E-01  0.89006824521E+00  0.88000000000E+00 0.  1.
        -11    1    4    4    0    0 -0.54954429042E-01  0.49809148884E-01 -0.73320226973E-02  0.74531605790E-01  0.51100000000E-03 0.  1.
         11    1    4    4    0    0 -0.52447984575E-01  0.19549407262E-01 -0.47982546945E-02  0.56180555172E-01  0.51100000000E-03 0. -1.
</event>
<event>
 8    1  0.1091347E+005  0.1043930E+01  0.7957747E-01            NaN
         13   -1    0    0    0    0  0.00000000000E+00  0.00000000000E+00  0.74505805969E-08  0.10566000000E+00  0.10566000000E+00 0.  1.
     999900   -1    0    0    0    0 -0.00000000000E+00 -0.00000000000E+00 -0.74505805969E-08  0.93827000000E+00  0.93827000000E+00 0. -1.
     999902    2    1    2    0    0  0.28148092042E-02 -0.24504291221E-01  0.10552009904E-03  0.10192643442E+01  0.10189658527E+01 0.  0.
     999903    2    3    3    0    0  0.73799980324E-02 -0.63878869574E-01 -0.11262443672E+00  0.13118819800E+00  0.19776379821E-01 0.  0.
         14    1    1    2    0    0 -0.28148092042E-02  0.24504291221E-01 -0.10552009904E-03  0.24665655750E-01  0.00000000000E+00 0.  1.
     999901    1    3    3    0    0 -0.45651888282E-02  0.39374578353E-01  0.11272995682E+00  0.88807614625E+00  0.88000000000E+00 0.  1.
        -11    1    4    4    0    0 -0.45075324791E-02 -0.35163567470E-02 -0.10332696869E-01  0.11819829077E-01  0.51100000000E-03 0.  1.
         11    1    4    4    0    0  0.11887530512E-01 -0.60362512827E-01 -0.10229173985E+00  0.11936836892E+00  0.51100000000E-03 0. -1.
</event>
<event>
 8    1  0.1091347E+005  0.1043930E+01  0.7957747E-01            NaN
         13   -1    0    0    0    0  0.00000000000E+00  0.00000000000E+00  0.74505805969E-08  0.10566000000E+00  0.10566000000E+00 0.  1.
     999900   -1    0    0    0    0 -0.00000000000E+00 -0.00000000000E+00 -0.74505805969E-08  0.93827000000E+00  0.93827000000E+00 0.  1.
     999902    2    1    2    0    0 -0.22331275448E-01 -0.63179240035E-02 -0.13272827777E-02  0.10206842755E+01  0.10204195346E+01 0.  0.
     999903    2    3    3    0    0 -0.67358178790E-01 -0.10536321575E+00 -0.41398713989E-01  0.13307900772E+00  0.18911300649E-01 0.  0.
         14    1    1    2    0    0  0.22331275448E-01  0.63179240035E-02  0.13272827777E-02  0.23245724476E-01  0.00000000000E+00 0.  1.
     999901    1    3    3    0    0  0.45026903342E-01  0.99045291744E-01  0.40071431212E-01  0.88760526781E+00  0.88000000000E+00 0. -1.
        -11    1    4    4    0    0 -0.37801323581E-01 -0.69890839230E-01 -0.33498695117E-01  0.86232784764E-01  0.51100000000E-03 0. -1.
         11    1    4    4    0    0 -0.29556855209E-01 -0.35472376517E-01 -0.79000188730E-02  0.46846222952E-01  0.51100000000E-03 0.  1.
</event>
<event>
 8    1  0.1091347E+005  0.1043930E+01  0.7957747E-01            NaN
         13   -1    0    0    0    0  0.00000000000E+00  0.00000000000E+00  0.74505805969E-08  0.10566000000E+00  0.10566000000E+00 0.  1.
     999900   -1    0    0    0    0 -0.00000000000E+00 -0.00000000000E+00 -0.74505805969E-08  0.93827000000E+00  0.93827000000E+00 0. -1.
     999902    2    1    2    0    0  0.87472412791E-02  0.62826428942E-02  0.20883293683E-01  0.10204332388E+01  0.10201626817E+01 0.  0.
     999903    2    3    3    0    0 -0.27402934454E-01 -0.70360291057E-01  0.10665680672E+00  0.13221138022E+00  0.20066969479E-01 0.  0.
         14    1    1    2    0    0 -0.87472412791E-02 -0.62826428942E-02 -0.20883293683E-01  0.23496761197E-01  0.00000000000E+00 0. -1.
     999901    1    3    3    0    0  0.36150175733E-01  0.76642933951E-01 -0.85773513041E-01  0.88822185859E+00  0.88000000000E+00 0. -1.
        -11    1    4    4    0    0 -0.17362747387E-01 -0.60385993506E-01  0.77295223655E-01  0.99612980727E-01  0.51100000000E-03 0. -1.
         11    1    4    4    0    0 -0.10040187067E-01 -0.99742975511E-02  0.29361583069E-01  0.32598399490E-01  0.51100000000E-03 0.  1.
</event>
<event>
 8    1  0.1091347E+005  0.1043930E+01  0.7957747E-01            NaN
         13   -1    0    0    0    0  0.00000000000E+00  0.00000000000E+00  0.74505805969E-08  0.10566000000E+00  0.10566000000E+00 0. -1.
     999900   -1    0    0    0    0 -0.00000000000E+00 -0.00000000000E+00 -0.74505805969E-08  0.93827000000E+00  0.93827000000E+00 0. -1.
     999902    2    1    2    0    0 -0.13081023169E-01  0.36219812439E-02  0.20229610419E-01  0.10195687797E+01  0.10192776989E+01 0.  0.
     999903    2    3    3    0    0  0.23613856504E-01  0.49845821340E-01 -0.11317827960E+00  0.12755935001E+00  0.20490111693E-01 0.  0.
         14    1    1    2    0    0  0.13081023169E-01 -0.36219812439E-02 -0.20229610419E-01  0.24361220269E-01  0.00000000000E+00 0.  1.
     999901    1    3    3    0    0 -0.36694879673E-01 -0.46223840096E-01  0.13340789002E+00  0.89200942972E+00  0.88000000000E+00 0.  1.
        -11    1    4    4    0    0  0.84391686376E-02  0.39498126651E-01 -0.80672419816E-01  0.90219853780E-01  0.51100000000E-03 0.  1.
         11    1    4    4    0    0  0.15174687866E-01  0.10347694689E-01 -0.32505859788E-01  0.37339496231E-01  0.51100000000E-03 0. -1.
</event>
<event>
 8    1  0.1091347E+005  0.1043930E+01  0.7957747E-01            NaN
         13   -1    0    0    0    0  0.00000000000E+00  0.00000000000E+00  0.74505805969E-08  0.10566000000E+00  0.10566000000E+00 0. -1.
     999900   -1    0    0    0    0 -0.00000000000E+00 -0.00000000000E+00 -0.74505805969E-08  0.93827000000E+00  0.93827000000E+00 0.  1.
     999902    2    1    2    0    0  0.20443466273E-01  0.81938494795E-02 -0.52491792365E-02  0.10212887022E+01  0.10210377000E+01 0.  0.
     999903    2    3    3    0    0  0.63793591110E-01 -0.73859704115E-01  0.83036580578E-01  0.13201574392E+00  0.31752240382E-01 0.  0.
         14    1    1    2    0    0 -0.20443466273E-01 -0.81938494795E-02  0.52491792365E-02  0.22641297781E-01  0.00000000000E+00 0. -1.
     999901    1    3    3    0    0 -0.43350124837E-01  0.82053553594E-01 -0.88285759815E-01  0.88927295830E+00  0.88000000000E+00 0.  1.
        -11    1    4    4    0    0 -0.25002214145E-02 -0.61337599217E-02  0.11476322655E-01  0.13260513586E-01  0.51100000000E-03 0.  1.
         11    1    4    4    0    0  0.66293812524E-01 -0.67725944193E-01  0.71560257923E-01  0.11875523033E+00  0.51100000000E-03 0. -1.
</event>
<event>
 8    1  0.1091347E+005  0.1043930E+01  0.7957747E-01            NaN
         13   -1    0    0    0    0  0.00000000000E+00  0.00000000000E+00  0.74505805969E-08  0.10566000000E+00  0.10566000000E+00 0.  1.
     999900   -1    0    0    0    0 -0.00000000000E+00 -0.00000000000E+00 -0.74505805969E-08  0.93827000000E+00  0.93827000000E+00 0.  1.
     999902    2    1    2    0    0  0.12818414807E-01 -0.10528131911E-01  0.16534671290E-01  0.10205088840E+01  0.10202400863E+01 0.  0.
     999903    2    3    3    0    0 -0.73670103806E-01  0.73853937030E-01  0.75489684243E-01  0.13029750969E+00  0.19926374352E-01 0.  0.
         14    1    1    2    0    0 -0.12818414807E-01  0.10528131911E-01 -0.16534671290E-01  0.23421115993E-01  0.00000000000E+00 0. -1.
     999901    1    3    3    0    0  0.86488518612E-01 -0.84382068941E-01 -0.58955012953E-01  0.89021137432E+00  0.88000000000E+00 0.  1.
        -11    1    4    4    0    0 -0.12264645845E-01  0.23283411890E-01  0.23325814830E-01  0.35169497657E-01  0.51100000000E-03 0. -1.
         11    1    4    4    0    0 -0.61405457961E-01  0.50570525140E-01  0.52163869413E-01  0.95128012034E-01  0.51100000000E-03 0.  1.
</event>
<event>
 8    1  0.1091347E+005  0.1043930E+01  0.7957747E-01            NaN
         13   -1    0    0    0    0  0.00000000000E+00  0.00000000000E+00  0.74505805969E-08  0.10566000000E+00  0.10566000000E+00 0.  1.
     999900   -1    0    0    0    0 -0.00000000000E+00 -0.00000000000E+00 -0.74505805969E-08  0.93827000000E+00  0.93827000000E+00 0.  1.
     999902    2    1    2    0    0 -0.13141691105E-01  0.90935191040E-02 -0.17309340974E-01  0.10203713621E+01  0.10200993614E+01 0.  0.
     999903    2    3    3    0    0  0.28631050236E-01  0.54991698861E-01 -0.11561570693E+00  0.13272517898E+00  0.20128523637E-01 0.  0.
         14    1    1    2    0    0  0.13141691105E-01 -0.90935191040E-02  0.17309340974E-01  0.23558637901E-01  0.00000000000E+00 0.  1.
     999901    1    3    3    0    0 -0.41772741341E-01 -0.45898179757E-01  0.98306365958E-01  0.88764618312E+00  0.88000000000E+00 0. -1.
        -11    1    4    4    0    0  0.18920858434E-01  0.46964458763E-01 -0.77474831826E-01  0.92554146089E-01  0.51100000000E-03 0.  1.
         11    1    4    4    0    0  0.97101918025E-02  0.80272400973E-02 -0.38140875105E-01  0.40171032887E-01  0.51100000000E-03 0. -1.
</event>
<event>
 8    1  0.1091347E+005  0.1043930E+01  0.7957747E-01            NaN
         13   -1    0    0    0    0  0.00000000000E+00  0.00000000000E+00  0.74505805969E-08  0.10566000000E+00  0.10566000000E+00 0. -1.
     999900   -1    0    0    0    0 -0.00000000000E+00 -0.00000000000E+00 -0.74505805969E-08  0.93827000000E+00  0.93827000000E+00 0. -1.
     999902    2    1    2    0    0  0.21737216511E-02  0.23446893380E-01 -0.82363606201E-04  0.10203824171E+01  0.10201106747E+01 0.  0.
     999903    2    3    3    0    0 -0.68103559416E-01 -0.56603037070E-01  0.91911347871E-01  0.12919796342E+00  0.20060390647E-01 0.  0.
         14    1    1    2    0    0 -0.21737216511E-02 -0.23446893380E-01  0.82363606201E-04  0.23547582865E-01  0.00000000000E+00 0. -1.
     999901    1    3    3    0    0  0.70277281067E-01  0.80049930450E-01 -0.91993711477E-01  0.89118445372E+00  0.88000000000E+00 0. -1.
        -11    1    4    4    0    0 -0.35147501925E-01 -0.41944200630E-01  0.55496630024E-01  0.77941002836E-01  0.51100000000E-03 0.  1.
         11    1    4    4    0    0 -0.32956057490E-01 -0.14658836440E-01  0.36414717847E-01  0.51256960580E-01  0.51100000000E-03 0. -1.
</event>
<event>
 8    1  0.1091347E+005  0.1043930E+01  0.7957747E-01            NaN
         13   -1    0    0    0    0  0.00000000000E+00  0.00000000000E+00  0.74505805969E-08  0.10566000000E+00  0.10566000000E+00 0. -1.
     999900   -1    0    0    0    0 -0.00000000000E+00 -0.00000000000E+00 -0.74505805969E-08  0.93827000000E+00  0.93827000000E+00 0. -1.
     999902    2    1    2    0    0 -0.12385086516E-01  0.88584109864E-02  0.18258327802E-01  0.10201554685E+01  0.10198784004E+01 0.  0.
     999903    2    3    3    0    0  0.86456872183E-01 -0.86142448428E-01 -0.33088416787E-01  0.12806164819E+00  0.20239324142E-01 0.  0.
         14    1    1    2    0    0  0.12385086516E-01 -0.88584109864E-02 -0.18258327802E-01  0.23774531485E-01  0.00000000000E+00 0.  1.
     999901    1    3    3    0    0 -0.98841958700E-01  0.95000859414E-01  0.51346744589E-01  0.89209382033E+00  0.88000000000E+00 0.  1.
        -11    1    4    4    0    0  0.29061914593E-01 -0.20099484356E-01 -0.16511103247E-01  0.39005920097E-01  0.51100000000E-03 0.  1.
         11    1    4    4    0    0  0.57394957590E-01 -0.66042964072E-01 -0.16577313540E-01  0.89055728089E-01  0.51100000000E-03 0. -1.
</event>
<event>
 8    1  0.1091347E+005  0.1043930E+01  0.7957747E-01            NaN
         13   -1    0    0    0    0  0.00000000000E+00  0.00000000000E+00  0.74505805969E-08  0.10566000000E+00  0.10566000000E+00 0. -1.
     999900   -1    0    0    0    0 -0.00000000000E+00 -0.00000000000E+00 -0.74505805969E-08  0.93827000000E+00  0.93827000000E+00 0.  1.
     999902    2    1    2    0    0  0.10212419055E-01  0.11563384591E-01 -0.17877419634E-01  0.10203162858E+01  0.10200429969E+01 0.  0.
     999903    2    3    3    0    0 -0.24564475226E-01 -0.75093884795E-01 -0.10298391349E+00  0.13129320959E+00  0.19741212492E-01 0.  0.
         14    1    1    2    0    0 -0.10212419055E-01 -0.11563384591E-01  0.17877419634E-01  0.23613714213E-01  0.00000000000E+00 0. -1.
     999901    1    3    3    0    0  0.34776894281E-01  0.86657269386E-01  0.85106493854E-01  0.88902307620E+00  0.88000000000E+00 0. -1.
        -11    1    4    4    0    0 -0.10393077340E-01 -0.38265439223E-01 -0.36054274787E-01  0.53595072040E-01  0.51100000000E-03 0.  1.
         11    1    4    4    0    0 -0.14171397886E-01 -0.36828445572E-01 -0.66929638701E-01  0.77698137551E-01  0.51100000000E-03 0. -1.
</event>
<event>
 8    1  0.1091347E+005  0.1043930E+01  0.7957747E-01            NaN
         13   -1    0    0    0    0  0.00000000000E+00  0.00000000000E+00  0.74505805969E-08  0.10566000000E+00  0.10566000000E+00 0. -1.
     999900   -1    0    0    0    0 -0.00000000000E+00 -0.00000000000E+00 -0.74505805969E-08  0.93827000000E+00  0.93827000000E+00 0.  1.
     999902    2    1    2    0    0  0.11642647353E-01  0.20463309585E-03  0.20747621235E-01  0.10201380497E+01  0.10198605706E+01 0.  0.
     999903    2    3    3    0    0 -0.36841980314E-01  0.99221551525E-01 -0.70247907556E-01  0.12860269117E+00  0.20040854755E-01 0.  0.
         14    1    1    2    0    0 -0.11642647353E-01 -0.20463309585E-03 -0.20747621235E-01  0.23791950299E-01  0.00000000000E+00 0.  1.
     999901    1    3    3    0    0  0.48484627667E-01 -0.99016918429E-01  0.90995528791E-01  0.89153535853E+00  0.88000000000E+00 0.  1.
        -11    1    4    4    0    0 -0.10985088585E-01  0.37872487698E-01 -0.15380103913E-01  0.42329732021E-01  0.51100000000E-03 0. -1.
         11    1    4    4    0    0 -0.25856891729E-01  0.61349063827E-01 -0.54867803643E-01  0.86272959147E-01  0.51100000000E-03 0.  1.
</event>
<event>
 8    1  0.1091347E+005  0.1043930E+01  0.7957747E-01            NaN
         13   -1    0    0    0    0  0.00000000000E+00  0.00000000000E+00  0.74505805969E-08  0.10566000000E+00  0.10566000000E+00 0. -1.
     999900   -1    0    0    0    0 -0.00000000000E+00 -0.00000000000E+00 -0.74505805969E-08  0.93827000000E+00  0.93827000000E+00 0. -1.
     999902    2    1    2    0    0  0.58156308545E-02  0.22786124764E-01  0.29711114626E-02  0.10202264866E+01  0.10199510907E+01 0.  0.
     999903    2    3    3    0    0  0.73393075126E-01 -0.18391180887E-01 -0.10417728057E+00  0.13020229626E+00  0.19363707171E-01 0.  0.
         14    1    1    2    0    0 -0.58156308545E-02 -0.22786124764E-01 -0.29711114626E-02  0.23703513397E-01  0.00000000000E+00 0. -1.
     999901    1    3    3    0    0 -0.67577444271E-01  0.41177305651E-01  0.10714839203E+00  0.89002419034E+00  0.88000000000E+00 0.  1.
        -11    1    4    4    0    0  0.46810882901E-01 -0.19779486545E-02 -0.62426504322E-01  0.78054472016E-01  0.51100000000E-03 0. -1.
         11    1    4    4    0    0  0.26582192225E-01 -0.16413232232E-01 -0.41750776245E-01  0.52147824248E-01  0.51100000000E-03 0.  1.
</event>
<event>
 8    1  0.1091347E+005  0.1043930E+01  0.7957747E-01            NaN
         13   -1    0    0    0    0  0.00000000000E+00  0.00000000000E+00  0.74505805969E-08  0.10566000000E+00  0.10566000000E+00 0.  1.
     999900   -1    0    0    0    0 -0.00000000000E+00 -0.00000000000E+00 -0.74505805969E-08  0.93827000000E+00  0.93827000000E+00 0.  1.
     999902    2    1    2    0    0 -0.16865253009E-01  0.14083868044E-01  0.77714411105E-02  0.10206236190E+01  0.10203574787E+01 0.  0.
     999903    2    3    3    0    0 -0.11212166866E-01 -0.11191558339E+00  0.61960548127E-01  0.12998099794E+00  0.20128085080E-01 0.  0.
         14    1    1    2    0    0  0.16865253009E-01 -0.14083868044E-01 -0.77714411105E-02  0.23306380995E-01  0.00000000000E+00 0.  1.
     999901    1    3    3    0    0 -0.56530861427E-02  0.12599945143E+00 -0.54189107017E-01  0.89064262107E+00  0.88000000000E+00 0.  1.
        -11    1    4    4    0    0  0.40646720760E-02 -0.23886694901E-01  0.19254381006E-01  0.30952997614E-01  0.51100000000E-03 0. -1.
         11    1    4    4    0    0 -0.15276838942E-01 -0.88028888489E-01  0.42706167122E-01  0.99028000322E-01  0.51100000000E-03 0.  1.
</event>
<event>
 8    1  0.1091347E+005  0.1043930E+01  0.7957747E-01            NaN
         13   -1    0    0    0    0  0.00000000000E+00  0.00000000000E+00  0.74505805969E-08  0.10566000000E+00  0.10566000000E+00 0. -1.
     999900   -1    0    0    0    0 -0.00000000000E+00 -0.00000000000E+00 -0.74505805969E-08  0.93827000000E+00  0.93827000000E+00 0.  1.
     999902    2    1    2    0    0  0.96254400326E-02 -0.17918663776E-01  0.96297969897E-02  0.10214253205E+01  0.10211773719E+01 0.  0.
     999903    2    3    3    0    0  0.91993510281E-01  0.50887282357E-01 -0.75429246731E-01  0.13083349589E+00  0.19378104791E-01 0.  0.
         14    1    1    2    0    0 -0.96254400326E-02  0.17918663776E-01 -0.96297969897E-02  0.22504679455E-01  0.00000000000E+00 0.  1.
     999901    1    3    3    0    0 -0.82368070249E-01 -0.68805946133E-01  0.85059043721E-01  0.89059182465E+00  0.88000000000E+00 0.  1.
        -11    1    4    4    0    0  0.37061535251E-01  0.12767689624E-01 -0.20154340502E-01  0.44079812336E-01  0.51100000000E-03 0. -1.
         11    1    4    4    0    0  0.54931975030E-01  0.38119592734E-01 -0.55274906229E-01  0.86753683556E-01  0.51100000000E-03 0.  1.
</event>
<event>
 8    1  0.1091347E+005  0.1043930E+01  0.7957747E-01            NaN
         13   -1    0    0    0    0  0.00000000000E+00  0.00000000000E+00  0.74505805969E-08  0.10566000000E+00  0.10566000000E+00 0. -1.
     999900   -1    0    0    0    0 -0.00000000000E+00 -0.00000000000E+00 -0.74505805969E-08  0.93827000000E+00  0.93827000000E+00 0.  1.
     999902    2    1    2    0    0 -0.18947571726E-01 -0.46407198815E-02 -0.11864234588E-01  0.10210978556E+01  0.10208425559E+01 0.  0.
     999903    2    3    3    0    0  0.64533904523E-01 -0.42529272817E-01 -0.10372323373E+00  0.13157957303E+00  0.24110390780E-01 0.  0.
         14    1    1    2    0    0  0.18947571726E-01  0.46407198815E-02  0.11864234588E-01  0.22832144395E-01  0.00000000000E+00 0. -1.
     999901    1    3    3    0    0 -0.83481476248E-01  0.37888552935E-01  0.91858999139E-01  0.88951828258E+00  0.88000000000E+00 0. -1.
        -11    1    4    4    0    0  0.63724244165E-01 -0.42774805429E-01 -0.10493994223E+00  0.13001198356E+00  0.51100000000E-03 0. -1.
         11    1    4    4    0    0  0.80966035768E-03  0.24553261266E-03  0.12167084992E-02  0.15675894650E-02  0.51100000000E-03 0.  1.
</event>
<event>
 8    1  0.1091347E+005  0.1043930E+01  0.7957747E-01            NaN
         13   -1    0    0    0    0  0.00000000000E+00  0.00000000000E+00  0.74505805969E-08  0.10566000000E+00  0.10566000000E+00 0.  1.
     999900   -1    0    0    0    0 -0.00000000000E+00 -0.00000000000E+00 -0.74505805969E-08  0.93827000000E+00  0.93827000000E+00 0. -1.
     999902    2    1    2    0    0  0.22342254217E-01  0.67948767362E-02  0.38199214511E-02  0.10202669809E+01  0.10199925362E+01 0.  0.
     999903    2    3    3    0    0  0.72854807770E-01 -0.99887386648E-01  0.40173814565E-01  0.13164207187E+00  0.20745763025E-01 0.  0.
         14    1    1    2    0    0 -0.22342254217E-01 -0.67948767362E-02 -0.38199214511E-02  0.23663019107E-01  0.00000000000E+00 0.  1.
     999901    1    3    3    0    0 -0.50512553552E-01  0.10668226338E+00 -0.36353893114E-01  0.88862490902E+00  0.88000000000E+00 0. -1.
        -11    1    4    4    0    0  0.51602151432E-01 -0.63355541433E-01  0.35590432574E-01  0.89127137699E-01  0.51100000000E-03 0. -1.
         11    1    4    4    0    0  0.21252656338E-01 -0.36531845216E-01  0.45833819916E-02  0.42514934173E-01  0.51100000000E-03 0.  1.
</event>
<event>
 8    1  0.1091347E+005  0.1043930E+01  0.7957747E-01            NaN
         13   -1    0    0    0    0  0.00000000000E+00  0.00000000000E+00  0.74505805969E-08  0.10566000000E+00  0.10566000000E+00 0.  1.
     999900   -1    0    0    0    0 -0.00000000000E+00 -0.00000000000E+00 -0.74505805969E-08  0.93827000000E+00  0.93827000000E+00 0. -1.
     999902    2    1    2    0    0  0.22928255643E-01  0.48069868665E-02 -0.32606891559E-02  0.10202774288E+01  0.10200032292E+01 0.  0.
     999903    2    3    3    0    0 -0.76767124269E-01  0.54687312597E-01 -0.86365129852E-01  0.12936016906E+00  0.19779387204E-01 0.  0.
         14    1    1    2    0    0 -0.22928255643E-01 -0.48069868665E-02  0.32606891559E-02  0.23652571179E-01  0.00000000000E+00 0.  1.
     999901    1    3    3    0    0  0.99695379913E-01 -0.49880325731E-01  0.83104440696E-01  0.89091725976E+00  0.88000000000E+00 0. -1.
        -11    1    4    4    0    0 -0.56269437216E-01  0.49994653857E-01 -0.67680921834E-01  0.10122590222E+00  0.51100000000E-03 0. -1.
         11    1    4    4    0    0 -0.20497687053E-01  0.46926587398E-02 -0.18684208018E-01  0.28134266844E-01  0.51100000000E-03 0.  1.
</event>
<event>
 8    1  0.1091347E+005  0.1043930E+01  0.7957747E-01            NaN
         13   -1    0    0    0    0  0.00000000000E+00  0.00000000000E+00  0.74505805969E-08  0.10566000000E+00  0.10566000000E+00 0. -1.
     999900   -1    0    0    0    0 -0.00000000000E+00 -0.00000000000E+00 -0.74505805969E-08  0.93827000000E+00  0.93827000000E+00 0. -1.
     999902    2    1    2    0    0 -0.17634544306E-01  0.50197314863E-02  0.14579387546E-01  0.10205049408E+01  0.10202360515E+01 0.  0.
     999903    2    3    3    0    0  0.47316380388E-01 -0.71995094207E-01 -0.92761756021E-01  0.12827625538E+00  0.20686248358E-01 0.  0.
         14    1    1    2    0    0  0.17634544306E-01 -0.50197314863E-02 -0.14579387546E-01  0.23425059195E-01  0.00000000000E+00 0.  1.
     999901    1    3    3    0    0 -0.64950924694E-01  0.77014825693E-01  0.10734114357E+00  0.89222868543E+00  0.88000000000E+00 0. -1.
        -11    1    4    4    0    0  0.73565493942E-02 -0.17550014214E-01 -0.32986674672E-01  0.38085478136E-01  0.51100000000E-03 0. -1.
         11    1    4    4    0    0  0.39959830994E-01 -0.54445079993E-01 -0.59775081348E-01  0.90190777243E-01  0.51100000000E-03 0.  1.
</event>
<event>
 8    1  0.1091347E+005  0.1043930E+01  0.7957747E-01            NaN
         13   -1    0    0    0    0  0.00000000000E+00  0.00000000000E+00  0.74505805969E-08  0.10566000000E+00  0.10566000000E+00 0. -1.
     999900   -1    0    0    0    0 -0.00000000000E+00 -0.00000000000E+00 -0.74505805969E-08  0.93827000000E+00  0.93827000000E+00 0. -1.
     999902    2    1    2    0    0  0.10893746130E-01 -0.19289054214E-01  0.61454922420E-02  0.10209406896E+01  0.10206818228E+01 0.  0.
     999903    2    3    3    0    0 -0.12031033797E+00 -0.13199851351E-01  0.42722936010E-01  0.13044111102E+00  0.23255551687E-01 0.  0.
         14    1    1    2    0    0 -0.10893746130E-01  0.19289054214E-01 -0.61454922420E-02  0.22989310388E-01  0.00000000000E+00 0. -1.
     999901    1    3    3    0    0  0.13120408410E+00 -0.60892028627E-02 -0.36577443768E-01  0.89049957859E+00  0.88000000000E+00 0. -1.
        -11    1    4    4    0    0 -0.24557868736E-01 -0.86005709297E-02  0.17341469609E-01  0.31273733809E-01  0.51100000000E-03 0.  1.
         11    1    4    4    0    0 -0.95752469238E-01 -0.45992804213E-02  0.25381466401E-01  0.99167377213E-01  0.51100000000E-03 0. -1.
</event>
<event>
 8    1  0.1091347E+005  0.1043930E+01  0.7957747E-01            NaN
         13   -1    0    0    0    0  0.00000000000E+00  0.00000000000E+00  0.74505805969E-08  0.10566000000E+00  0.10566000000E+00 0. -1.
     999900   -1    0    0    0    0 -0.00000000000E+00 -0.00000000000E+00 -0.74505805969E-08  0.93827000000E+00  0.93827000000E+00 0. -1.
     999902    2    1    2    0    0  0.11419688124E-03  0.23502408995E-01 -0.40394246409E-02  0.10200827104E+01  0.10198039237E+01 0.  0.
     999903    2    3    3    0    0  0.24253172368E-01 -0.12306080846E+00 -0.17248241984E-01  0.12753694704E+00  0.15362033093E-01 0.  0.
         14    1    1    2    0    0 -0.11419688124E-03 -0.23502408995E-01  0.40394246409E-02  0.23847289593E-01  0.00000000000E+00 0.  1.
     999901    1    3    3    0    0 -0.24138975486E-01  0.14656321745E+00  0.13208817344E-01  0.89254576337E+00  0.88000000000E+00 0.  1.
        -11    1    4    4    0    0  0.10515003136E-01 -0.36210095925E-01 -0.11470219383E-01  0.39415268508E-01  0.51100000000E-03 0.  1.
         11    1    4    4    0    0  0.13738169232E-01 -0.86850712533E-01 -0.57780226011E-02  0.88121678533E-01  0.51100000000E-03 0. -1.
</event>
<event>
 8    1  0.1091347E+005  0.1043930E+01  0.7957747E-01            NaN
         13   -1    0    0    0    0  0.00000000000E+00  0.00000000000E+00  0.74505805969E-08  0.10566000000E+00  0.10566000000E+00 0. -1.
     999900   -1    0    0    0    0 -0.00000000000E+00 -0.00000000000E+00 -0.74505805969E-08  0.93827000000E+00  0.93827000000E+00 0. -1.
     999902    2    1    2    0    0 -0.10013298993E-01 -0.81255672917E-02 -0.19826061889E-01  0.10202791283E+01  0.10200049686E+01 0.  0.
     999903    2    3    3    0    0  0.10584032132E+00 -0.20039117520E-01 -0.72969463733E-01  0.13101639147E+00  0.15395205377E-01 0.  0.
         14    1    1    2    0    0  0.10013298993E-01  0.81255672917E-02  0.19826061889E-01  0.23650871666E-01  0.00000000000E+00 0. -1.
     999901    1    3    3    0    0 -0.11585362031E+00  0.11913550228E-01  0.53143401844E-01  0.88926273687E+00  0.88000000000E+00 0. -1.
        -11    1    4    4    0    0  0.84179752185E-01 -0.99610544613E-02 -0.54008495001E-01  0.10051184973E+00  0.51100000000E-03 0.  1.
         11    1    4    4    0    0  0.21660569132E-01 -0.10078063058E-01 -0.18960968732E-01  0.30504541734E-01  0.51100000000E-03 0. -1.
</event>
<event>
 8    1  0.1091347E+005  0.1043930E+01  0.7957747E-01            NaN
         13   -1    0    0    0    0  0.00000000000E+00  0.00000000000E+00  0.74505805969E-08  0.10566000000E+00  0.10566000000E+00 0. -1.
     999900   -1    0    0    0    0 -0.00000000000E+00 -0.00000000000E+00 -0.74505805969E-08  0.93827000000E+00  0.93827000000E+00 0. -1.
     999902    2    1    2    0    0 -0.11041227198E-02 -0.12588723804E-01  0.20116443224E-01  0.10201736042E+01  0.10198969636E+01 0.  0.
     999903    2    3    3    0    0 -0.76582135485E-01  0.65141535476E-01 -0.77012417380E-01  0.12822464871E+00  0.20060034544E-01 0.  0.
         14    1    1    2    0    0  0.11041227198E-02  0.12588723804E-01 -0.20116443224E-01  0.23756395812E-01  0.00000000000E+00 0.  1.
     999901    1    3    3    0    0  0.75478012766E-01 -0.77730259280E-01  0.97128860604E-01  0.89194895548E+00  0.88000000000E+00 0.  1.
        -11    1    4    4    0    0 -0.44270812129E-01  0.49920823539E-01 -0.52491507178E-01  0.84897661194E-01  0.51100000000E-03 0. -1.
         11    1    4    4    0    0 -0.32311323357E-01  0.15220711937E-01 -0.24520910202E-01  0.43326987514E-01  0.51100000000E-03 0.  1.
</event>
<event>
 8    1  0.1091347E+005  0.1043930E+01  0.7957747E-01            NaN
         13   -1    0    0    0    0  0.00000000000E+00  0.00000000000E+00  0.74505805969E-08  0.10566000000E+00  0.10566000000E+00 0. -1.
     999900   -1    0    0    0    0 -0.00000000000E+00 -0.00000000000E+00 -0.74505805969E-08  0.93827000000E+00  0.93827000000E+00 0.  1.
     999902    2    1    2    0    0 -0.52903868659E-02 -0.16084899354E-01  0.17750602000E-01  0.10193984682E+01  0.10191032533E+01 0.  0.
     999903    2    3    3    0    0 -0.13527558917E-01  0.67898846628E-01 -0.10477469734E+00  0.12691117443E+00  0.18315588102E-01 0.  0.
         14    1    1    2    0    0  0.52903868659E-02  0.16084899354E-01 -0.17750602000E-01  0.24531531786E-01  0.00000000000E+00 0.  1.
     999901    1    3    3    0    0  0.82371720507E-02 -0.83983745982E-01  0.12252529934E+00  0.89248729379E+00  0.88000000000E+00 0. -1.
        -11    1    4    4    0    0 -0.12933028665E-01  0.41058043984E-01 -0.50514586666E-01  0.66370255335E-01  0.51100000000E-03 0. -1.
         11    1    4    4    0    0 -0.59453025114E-03  0.26840802644E-01 -0.54260110677E-01  0.60540919092E-01  0.51100000000E-03 0.  1.
</event>
<event>
 8    1  0.1091347E+005  0.1043930E+01  0.7957747E-01            NaN
         13   -1    0    0    0    0  0.00000000000E+00  0.00000000000E+00  0.74505805969E-08  0.10566000000E+00  0.10566000000E+00 0.  1.
     999900   -1    0    0    0    0 -0.00000000000E+00 -0.00000000000E+00 -0.74505805969E-08  0.93827000000E+00  0.93827000000E+00 0. -1.
     999902    2    1    2    0    0 -0.71383210000E-02  0.13887542245E-01 -0.18145116691E-01  0.10199912299E+01  0.10197102747E+01 0.  0.
     999903    2    3    3    0    0 -0.17282134658E-01 -0.10232617959E+00  0.71566844956E-01  0.12777109886E+00  0.20840374245E-01 0.  0.
         14    1    1    2    0    0  0.71383210000E-02 -0.13887542245E-01  0.18145116691E-01  0.23938770145E-01  0.00000000000E+00 0.  1.
     999901    1    3    3    0    0  0.10143813658E-01  0.11621372183E+00 -0.89711961647E-01  0.89222013100E+00  0.88000000000E+00 0. -1.
        -11    1    4    4    0    0 -0.14367171505E-01 -0.61023434110E-01  0.31545320635E-01  0.70182928855E-01  0.51100000000E-03 0.  1.
         11    1    4    4    0    0 -0.29149631530E-02 -0.41302745477E-01  0.40021524321E-01  0.57588170001E-01  0.51100000000E-03 0. -1.
</event>
<event>
 8    1  0.1091347E+005  0.1043930E+01  0.7957747E-01            NaN
         13   -1    0    0    0    0  0.00000000000E+00  0.00000000000E+00  0.74505805969E-08  0.10566000000E+00  0.10566000000E+00 0.  1.
     999900   -1    0    0    0    0 -0.00000000000E+00 -0.00000000000E+00 -0.74505805969E-08  0.93827000000E+00  0.93827000000E+00 0.  1.
     999902    2    1    2    0    0  0.15648497867E-01 -0.10138989864E-01 -0.14918179303E-01  0.10200505805E+01  0.10197710332E+01 0.  0.
     999903    2    3    3    0    0  0.10693671603E+00 -0.56242319720E-01 -0.52725461194E-01  0.13332150895E+00  0.19899515817E-01 0.  0.
         14    1    1    2    0    0 -0.15648497867E-01  0.10138989864E-01  0.14918179303E-01  0.23879419479E-01  0.00000000000E+00 0. -1.
     999901    1    3    3    0    0 -0.91288218159E-01  0.46103329856E-01  0.37807281890E-01  0.88672907157E+00  0.88000000000E+00 0.  1.
        -11    1    4    4    0    0  0.54760880791E-01 -0.17608475314E-01 -0.24239358738E-01  0.62422913268E-01  0.51100000000E-03 0. -1.
         11    1    4    4    0    0  0.52175835235E-01 -0.38633844406E-01 -0.28486102456E-01  0.70898595685E-01  0.51100000000E-03 0.  1.
</event>
<event>
 8    1  0.1091347E+005  0.1043930E+01  0.7957747E-01            NaN
         13   -1    0    0    0    0  0.00000000000E+00  0.00000000000E+00  0.74505805969E-08  0.10566000000E+00  0.10566000000E+00 0. -1.
     999900   -1    0    0    0    0 -0.00000000000E+00 -0.00000000000E+00 -0.74505805969E-08  0.93827000000E+00  0.93827000000E+00 0.  1.
     999902    2    1    2    0    0 -0.19191841026E-01  0.13042542079E-01 -0.75534707140E-03  0.10207135142E+01  0.10204494465E+01 0.  0.
     999903    2    3    3    0    0 -0.68884844608E-01 -0.10911512093E+00  0.87736722937E-02  0.13083560598E+00  0.19742011919E-01 0.  0.
         14    1    1    2    0    0  0.19191841026E-01 -0.13042542079E-01  0.75534707140E-03  0.23216485847E-01  0.00000000000E+00 0.  1.
     999901    1    3    3    0    0  0.49693003582E-01  0.12215766301E+00 -0.95290193651E-02  0.88987790817E+00  0.88000000000E+00 0. -1.
        -11    1    4    4    0    0 -0.18061672705E-01 -0.38350798805E-01 -0.47776668232E-02  0.42662571549E-01  0.51100000000E-03 0.  1.
         11    1    4    4    0    0 -0.50823171904E-01 -0.70764322128E-01  0.13551339117E-01  0.88173034435E-01  0.51100000000E-03 0. -1.
</event>
<event>
 8    1  0.1091347E+005  0.1043930E+01  0.7957747E-01            NaN
         13   -1    0    0    0    0  0.00000000000E+00  0.00000000000E+00  0.74505805969E-08  0.10566000000E+00  0.10566000000E+00 0. -1.
     999900   -1    0    0    0    0 -0.00000000000E+00 -0.00000000000E+00 -0.74505805969E-08  0.93827000000E+00  0.93827000000E+00 0. -1.
     999902    2    1    2    0    0  0.68146098005E-02  0.18920374911E-01  0.13077235980E-01  0.10199418030E+01  0.10196596726E+01 0.  0.
     999903    2    3    3    0    0 -0.39854602669E-01 -0.30822367785E-01  0.11923137477E+00  0.13094177095E+00  0.19779255300E-01 0.  0.
         14    1    1    2    0    0 -0.68146098005E-02 -0.18920374911E-01 -0.13077235980E-01  0.23988196981E-01  0.00000000000E+00 0.  1.
     999901    1    3    3    0    0  0.46669212469E-01  0.49742742696E-01 -0.10615413879E+00  0.88900003207E+00  0.88000000000E+00 0. -1.
        -11    1    4    4    0    0 -0.12392915930E-01 -0.25830647455E-02  0.15734877358E-01  0.20201585958E-01  0.51100000000E-03 0.  1.
         11    1    4    4    0    0 -0.27461686739E-01 -0.28239303040E-01  0.10349649741E+00  0.11074018499E+00  0.51100000000E-03 0. -1.
</event>
<event>
 8    1  0.1091347E+005  0.1043930E+01  0.7957747E-01            NaN
         13   -1    0    0    0    0  0.00000000000E+00  0.00000000000E+00  0.74505805969E-08  0.10566000000E+00  0.10566000000E+00 0.  1.
     999900   -1    0    0    0    0 -0.00000000000E+00 -0.00000000000E+00 -0.74505805969E-08  0.93827000000E+00  0.93827000000E+00 0. -1.
     999902    2    1    2    0    0 -0.21943107369E-01  0.87075471284E-02 -0.29480084005E-02  0.10201389914E+01  0.10198615345E+01 0.  0.
     999903    2    3    3    0    0  0.32211760368E-02 -0.12183302100E+00  0.38247016288E-01  0.12920065953E+00  0.19398845021E-01 0.  0.
         14    1    1    2    0    0  0.21943107369E-01 -0.87075471284E-02  0.29480084005E-02  0.23791008628E-01  0.00000000000E+00 0.  1.
     999901    1    3    3    0    0 -0.25164283406E-01  0.13054056812E+00 -0.41195024689E-01  0.89093833184E+00  0.88000000000E+00 0. -1.
        -11    1    4    4    0    0  0.85133116372E-02 -0.10088883184E+00  0.26744350252E-01  0.10472131710E+00  0.51100000000E-03 0. -1.
         11    1    4    4    0    0 -0.52921356004E-02 -0.20944189160E-01  0.11502666036E-01  0.24479342428E-01  0.51100000000E-03 0.  1.
</event>
<event>
 8    1  0.1091347E+005  0.1043930E+01  0.7957747E-01            NaN
         13   -1    0    0    0    0  0.00000000000E+00  0.00000000000E+00  0.74505805969E-08  0.10566000000E+00  0.10566000000E+00 0.  1.
     999900   -1    0    0    0    0 -0.00000000000E+00 -0.00000000000E+00 -0.74505805969E-08  0.93827000000E+00  0.93827000000E+00 0.  1.
     999902    2    1    2    0    0 -0.70392451437E-02  0.23103162185E-01 -0.61382114736E-02  0.10190104351E+01  0.10187056896E+01 0.  0.
     999903    2    3    3    0    0 -0.63255123104E-01  0.46986179500E-01 -0.10339286818E+00  0.13154827156E+00  0.20148223154E-01 0.  0.
         14    1    1    2    0    0  0.70392451437E-02 -0.23103162185E-01  0.61382114736E-02  0.24919564908E-01  0.00000000000E+00 0.  1.
     999901    1    3    3    0    0  0.56215877961E-01 -0.23883017315E-01  0.97254656708E-01  0.88746216353E+00  0.88000000000E+00 0. -1.
        -11    1    4    4    0    0 -0.50860046880E-01  0.39158023322E-01 -0.69447995589E-01  0.94569447347E-01  0.51100000000E-03 0. -1.
         11    1    4    4    0    0 -0.12395076224E-01  0.78281561780E-02 -0.33944872593E-01  0.36978824212E-01  0.51100000000E-03 0.  1.
</event>
<event>
 8    1  0.1091347E+005  0.1043930E+01  0.7957747E-01            NaN
         13   -1    0    0    0    0  0.00000000000E+00  0.00000000000E+00  0.74505805969E-08  0.10566000000E+00  0.10566000000E+00 0.  1.
     999900   -1    0    0    0    0 -0.00000000000E+00 -0.00000000000E+00 -0.74505805969E-08  0.93827000000E+00  0.93827000000E+00 0.  1.
     999902    2    1    2    0    0 -0.15462068058E-01  0.13741748115E-01  0.95270654039E-02  0.10211555370E+01  0.10209015401E+01 0.  0.
     999903    2    3    3    0    0 -0.22267194004E-01  0.12729674438E+00 -0.25148682982E-01  0.13315584418E+00  0.19943257648E-01 0.  0.
         14    1    1    2    0    0  0.15462068058E-01 -0.13741748115E-01 -0.95270654039E-02  0.22774463004E-01  0.00000000000E+00 0. -1.
     999901    1    3    3    0    0  0.68051259460E-02 -0.11355499626E+00  0.34675748386E-01  0.88799969282E+00  0.88000000000E+00 0. -1.
        -11    1    4    4    0    0 -0.97240331485E-02  0.56998552634E-01 -0.12001234075E-02  0.57836781033E-01  0.51100000000E-03 0. -1.
         11    1    4    4    0    0 -0.12543160856E-01  0.70298191744E-01 -0.23948559575E-01  0.75319063147E-01  0.51100000000E-03 0.  1.
</event>
<event>
 8    1  0.1091347E+005  0.1043930E+01  0.7957747E-01            NaN
         13   -1    0    0    0    0  0.00000000000E+00  0.00000000000E+00  0.74505805969E-08  0.10566000000E+00  0.10566000000E+00 0.  1.
     999900   -1    0    0    0    0 -0.00000000000E+00 -0.00000000000E+00 -0.74505805969E-08  0.93827000000E+00  0.93827000000E+00 0. -1.
     999902    2    1    2    0    0 -0.21478272646E-01 -0.76195008003E-02  0.42291078560E-03  0.10211363201E+01  0.10208818896E+01 0.  0.
     999903    2    3    3    0    0  0.21330415659E-01 -0.12573007582E+00 -0.26639538723E-01  0.13180226147E+00  0.19978300950E-01 0.  0.
         14    1    1    2    0    0  0.21478272646E-01  0.76195008003E-02 -0.42291078560E-03  0.22793679866E-01  0.00000000000E+00 0.  1.
     999901    1    3    3    0    0 -0.42808688305E-01  0.11811057501E+00  0.27062449509E-01  0.88933405866E+00  0.88000000000E+00 0. -1.
        -11    1    4    4    0    0  0.25185556434E-01 -0.10579296859E+00 -0.23255664637E-01  0.11120949382E+00  0.51100000000E-03 0.  1.
         11    1    4    4    0    0 -0.38551407745E-02 -0.19937107222E-01 -0.33838740863E-02  0.20592767653E-01  0.51100000000E-03 0. -1.
</event>
<event>
 8    1  0.1091347E+005  0.1043930E+01  0.7957747E-01            NaN
         13   -1    0    0    0    0  0.00000000000E+00  0.00000000000E+00  0.74505805969E-08  0.10566000000E+00  0.10566000000E+00 0. -1.
     999900   -1    0    0    0    0 -0.00000000000E+00 -0.00000000000E+00 -0.74505805969E-08  0.93827000000E+00  0.93827000000E+00 0.  1.
     999902    2    1    2    0    0 -0.21822181284E-02  0.21170244964E-01  0.11678673775E-01  0.10196538230E+01  0.10193647954E+01 0.  0.
     999903    2    3    3    0    0 -0.70935257468E-01  0.76448147736E-02 -0.10560363243E+00  0.12911182118E+00  0.20675619518E-01 0.  0.
         14    1    1    2    0    0  0.21822181284E-02 -0.21170244964E-01 -0.11678673775E-01  0.24276176984E-01  0.00000000000E+00 0.  1.
     999901    1    3    3    0    0  0.68753039340E-01  0.13525430191E-01  0.11728230620E+00  0.89054200183E+00  0.88000000000E+00 0. -1.
        -11    1    4    4    0    0 -0.33746755049E-01 -0.40726435362E-02 -0.61270418651E-01  0.70069645528E-01  0.51100000000E-03 0.  1.
         11    1    4    4    0    0 -0.37188502419E-01  0.11717458310E-01 -0.44333213776E-01  0.59042175655E-01  0.51100000000E-03 0. -1.
</event>
<event>
 8    1  0.1091347E+005  0.1043930E+01  0.7957747E-01            NaN
         13   -1    0    0    0    0  0.00000000000E+00  0.00000000000E+00  0.74505805969E-08  0.10566000000E+00  0.10566000000E+00 0.  1.
     999900   -1    0    0    0    0 -0.00000000000E+00 -0.00000000000E+00 -0.74505805969E-08  0.93827000000E+00  0.93827000000E+00 0.  1.
     999902    2    1    2    0    0 -0.74729337465E-02  0.11959145437E-01  0.18859153891E-01  0.10203814632E+01  0.10201096985E+01 0.  0.
     999903    2    3    3    0    0  0.17352082107E-02  0.82941921395E-01  0.10299248059E+00  0.13347574050E+00  0.18054056883E-01 0.  0.
         14    1    1    2    0    0  0.74729337465E-02 -0.11959145437E-01 -0.18859153891E-01  0.23548536767E-01  0.00000000000E+00 0. -1.
     999901    1    3    3    0    0 -0.92081419572E-02 -0.70982775957E-01 -0.84133326704E-01  0.88690572274E+00  0.88000000000E+00 0.  1.
        -11    1    4    4    0    0 -0.27766116740E-03  0.40858521553E-01  0.36687117597E-01  0.54915404012E-01  0.51100000000E-03 0.  1.
         11    1    4    4    0    0  0.20128693781E-02  0.42083399842E-01  0.66305362998E-01  0.78560336485E-01  0.51100000000E-03 0. -1.
</event>
<event>
 8    1  0.1091347E+005  0.1043930E+01  0.7957747E-01            NaN
         13   -1    0    0    0    0  0.00000000000E+00  0.00000000000E+00  0.74505805969E-08  0.10566000000E+00  0.10566000000E+00 0.  1.
     999900   -1    0    0    0    0 -0.00000000000E+00 -0.00000000000E+00 -0.74505805969E-08  0.93827000000E+00  0.93827000000E+00 0. -1.
     999902    2    1    2    0    0 -0.14176463707E-01  0.28917663578E-03 -0.18724418010E-01  0.10204425656E+01  0.10201722257E+01 0.  0.
     999903    2    3    3    0    0 -0.73338903525E-01 -0.10561914102E+00  0.17408620229E-01  0.13138555812E+00  0.20618125644E-01 0.  0.
         14    1    1    2    0    0  0.14176463707E-01 -0.28917663578E-03  0.18724418010E-01  0.23487434431E-01  0.00000000000E+00 0.  1.
     999901    1    3    3    0    0  0.59162439818E-01  0.10590831766E+00 -0.36133038238E-01  0.88905700744E+00  0.88000000000E+00 0. -1.
        -11    1    4    4    0    0 -0.28045570919E-01 -0.58365148605E-01  0.76987006352E-02  0.65211776025E-01  0.51100000000E-03 0.  1.
         11    1    4    4    0    0 -0.45293332606E-01 -0.47253992416E-01  0.97099195934E-02  0.66173782099E-01  0.51100000000E-03 0. -1.
</event>
<event>
 8    1  0.1091347E+005  0.1043930E+01  0.7957747E-01            NaN
         13   -1    0    0    0    0  0.00000000000E+00  0.00000000000E+00  0.74505805969E-08  0.10566000000E+00  0.10566000000E+00 0.  1.
     999900   -1    0    0    0    0 -0.00000000000E+00 -0.00000000000E+00 -0.74505805969E-08  0.93827000000E+00  0.93827000000E+00 0. -1.
     999902    2    1    2    0    0  0.80956213568E-02 -0.18767035284E-01 -0.16749682902E-01  0.10175047739E+01  0.10171615763E+01 0.  0.
     999903    2    3    3    0    0  0.95484606690E-02 -0.88174252659E-01 -0.94836280749E-01  0.13132364717E+00  0.19649636798E-01 0.  0.
         14    1    1    2    0    0 -0.80956213568E-02  0.18767035284E-01  0.16749682902E-01  0.26425226126E-01  0.00000000000E+00 0. -1.
     999901    1    3    3    0    0 -0.14528393122E-02  0.69407217374E-01  0.78086597847E-01  0.88618112671E+00  0.88000000000E+00 0.  1.
        -11    1    4    4    0    0  0.36197727189E-02 -0.32063202061E-01 -0.48777327000E-01  0.58486241384E-01  0.51100000000E-03 0. -1.
         11    1    4    4    0    0  0.59286879502E-02 -0.56111050597E-01 -0.46058953748E-01  0.72837405784E-01  0.51100000000E-03 0.  1.
</event>
<event>
 8    1  0.1091347E+005  0.1043930E+01  0.7957747E-01            NaN
         13   -1    0    0    0    0  0.00000000000E+00  0.00000000000E+00  0.74505805969E-08  0.10566000000E+00  0.10566000000E+00 0.  1.
     999900   -1    0    0    0    0 -0.00000000000E+00 -0.00000000000E+00 -0.74505805969E-08  0.93827000000E+00  0.93827000000E+00 0.  1.
     999902    2    1    2    0    0  0.24594086859E-01  0.46112362633E-03  0.11313945334E-01  0.10168544187E+01  0.10164938867E+01 0.  0.
     999903    2    3    3    0    0 -0.87751877351E-01  0.51507293451E-01  0.71963003674E-01  0.12617735298E+00  0.19714391969E-01 0.  0.
         14    1    1    2    0    0 -0.24594086859E-01 -0.46112362633E-03 -0.11313945334E-01  0.27075581294E-01  0.00000000000E+00 0. -1.
     999901    1    3    3    0    0  0.11234596421E+00 -0.51046169824E-01 -0.60649058340E-01  0.89067706572E+00  0.88000000000E+00 0.  1.
        -11    1    4    4    0    0 -0.32491538622E-01  0.30264274597E-01  0.32419194852E-01  0.54980830430E-01  0.51100000000E-03 0. -1.
         11    1    4    4    0    0 -0.55260338729E-01  0.21243018853E-01  0.39543808822E-01  0.71196522553E-01  0.51100000000E-03 0.  1.
</event>
<event>
 8    1  0.1091347E+005  0.1043930E+01  0.7957747E-01            NaN
         13   -1    0    0    0    0  0.00000000000E+00  0.00000000000E+00  0.74505805969E-08  0.10566000000E+00  0.10566000000E+00 0. -1.
     999900   -1    0    0    0    0 -0.00000000000E+00 -0.00000000000E+00 -0.74505805969E-08  0.93827000000E+00  0.93827000000E+00 0.  1.
     999902    2    1    2    0    0  0.56036249675E-02 -0.19446070752E-01 -0.13204997250E-01  0.10197655171E+01  0.10194791747E+01 0.  0.
     999903    2    3    3    0    0  0.70550286116E-01 -0.10812825317E+00  0.20221175784E-01  0.13229726005E+00  0.20605995744E-01 0.  0.
         14    1    1    2    0    0 -0.56036249675E-02  0.19446070752E-01  0.13204997250E-01  0.24164482879E-01  0.00000000000E+00 0. -1.
     999901    1    3    3    0    0 -0.64946661149E-01  0.88682182419E-01 -0.33426173033E-01  0.88746825708E+00  0.88000000000E+00 0.  1.
        -11    1    4    4    0    0  0.54408118864E-01 -0.89630077406E-01  0.88186970247E-02  0.10522273857E+00  0.51100000000E-03 0.  1.
         11    1    4    4    0    0  0.16142167252E-01 -0.18498175765E-01  0.11402478759E-01  0.27074521474E-01  0.51100000000E-03 0. -1.
</event>
<event>
 8    1  0.1091347E+005  0.1043930E+01  0.7957747E-01            NaN
         13   -1    0    0    0    0  0.00000000000E+00  0.00000000000E+00  0.74505805969E-08  0.10566000000E+00  0.10566000000E+00 0.  1.
     999900   -1    0    0    0    0 -0.00000000000E+00 -0.00000000000E+00 -0.74505805969E-08  0.93827000000E+00  0.93827000000E+00 0.  1.
     999902    2    1    2    0    0  0.36071542337E-02  0.19991616496E-01  0.12376884993E-01  0.10201421129E+01  0.10198647297E+01 0.  0.
     999903    2    3    3    0    0 -0.78592889069E-02 -0.92971654642E-01  0.87699500773E-01  0.12965591063E+00  0.20345902182E-01 0.  0.
         14    1    1    2    0    0 -0.36071542337E-02 -0.19991616496E-01 -0.12376884993E-01  0.23787887126E-01  0.00000000000E+00 0.  1.
     999901    1    3    3    0    0  0.11466443141E-01  0.11296327114E+00 -0.75322615780E-01  0.89048620225E+00  0.88000000000E+00 0.  1.
        -11    1    4    4    0    0 -0.14718395371E-02 -0.82682078612E-01  0.81218874172E-01  0.11591056500E+00  0.51100000000E-03 0. -1.
         11    1    4    4    0    0 -0.63874493698E-02 -0.10289576031E-01  0.64806266010E-02  0.13745345630E-01  0.51100000000E-03 0.  1.
</event>
<event>
 8    1  0.1091347E+005  0.1043930E+01  0.7957747E-01            NaN
         13   -1    0    0    0    0  0.00000000000E+00  0.00000000000E+00  0.74505805969E-08  0.10566000000E+00  0.10566000000E+00 0. -1.
     999900   -1    0    0    0    0 -0.00000000000E+00 -0.00000000000E+00 -0.74505805969E-08  0.93827000000E+00  0.93827000000E+00 0. -1.
     999902    2    1    2    0    0 -0.14234938783E-01 -0.80536851361E-02 -0.17481313197E-01  0.10199906676E+01  0.10197096990E+01 0.  0.
     999903    2    3    3    0    0  0.12419109756E-01 -0.12302874008E+00  0.36237746276E-01  0.13048775081E+00  0.20580905764E-01 0.  0.
         14    1    1    2    0    0  0.14234938783E-01  0.80536851361E-02  0.17481313197E-01  0.23939332437E-01  0.00000000000E+00 0. -1.
     999901    1    3    3    0    0 -0.26654048539E-01  0.11497505495E+00 -0.53719059473E-01  0.88950291675E+00  0.88000000000E+00 0.  1.
        -11    1    4    4    0    0  0.42317724025E-02 -0.74654339213E-01  0.11895436020E-01  0.75716185720E-01  0.51100000000E-03 0. -1.
         11    1    4    4    0    0  0.81873373536E-02 -0.48374400872E-01  0.24342310255E-01  0.54771565088E-01  0.51100000000E-03 0.  1.
</event>
<event>
 8    1  0.1091347E+005  0.1043930E+01  0.7957747E-01            NaN
         13   -1    0    0    0    0  0.00000000000E+00  0.00000000000E+00  0.74505805969E-08  0.10566000000E+00  0.10566000000E+00 0.  1.
     999900   -1    0    0    0    0 -0.00000000000E+00 -0.00000000000E+00 -0.74505805969E-08  0.93827000000E+00  0.93827000000E+00 0.  1.
     999902    2    1    2    0    0  0.14670322309E-02 -0.11345385180E-02  0.23442256229E-01  0.10204145000E+01  0.10201435062E+01 0.  0.
     999903    2    3    3    0    0 -0.53770850846E-01  0.26791792589E-01 -0.11137405551E+00  0.12799837423E+00  0.19243154991E-01 0.  0.
         14    1    1    2    0    0 -0.14670322309E-02  0.11345385180E-02 -0.23442256229E-01  0.23515499959E-01  0.00000000000E+00 0. -1.
     999901    1    3    3    0    0  0.55237883077E-01 -0.27926331107E-01  0.13481631174E+00  0.89241612581E+00  0.88000000000E+00 0. -1.
        -11    1    4    4    0    0 -0.42429407107E-01  0.25583513577E-01 -0.75120493230E-01  0.89989557052E-01  0.51100000000E-03 0.  1.
         11    1    4    4    0    0 -0.11341443739E-01  0.12082790121E-02 -0.36253562280E-01  0.38008817178E-01  0.51100000000E-03 0. -1.
</event>
<event>
 8    1  0.1091347E+005  0.1043930E+01  0.7957747E-01            NaN
         13   -1    0    0    0    0  0.00000000000E+00  0.00000000000E+00  0.74505805969E-08  0.10566000000E+00  0.10566000000E+00 0. -1.
     999900   -1    0    0    0    0 -0.00000000000E+00 -0.00000000000E+00 -0.74505805969E-08  0.93827000000E+00  0.93827000000E+00 0. -1.
     999902    2    1    2    0    0  0.24061230931E-02  0.21734757696E-01 -0.93753578706E-02  0.10201374286E+01  0.10198599348E+01 0.  0.
     999903    2    3    3    0    0 -0.87631810503E-01 -0.58179809939E-01  0.70669418745E-01  0.12834130059E+00  0.20324817196E-01 0.  0.
         14    1    1    2    0    0 -0.24061230931E-02 -0.21734757696E-01  0.93753578706E-02  0.23792571438E-01  0.00000000000E+00 0.  1.
     999901    1    3    3    0    0  0.90037933596E-01  0.79914567635E-01 -0.80044776615E-01  0.89179612797E+00  0.88000000000E+00 0.  1.
        -11    1    4    4    0    0 -0.48833473044E-01 -0.30787002234E-01  0.50642712739E-01  0.76795137025E-01  0.51100000000E-03 0.  1.
         11    1    4    4    0    0 -0.38798337459E-01 -0.27392807705E-01  0.20026706006E-01  0.51546163562E-01  0.51100000000E-03 0. -1.
</event>
<event>
 8    1  0.1091347E+005  0.1043930E+01  0.7957747E-01            NaN
         13   -1    0    0    0    0  0.00000000000E+00  0.00000000000E+00  0.74505805969E-08  0.10566000000E+00  0.10566000000E+00 0. -1.
     999900   -1    0    0    0    0 -0.00000000000E+00 -0.00000000000E+00 -0.74505805969E-08  0.93827000000E+00  0.93827000000E+00 0.  1.
     999902    2    1    2    0    0  0.81112006431E-02  0.21382070792E-01  0.23717716005E-02  0.10209384836E+01  0.10206795665E+01 0.  0.
     999903    2    3    3    0    0 -0.16490365873E-01  0.10700535823E+00  0.75831783505E-01  0.13339526897E+00  0.17937657003E-01 0.  0.
         14    1    1    2    0    0 -0.81112006431E-02 -0.21382070792E-01 -0.23717716005E-02  0.22991516430E-01  0.00000000000E+00 0.  1.
     999901    1    3    3    0    0  0.24601566516E-01 -0.85623287438E-01 -0.73460011905E-01  0.88754321460E+00  0.88000000000E+00 0.  1.
        -11    1    4    4    0    0  0.89228971492E-03  0.52935711616E-01  0.36257399008E-01  0.64170443734E-01  0.51100000000E-03 0. -1.
         11    1    4    4    0    0 -0.17382655588E-01  0.54069646613E-01  0.39574384498E-01  0.69224825240E-01  0.51100000000E-03 0.  1.
</event>
<event>
 8    1  0.1091347E+005  0.1043930E+01  0.7957747E-01            NaN
         13   -1    0    0    0    0  0.00000000000E+00  0.00000000000E+00  0.74505805969E-08  0.10566000000E+00  0.10566000000E+00 0. -1.
     999900   -1    0    0    0    0 -0.00000000000E+00 -0.00000000000E+00 -0.74505805969E-08  0.93827000000E+00  0.93827000000E+00 0.  1.
     999902    2    1    2    0    0 -0.21316785106E-01  0.78205188956E-02 -0.71625654934E-02  0.10201210062E+01  0.10198431247E+01 0.  0.
     999903    2    3    3    0    0  0.96012389801E-01  0.75903018316E-01  0.34876625929E-01  0.12873519989E+00  0.19409417033E-01 0.  0.
         14    1    1    2    0    0  0.21316785106E-01 -0.78205188956E-02  0.71625654934E-02  0.23808993836E-01  0.00000000000E+00 0.  1.
     999901    1    3    3    0    0 -0.11732917491E+00 -0.68082499421E-01 -0.42039191423E-01  0.89138580627E+00  0.88000000000E+00 0. -1.
        -11    1    4    4    0    0  0.73601120826E-01  0.62688069679E-01  0.19888997557E-01  0.98705381878E-01  0.51100000000E-03 0. -1.
         11    1    4    4    0    0  0.22411268975E-01  0.13214948638E-01  0.14987628373E-01  0.30029818011E-01  0.51100000000E-03 0.  1.
</event>
<event>
 8    1  0.1091347E+005  0.1043930E+01  0.7957747E-01            NaN
         13   -1    0    0    0    0  0.00000000000E+00  0.00000000000E+00  0.74505805969E-08  0.10566000000E+00  0.10566000000E+00 0. -1.
     999900   -1    0    0    0    0 -0.00000000000E+00 -0.00000000000E+00 -0.74505805969E-08  0.93827000000E+00  0.93827000000E+00 0.  1.
     999902    2    1    2    0    0  0.19232611410E-01  0.15706637438E-01 -0.16414470540E-01  0.10141638003E+01  0.10137268800E+01 0.  0.
     999903    2    3    3    0    0  0.60412911335E-02  0.20717027781E-01 -0.12368335249E+00  0.12753776416E+00  0.22419124952E-01 0.  0.
         14    1    1    2    0    0 -0.19232611410E-01 -0.15706637438E-01  0.16414470540E-01  0.29766199696E-01  0.00000000000E+00 0. -1.
     999901    1    3    3    0    0  0.13191320276E-01 -0.50103903434E-02  0.10726888195E+00  0.88662603615E+00  0.88000000000E+00 0. -1.
        -11    1    4    4    0    0 -0.64804294045E-02 -0.40138381062E-03 -0.23157465331E-01  0.24055901475E-01  0.51100000000E-03 0.  1.
         11    1    4    4    0    0  0.12521720538E-01  0.21118411592E-01 -0.10052588716E+00  0.10348186268E+00  0.51100000000E-03 0. -1.
</event>
<event>
 8    1  0.1091347E+005  0.1043930E+01  0.7957747E-01            NaN
         13   -1    0    0    0    0  0.00000000000E+00  0.00000000000E+00  0.74505805969E-08  0.10566000000E+00  0.10566000000E+00 0.  1.
     999900   -1    0    0    0    0 -0.00000000000E+00 -0.00000000000E+00 -0.74505805969E-08  0.93827000000E+00  0.93827000000E+00 0.  1.
     999902    2    1    2    0    0  0.99997370766E-02  0.17515900478E-01 -0.21582733761E-01  0.10143899271E+01  0.10139597173E+01 0.  0.
     999903    2    3    3    0    0 -0.93798345690E-01  0.23821612545E-01 -0.78902624060E-01  0.12641505480E+00  0.19736846700E-01 0.  0.
         14    1    1    2    0    0 -0.99997370766E-02 -0.17515900478E-01  0.21582733761E-01  0.29540072914E-01  0.00000000000E+00 0.  1.
     999901    1    3    3    0    0  0.10379808277E+00 -0.63057120665E-02  0.57319890299E-01  0.88797487229E+00  0.88000000000E+00 0. -1.
        -11    1    4    4    0    0 -0.66687333745E-01  0.21868806846E-01 -0.65925241473E-01  0.96290413745E-01  0.51100000000E-03 0.  1.
         11    1    4    4    0    0 -0.27111011944E-01  0.19528056986E-02 -0.12977382587E-01  0.30124641053E-01  0.51100000000E-03 0. -1.
</event>
<event>
 8    1  0.1091347E+005  0.1043930E+01  0.7957747E-01            NaN
         13   -1    0    0    0    0  0.00000000000E+00  0.00000000000E+00  0.74505805969E-08  0.10566000000E+00  0.10566000000E+00 0. -1.
     999900   -1    0    0    0    0 -0.00000000000E+00 -0.00000000000E+00 -0.74505805969E-08  0.93827000000E+00  0.93827000000E+00 0. -1.
     999902    2    1    2    0    0 -0.66849611203E-02  0.15133512087E-01 -0.16248022786E-01  0.10207414223E+01  0.10204779963E+01 0.  0.
     999903    2    3    3    0    0  0.33267378365E-01 -0.12292477889E+00  0.62062037077E-03  0.12892258849E+00  0.20085540233E-01 0.  0.
         14    1    1    2    0    0  0.66849611203E-02 -0.15133512087E-01  0.16248022786E-01  0.23188577742E-01  0.00000000000E+00 0.  1.
     999901    1    3    3    0    0 -0.39952339485E-01  0.13805829097E+00 -0.16868643156E-01  0.89181883377E+00  0.88000000000E+00 0. -1.
        -11    1    4    4    0    0  0.18120560360E-01 -0.56752533024E-01 -0.93569027624E-02  0.60307689913E-01  0.51100000000E-03 0. -1.
         11    1    4    4    0    0  0.15146818005E-01 -0.66172245862E-01  0.99775231331E-02  0.68614898579E-01  0.51100000000E-03 0.  1.
</event>
<event>
 8    1  0.1091347E+005  0.1043930E+01  0.7957747E-01            NaN
         13   -1    0    0    0    0  0.00000000000E+00  0.00000000000E+00  0.74505805969E-08  0.10566000000E+00  0.10566000000E+00 0. -1.
     999900   -1    0    0    0    0 -0.00000000000E+00 -0.00000000000E+00 -0.74505805969E-08  0.93827000000E+00  0.93827000000E+00 0. -1.
     999902    2    1    2    0    0 -0.10876756340E-01  0.18860111774E-01  0.91564436202E-02  0.10203111917E+01  0.10200377835E+01 0.  0.
     999903    2    3    3    0    0 -0.11618072914E+00 -0.48497994278E-01  0.30906747943E-01  0.13121101915E+00  0.20275285593E-01 0.  0.
         14    1    1    2    0    0  0.10876756340E-01 -0.18860111774E-01 -0.91564436202E-02  0.23618808276E-01  0.00000000000E+00 0.  1.
     999901    1    3    3    0    0  0.10530397280E+00  0.67358106052E-01 -0.21750304323E-01  0.88910017258E+00  0.88000000000E+00 0.  1.
        -11    1    4    4    0    0 -0.10207930750E+00 -0.35049107064E-01  0.27994822209E-01  0.11150155208E+00  0.51100000000E-03 0. -1.
         11    1    4    4    0    0 -0.14101421635E-01 -0.13448887214E-01  0.29119257340E-02  0.19709467063E-01  0.51100000000E-03 0.  1.
</event>
<event>
 8    1  0.1091347E+005  0.1043930E+01  0.7957747E-01            NaN
         13   -1    0    0    0    0  0.00000000000E+00  0.00000000000E+00  0.74505805969E-08  0.10566000000E+00  0.10566000000E+00 0. -1.
     999900   -1    0    0    0    0 -0.00000000000E+00 -0.00000000000E+00 -0.74505805969E-08  0.93827000000E+00  0.93827000000E+00 0. -1.
     999902    2    1    2    0    0  0.49666194809E-02 -0.22557903085E-01  0.57968378742E-02  0.10201155164E+01  0.10198375053E+01 0.  0.
     999903    2    3    3    0    0 -0.60416372035E-01 -0.72040105912E-01 -0.88859700009E-01  0.13124922490E+00  0.22144928998E-01 0.  0.
         14    1    1    2    0    0 -0.49666194809E-02  0.22557903085E-01 -0.57968378742E-02  0.23814483619E-01  0.00000000000E+00 0.  1.
     999901    1    3    3    0    0  0.65382991516E-01  0.49482202827E-01  0.94656537883E-01  0.88886629149E+00  0.88000000000E+00 0.  1.
        -11    1    4    4    0    0 -0.24390642870E-01 -0.15766574554E-01 -0.19791153147E-01  0.35148815011E-01  0.51100000000E-03 0. -1.
         11    1    4    4    0    0 -0.36025729164E-01 -0.56273531358E-01 -0.69068546862E-01  0.96100409884E-01  0.51100000000E-03 0.  1.
</event>
<event>
 8    1  0.1091347E+005  0.1043930E+01  0.7957747E-01            NaN
         13   -1    0    0    0    0  0.00000000000E+00  0.00000000000E+00  0.74505805969E-08  0.10566000000E+00  0.10566000000E+00 0.  1.
     999900   -1    0    0    0    0 -0.00000000000E+00 -0.00000000000E+00 -0.74505805969E-08  0.93827000000E+00  0.93827000000E+00 0.  1.
     999902    2    1    2    0    0  0.51270615272E-02  0.13286433710E-01  0.19873656127E-01  0.10194804951E+01  0.10191872751E+01 0.  0.
     999903    2    3    3    0    0 -0.82976667779E-01 -0.88548136379E-01 -0.33928394380E-01  0.12761323627E+00  0.20201541385E-01 0.  0.
         14    1    1    2    0    0 -0.51270615272E-02 -0.13286433710E-01 -0.19873656127E-01  0.24449504872E-01  0.00000000000E+00 0. -1.
     999901    1    3    3    0    0  0.88103729306E-01  0.10183457009E+00  0.53802050507E-01  0.89186725886E+00  0.88000000000E+00 0. -1.
        -11    1    4    4    0    0 -0.67322931447E-01 -0.60758943716E-01 -0.29744081189E-01  0.95441069917E-01  0.51100000000E-03 0.  1.
         11    1    4    4    0    0 -0.15653736332E-01 -0.27789192663E-01 -0.41843131915E-02  0.32172166354E-01  0.51100000000E-03 0. -1.
</event>
<event>
 8    1  0.1091347E+005  0.1043930E+01  0.7957747E-01            NaN
         13   -1    0    0    0    0  0.00000000000E+00  0.00000000000E+00  0.74505805969E-08  0.10566000000E+00  0.10566000000E+00 0. -1.
     999900   -1    0    0    0    0 -0.00000000000E+00 -0.00000000000E+00 -0.74505805969E-08  0.93827000000E+00  0.93827000000E+00 0. -1.
     999902    2    1    2    0    0  0.47327906619E-02  0.19253848645E-02  0.22480962662E-01  0.10208757141E+01  0.10206153652E+01 0.  0.
     999903    2    3    3    0    0 -0.35358699511E-01 -0.11657056797E+00 -0.40143210091E-01  0.12982554415E+00  0.20106209219E-01 0.  0.
         14    1    1    2    0    0 -0.47327906619E-02 -0.19253848645E-02 -0.22480962662E-01  0.23054285861E-01  0.00000000000E+00 0.  1.
     999901    1    3    3    0    0  0.40091490173E-01  0.11849595284E+00  0.62624172753E-01  0.89105016999E+00  0.88000000000E+00 0. -1.
        -11    1    4    4    0    0 -0.23698102636E-01 -0.61766374181E-01 -0.30961665845E-01  0.73044992442E-01  0.51100000000E-03 0. -1.
         11    1    4    4    0    0 -0.11660596875E-01 -0.54804193792E-01 -0.91815442466E-02  0.56780551709E-01  0.51100000000E-03 0.  1.
</event>
<event>
 8    1  0.1091347E+005  0.1043930E+01  0.7957747E-01            NaN
         13   -1    0    0    0    0  0.00000000000E+00  0.00000000000E+00  0.74505805969E-08  0.10566000000E+00  0.10566000000E+00 0. -1.
     999900   -1    0    0    0    0 -0.00000000000E+00 -0.00000000000E+00 -0.74505805969E-08  0.93827000000E+00  0.93827000000E+00 0.  1.
     999902    2    1    2    0    0  0.16709481855E-01  0.10209437406E-01 -0.14740059146E-01  0.10194206398E+01  0.10191259647E+01 0.  0.
     999903    2    3    3    0    0  0.81839659604E-01 -0.26692744855E-01  0.94298689266E-01  0.12953684972E+00  0.21847657232E-01 0.  0.
         14    1    1    2    0    0 -0.16709481855E-01 -0.10209437406E-01  0.14740059146E-01  0.24509360245E-01  0.00000000000E+00 0.  1.
     999901    1    3    3    0    0 -0.65130177749E-01  0.36902182261E-01 -0.10903874841E+00  0.88988379003E+00  0.88000000000E+00 0.  1.
        -11    1    4    4    0    0  0.95141829570E-02 -0.70867762972E-02  0.24047388604E-01  0.26819397743E-01  0.51100000000E-03 0.  1.
         11    1    4    4    0    0  0.72325476647E-01 -0.19605968558E-01  0.70251300662E-01  0.10271745198E+00  0.51100000000E-03 0. -1.
</event>
<event>
 8    1  0.1387710E+005  0.1043930E+01  0.7957747E-01            NaN
         13   -1    0    0    0    0  0.00000000000E+00  0.00000000000E+00  0.74505805969E-08  0.10566000000E+00  0.10566000000E+00 0.  1.
     999900   -1    0    0    0    0 -0.00000000000E+00 -0.00000000000E+00 -0.74505805969E-08  0.93827000000E+00  0.93827000000E+00 0. -1.
     999902    2    1    2    0    0  0.97501347905E-02  0.98718955999E-02  0.19839524283E-01  0.10197199571E+01  0.10194325210E+01 0.  0.
     999903    2    3    3    0    0  0.71957338382E-01  0.96949412906E-01 -0.45550580762E-01  0.13082845869E+00  0.21544906227E-01 0.  0.
         14    1    1    2    0    0 -0.97501347905E-02 -0.98718955999E-02 -0.19839524283E-01  0.24210042853E-01  0.00000000000E+00 0. -1.
     999901    1    3    3    0    0 -0.62207203592E-01 -0.87077517306E-01  0.65390105045E-01  0.88889149846E+00  0.88000000000E+00 0.  1.
        -11    1    4    4    0    0  0.33518913995E-01  0.52759813916E-01 -0.13091725684E-01  0.63865248471E-01  0.51100000000E-03 0.  1.
         11    1    4    4    0    0  0.38438424387E-01  0.44189598990E-01 -0.32458855077E-01  0.66963210215E-01  0.51100000000E-03 0. -1.
</event>
<event>
 8    1  0.1091347E+005  0.1043930E+01  0.7957747E-01            NaN
         13   -1    0    0    0    0  0.00000000000E+00  0.00000000000E+00  0.74505805969E-08  0.10566000000E+00  0.10566000000E+00 0. -1.
     999900   -1    0    0    0    0 -0.00000000000E+00 -0.00000000000E+00 -0.74505805969E-08  0.93827000000E+00  0.93827000000E+00 0. -1.
     999902    2    1    2    0    0 -0.90456249248E-02 -0.54206751750E-02 -0.12428203308E-01  0.10276306967E+01  0.10275014266E+01 0.  0.
     999903    2    3    3    0    0  0.75967218482E-01  0.22256625384E-01  0.10763222527E+00  0.13498982660E+00  0.19266076746E-01 0.  0.
         14    1    1    2    0    0  0.90456249248E-02  0.54206751750E-02  0.12428203308E-01  0.16299303270E-01  0.00000000000E+00 0. -1.
     999901    1    3    3    0    0 -0.85012843407E-01 -0.27677300559E-01 -0.12006042857E+00  0.89264087013E+00  0.88000000000E+00 0. -1.
        -11    1    4    4    0    0  0.35914846091E-01  0.70707067805E-03  0.50106226798E-01  0.61654449990E-01  0.51100000000E-03 0.  1.
         11    1    4    4    0    0  0.40052372392E-01  0.21549554706E-01  0.57525998469E-01  0.73335376613E-01  0.51100000000E-03 0. -1.
</event>
<event>
 8    1  0.1091347E+005  0.1043930E+01  0.7957747E-01            NaN
         13   -1    0    0    0    0  0.00000000000E+00  0.00000000000E+00  0.74505805969E-08  0.10566000000E+00  0.10566000000E+00 0.  1.
     999900   -1    0    0    0    0 -0.00000000000E+00 -0.00000000000E+00 -0.74505805969E-08  0.93827000000E+00  0.93827000000E+00 0.  1.
     999902    2    1    2    0    0 -0.63694973910E-02 -0.46433375494E-02 -0.21916101566E-01  0.10206395172E+01  0.10203737440E+01 0.  0.
     999903    2    3    3    0    0  0.69651649073E-01 -0.53612566557E-01  0.91977031878E-01  0.12870406779E+00  0.19475706921E-01 0.  0.
         14    1    1    2    0    0  0.63694973910E-02  0.46433375494E-02  0.21916101566E-01  0.23290482787E-01  0.00000000000E+00 0.  1.
     999901    1    3    3    0    0 -0.76021146464E-01  0.48969229008E-01 -0.11389313344E+00  0.89193544943E+00  0.88000000000E+00 0.  1.
        -11    1    4    4    0    0  0.50090161903E-01 -0.27109625446E-01  0.61510175517E-01  0.83831491246E-01  0.51100000000E-03 0. -1.
         11    1    4    4    0    0  0.19561487169E-01 -0.26502941111E-01  0.30466856361E-01  0.44872576540E-01  0.51100000000E-03 0.  1.
</event>
<event>
 8    1  0.1091347E+005  0.1043930E+01  0.7957747E-01            NaN
         13   -1    0    0    0    0  0.00000000000E+00  0.00000000000E+00  0.74505805969E-08  0.10566000000E+00  0.10566000000E+00 0.  1.
     999900   -1    0    0    0    0 -0.00000000000E+00 -0.00000000000E+00 -0.74505805969E-08  0.93827000000E+00  0.93827000000E+00 0.  1.
     999902    2    1    2    0    0  0.23341468233E-01  0.10056132339E-01  0.83060620276E-03  0.10185008859E+01  0.10181833895E+01 0.  0.
     999903    2    3    3    0    0  0.12684544398E+00  0.18790124041E-01  0.26288767704E-01  0.13202614087E+00  0.17232734695E-01 0.  0.
         14    1    1    2    0    0 -0.23341468233E-01 -0.10056132339E-01 -0.83060620276E-03  0.25429114093E-01  0.00000000000E+00 0. -1.
     999901    1    3    3    0    0 -0.10350397575E+00 -0.87339917019E-02 -0.25458161501E-01  0.88647474504E+00  0.88000000000E+00 0.  1.
        -11    1    4    4    0    0  0.35489306304E-01  0.25277486135E-02  0.14745777310E-01  0.38517261643E-01  0.51100000000E-03 0. -1.
         11    1    4    4    0    0  0.91356137676E-01  0.16262375427E-01  0.11542990394E-01  0.93508879224E-01  0.51100000000E-03 0.  1.
</event>
<event>
 8    1  0.1091347E+005  0.1043930E+01  0.7957747E-01            NaN
         13   -1    0    0    0    0  0.00000000000E+00  0.00000000000E+00  0.74505805969E-08  0.10566000000E+00  0.10566000000E+00 0.  1.
     999900   -1    0    0    0    0 -0.00000000000E+00 -0.00000000000E+00 -0.74505805969E-08  0.93827000000E+00  0.93827000000E+00 0.  1.
     999902    2    1    2    0    0  0.62719407176E-02  0.10367931475E-01  0.19630779354E-01  0.10208605669E+01  0.10205998718E+01 0.  0.
     999903    2    3    3    0    0  0.12093471037E+00  0.23904175287E-01 -0.40339129888E-01  0.13129484669E+00  0.20358722921E-01 0.  0.
         14    1    1    2    0    0 -0.62719407176E-02 -0.10367931475E-01 -0.19630779354E-01  0.23069433055E-01  0.00000000000E+00 0. -1.
     999901    1    3    3    0    0 -0.11466276965E+00 -0.13536243812E-01  0.59969909242E-01  0.88956572026E+00  0.88000000000E+00 0.  1.
        -11    1    4    4    0    0  0.77976918321E-01  0.22527445387E-01 -0.33330367183E-01  0.87744288042E-01  0.51100000000E-03 0.  1.
         11    1    4    4    0    0  0.42957792047E-01  0.13767299003E-02 -0.70087627055E-02  0.43550558647E-01  0.51100000000E-03 0. -1.
</event>
<event>
 8    1  0.1091347E+005  0.1043930E+01  0.7957747E-01            NaN
         13   -1    0    0    0    0  0.00000000000E+00  0.00000000000E+00  0.74505805969E-08  0.10566000000E+00  0.10566000000E+00 0. -1.
     999900   -1    0    0    0    0 -0.00000000000E+00 -0.00000000000E+00 -0.74505805969E-08  0.93827000000E+00  0.93827000000E+00 0. -1.
     999902    2    1    2    0    0 -0.22070244588E-01 -0.41678769685E-03 -0.17741511448E-03  0.10218551074E+01  0.10216166402E+01 0.  0.
     999903    2    3    3    0    0 -0.61080496147E-01  0.11264010129E+00 -0.33409633781E-01  0.13314365801E+00  0.13871215231E-01 0.  0.
         14    1    1    2    0    0  0.22070244588E-01  0.41678769685E-03  0.17741511448E-03  0.22074892622E-01  0.00000000000E+00 0. -1.
     999901    1    3    3    0    0  0.39010251560E-01 -0.11305688899E+00  0.33232218667E-01  0.88871144936E+00  0.88000000000E+00 0.  1.
        -11    1    4    4    0    0 -0.24938087130E-01  0.51869139151E-01 -0.85170166355E-02  0.58181753835E-01  0.51100000000E-03 0.  1.
         11    1    4    4    0    0 -0.36142409017E-01  0.60770962137E-01 -0.24892617146E-01  0.74961904178E-01  0.51100000000E-03 0. -1.
</event>
<event>
 8    1  0.1091347E+005  0.1043930E+01  0.7957747E-01            NaN
         13   -1    0    0    0    0  0.00000000000E+00  0.00000000000E+00  0.74505805969E-08  0.10566000000E+00  0.10566000000E+00 0.  1.
     999900   -1    0    0    0    0 -0.00000000000E+00 -0.00000000000E+00 -0.74505805969E-08  0.93827000000E+00  0.93827000000E+00 0. -1.
     999902    2    1    2    0    0 -0.13312851681E-01  0.14210207599E-01  0.13964414241E-01  0.10199682203E+01  0.10196867184E+01 0.  0.
     999903    2    3    3    0    0  0.46933408176E-01 -0.10969067382E+00 -0.40165189776E-01  0.12760559545E+00  0.20860412162E-01 0.  0.
         14    1    1    2    0    0  0.13312851681E-01 -0.14210207599E-01 -0.13964414241E-01  0.23961779671E-01  0.00000000000E+00 0.  1.
     999901    1    3    3    0    0 -0.60246259857E-01  0.12390088142E+00  0.54129604017E-01  0.89236262488E+00  0.88000000000E+00 0.  1.
        -11    1    4    4    0    0  0.32388857979E-01 -0.90986552785E-01 -0.26093376858E-01  0.10004357224E+00  0.51100000000E-03 0. -1.
         11    1    4    4    0    0  0.14544550197E-01 -0.18704121035E-01 -0.14071812918E-01  0.27562023219E-01  0.51100000000E-03 0.  1.
</event>
<event>
 8    1  0.1091347E+005  0.1043930E+01  0.7957747E-01            NaN
         13   -1    0    0    0    0  0.00000000000E+00  0.00000000000E+00  0.74505805969E-08  0.10566000000E+00  0.10566000000E+00 0.  1.
     999900   -1    0    0    0    0 -0.00000000000E+00 -0.00000000000E+00 -0.74505805969E-08  0.93827000000E+00  0.93827000000E+00 0. -1.
     999902    2    1    2    0    0  0.41048543134E-02 -0.18835867888E-01 -0.14449728625E-01  0.10198377937E+01  0.10195531820E+01 0.  0.
     999903    2    3    3    0    0 -0.12772686960E+00 -0.27770369995E-02  0.62011775063E-02  0.12963335120E+00  0.21082836368E-01 0.  0.
         14    1    1    2    0    0 -0.41048543134E-02  0.18835867888E-01  0.14449728625E-01  0.24092206320E-01  0.00000000000E+00 0.  1.
     999901    1    3    3    0    0  0.13183172391E+00 -0.16058830888E-01 -0.20650906131E-01  0.89020444248E+00  0.88000000000E+00 0.  1.
        -11    1    4    4    0    0 -0.34548841966E-01  0.58942424295E-02 -0.49100794300E-02  0.35393990677E-01  0.51100000000E-03 0. -1.
         11    1    4    4    0    0 -0.93178027635E-01 -0.86712794290E-02  0.11111256936E-01  0.94239360528E-01  0.51100000000E-03 0.  1.
</event>
<event>
 8    1  0.1091347E+005  0.1043930E+01  0.7957747E-01            NaN
         13   -1    0    0    0    0  0.00000000000E+00  0.00000000000E+00  0.74505805969E-08  0.10566000000E+00  0.10566000000E+00 0.  1.
     999900   -1    0    0    0    0 -0.00000000000E+00 -0.00000000000E+00 -0.74505805969E-08  0.93827000000E+00  0.93827000000E+00 0. -1.
     999902    2    1    2    0    0 -0.10344347696E-03 -0.17710304104E-01 -0.15703652141E-01  0.10202599712E+01  0.10199853620E+01 0.  0.
     999903    2    3    3    0    0  0.80532367260E-01 -0.99116215391E-01 -0.24444771916E-01  0.13278858377E+00  0.26940207408E-01 0.  0.
         14    1    1    2    0    0  0.10344347696E-03  0.17710304104E-01  0.15703652141E-01  0.23670028783E-01  0.00000000000E+00 0.  1.
     999901    1    3    3    0    0 -0.80635810737E-01  0.81405911286E-01  0.87411197749E-02  0.88747138745E+00  0.88000000000E+00 0.  1.
        -11    1    4    4    0    0  0.51005640532E-01 -0.46416770939E-01 -0.42669038451E-02  0.69098187964E-01  0.51100000000E-03 0. -1.
         11    1    4    4    0    0  0.29526726729E-01 -0.52699444451E-01 -0.20177868071E-01  0.63690395804E-01  0.51100000000E-03 0.  1.
</event>
<event>
 8    1  0.1091347E+005  0.1043930E+01  0.7957747E-01            NaN
         13   -1    0    0    0    0  0.00000000000E+00  0.00000000000E+00  0.74505805969E-08  0.10566000000E+00  0.10566000000E+00 0. -1.
     999900   -1    0    0    0    0 -0.00000000000E+00 -0.00000000000E+00 -0.74505805969E-08  0.93827000000E+00  0.93827000000E+00 0. -1.
     999902    2    1    2    0    0  0.64675745445E-03 -0.20959930040E-01  0.54368244383E-02  0.10222667587E+01  0.10220371960E+01 0.  0.
     999903    2    3    3    0    0 -0.88686317353E-01  0.86522026430E-01 -0.35139784686E-01  0.13031427657E+00  0.19891763782E-01 0.  0.
         14    1    1    2    0    0 -0.64675745445E-03  0.20959930040E-01 -0.54368244383E-02  0.21663241273E-01  0.00000000000E+00 0.  1.
     999901    1    3    3    0    0  0.89333074808E-01 -0.10748195647E+00  0.40576609125E-01  0.89195248216E+00  0.88000000000E+00 0.  1.
        -11    1    4    4    0    0 -0.45328073527E-01  0.52943262762E-01 -0.11705866079E-01  0.70674689552E-01  0.51100000000E-03 0. -1.
         11    1    4    4    0    0 -0.43358243827E-01  0.33578763668E-01 -0.23433918607E-01  0.59639587016E-01  0.51100000000E-03 0.  1.
</event>
<event>
 8    1  0.1091347E+005  0.1043930E+01  0.7957747E-01            NaN
         13   -1    0    0    0    0  0.00000000000E+00  0.00000000000E+00  0.74505805969E-08  0.10566000000E+00  0.10566000000E+00 0. -1.
     999900   -1    0    0    0    0 -0.00000000000E+00 -0.00000000000E+00 -0.74505805969E-08  0.93827000000E+00  0.93827000000E+00 0.  1.
     999902    2    1    2    0    0 -0.43273018234E-02 -0.66441456799E-02  0.21164022723E-01  0.10213294232E+01  0.10210793332E+01 0.  0.
     999903    2    3    3    0    0 -0.57679627905E-01  0.77962524409E-01  0.89923804846E-01  0.13299802844E+00  0.14038881817E-01 0.  0.
         14    1    1    2    0    0  0.43273018234E-02  0.66441456799E-02 -0.21164022723E-01  0.22600576779E-01  0.00000000000E+00 0.  1.
     999901    1    3    3    0    0  0.53352326082E-01 -0.84606670089E-01 -0.68759782123E-01  0.88833139478E+00  0.88000000000E+00 0.  1.
        -11    1    4    4    0    0 -0.32599254726E-01  0.54771189278E-01  0.61192027986E-01  0.88359040249E-01  0.51100000000E-03 0. -1.
         11    1    4    4    0    0 -0.25080373179E-01  0.23191335131E-01  0.28731776861E-01  0.44638988189E-01  0.51100000000E-03 0.  1.
</event>
<event>
 8    1  0.1091347E+005  0.1043930E+01  0.7957747E-01            NaN
         13   -1    0    0    0    0  0.00000000000E+00  0.00000000000E+00  0.74505805969E-08  0.10566000000E+00  0.10566000000E+00 0.  1.
     999900   -1    0    0    0    0 -0.00000000000E+00 -0.00000000000E+00 -0.74505805969E-08  0.93827000000E+00  0.93827000000E+00 0.  1.
     999902    2    1    2    0    0  0.45301329648E-02 -0.50205815094E-02  0.22542055521E-01  0.10203955017E+01  0.10201240646E+01 0.  0.
     999903    2    3    3    0    0  0.32066840298E-01 -0.11985052320E+00 -0.35629294235E-01  0.13060446348E+00  0.19890930430E-01 0.  0.
         14    1    1    2    0    0 -0.45301329648E-02  0.50205815094E-02 -0.22542055521E-01  0.23534498305E-01  0.00000000000E+00 0. -1.
     999901    1    3    3    0    0 -0.27536707333E-01  0.11482994170E+00  0.58171349755E-01  0.88979103822E+00  0.88000000000E+00 0. -1.
        -11    1    4    4    0    0  0.10423404428E-01 -0.61234836588E-01 -0.26174981001E-01  0.67407294288E-01  0.51100000000E-03 0.  1.
         11    1    4    4    0    0  0.21643435870E-01 -0.58615686616E-01 -0.94543132336E-02  0.63197169189E-01  0.51100000000E-03 0. -1.
</event>
<event>
 8    1  0.1091347E+005  0.1043930E+01  0.7957747E-01            NaN
         13   -1    0    0    0    0  0.00000000000E+00  0.00000000000E+00  0.74505805969E-08  0.10566000000E+00  0.10566000000E+00 0. -1.
     999900   -1    0    0    0    0 -0.00000000000E+00 -0.00000000000E+00 -0.74505805969E-08  0.93827000000E+00  0.93827000000E+00 0. -1.
     999902    2    1    2    0    0  0.22115874337E-01  0.21929803078E-02 -0.72127010221E-02  0.10205645529E+01  0.10202970463E+01 0.  0.
     999903    2    3    3    0    0  0.79117540376E-01 -0.54271927684E-01 -0.89911642851E-01  0.13305309344E+00  0.20346862745E-01 0.  0.
         14    1    1    2    0    0 -0.22115874337E-01 -0.21929803078E-02  0.72127010221E-02  0.23365447061E-01  0.00000000000E+00 0.  1.
     999901    1    3    3    0    0 -0.57001666039E-01  0.56464907992E-01  0.82698941829E-01  0.88751145950E+00  0.88000000000E+00 0. -1.
        -11    1    4    4    0    0  0.33471191641E-01 -0.33348033999E-01 -0.36204489526E-01  0.59526785771E-01  0.51100000000E-03 0.  1.
         11    1    4    4    0    0  0.45646348735E-01 -0.20923893685E-01 -0.53707153325E-01  0.73526307667E-01  0.51100000000E-03 0. -1.
</event>
<event>
 8    1  0.1091347E+005  0.1043930E+01  0.7957747E-01            NaN
         13   -1    0    0    0    0  0.00000000000E+00  0.00000000000E+00  0.74505805969E-08  0.10566000000E+00  0.10566000000E+00 0. -1.
     999900   -1    0    0    0    0 -0.00000000000E+00 -0.00000000000E+00 -0.74505805969E-08  0.93827000000E+00  0.93827000000E+00 0.  1.
     999902    2    1    2    0    0  0.12996964411E-01 -0.19468123508E-01 -0.33896417160E-02  0.10202779686E+01  0.10200037817E+01 0.  0.
     999903    2    3    3    0    0  0.24759561165E-01 -0.36077659093E-01  0.12165407072E+00  0.13120532516E+00  0.22371657785E-01 0.  0.
         14    1    1    2    0    0 -0.12996964411E-01  0.19468123508E-01  0.33896417160E-02  0.23652031367E-01  0.00000000000E+00 0. -1.
     999901    1    3    3    0    0 -0.11762596754E-01  0.16609535585E-01 -0.12504371244E+00  0.88907264347E+00  0.88000000000E+00 0.  1.
        -11    1    4    4    0    0  0.10179036379E-01 -0.32511852906E-01  0.87194398269E-01  0.93614943100E-01  0.51100000000E-03 0.  1.
         11    1    4    4    0    0  0.14580524786E-01 -0.35658061866E-02  0.34459672452E-01  0.37590382059E-01  0.51100000000E-03 0. -1.
</event>
<event>
 8    1  0.1091347E+005  0.1043930E+01  0.7957747E-01            NaN
         13   -1    0    0    0    0  0.00000000000E+00  0.00000000000E+00  0.74505805969E-08  0.10566000000E+00  0.10566000000E+00 0.  1.
     999900   -1    0    0    0    0 -0.00000000000E+00 -0.00000000000E+00 -0.74505805969E-08  0.93827000000E+00  0.93827000000E+00 0.  1.
     999902    2    1    2    0    0  0.23735353542E-01 -0.62197733342E-02  0.12098778314E-01  0.10165724960E+01  0.10162043134E+01 0.  0.
     999903    2    3    3    0    0  0.27034252229E-01  0.12248735765E+00  0.63921253746E-02  0.12718564306E+00  0.20033096506E-01 0.  0.
         14    1    1    2    0    0 -0.23735353542E-01  0.62197733342E-02 -0.12098778314E-01  0.27357503994E-01  0.00000000000E+00 0. -1.
     999901    1    3    3    0    0 -0.32988986869E-02 -0.12870713099E+00  0.57066529398E-02  0.88938685294E+00  0.88000000000E+00 0. -1.
        -11    1    4    4    0    0  0.21873010364E-01  0.54001340610E-01  0.51488801638E-02  0.58492268360E-01  0.51100000000E-03 0.  1.
         11    1    4    4    0    0  0.51612418651E-02  0.68486017045E-01  0.12432452108E-02  0.68693374702E-01  0.51100000000E-03 0. -1.
</event>
<event>
 8    1  0.1091347E+005  0.1043930E+01  0.7957747E-01            NaN
         13   -1    0    0    0    0  0.00000000000E+00  0.00000000000E+00  0.74505805969E-08  0.10566000000E+00  0.10566000000E+00 0.  1.
     999900   -1    0    0    0    0 -0.00000000000E+00 -0.00000000000E+00 -0.74505805969E-08  0.93827000000E+00  0.93827000000E+00 0.  1.
     999902    2    1    2    0    0  0.12162570372E-02  0.23997298296E-01 -0.63529647934E-03  0.10198935026E+01  0.10196102213E+01 0.  0.
     999903    2    3    3    0    0 -0.99130283909E-01 -0.52707255271E-01 -0.60345133131E-01  0.12887258172E+00  0.19019444791E-01 0.  0.
         14    1    1    2    0    0 -0.12162570372E-02 -0.23997298296E-01  0.63529647934E-03  0.24036497421E-01  0.00000000000E+00 0.  1.
     999901    1    3    3    0    0  0.10034654095E+00  0.76704553566E-01  0.59709836652E-01  0.89102092086E+00  0.88000000000E+00 0. -1.
        -11    1    4    4    0    0 -0.64181190903E-01 -0.29281622661E-01 -0.28425728646E-01  0.76058673809E-01  0.51100000000E-03 0.  1.
         11    1    4    4    0    0 -0.34949093006E-01 -0.23425632609E-01 -0.31919404485E-01  0.52813907910E-01  0.51100000000E-03 0. -1.
</event>
<event>
 8    1  0.1091347E+005  0.1043930E+01  0.7957747E-01            NaN
         13   -1    0    0    0    0  0.00000000000E+00  0.00000000000E+00  0.74505805969E-08  0.10566000000E+00  0.10566000000E+00 0.  1.
     999900   -1    0    0    0    0 -0.00000000000E+00 -0.00000000000E+00 -0.74505805969E-08  0.93827000000E+00  0.93827000000E+00 0. -1.
     999902    2    1    2    0    0  0.10579755910E-01 -0.14683287461E-01 -0.14498015592E-01  0.10207411531E+01  0.10204777209E+01 0.  0.
     999903    2    3    3    0    0 -0.54689912271E-01 -0.54373034058E-01 -0.10616393052E+00  0.13268820109E+00  0.19696832893E-01 0.  0.
         14    1    1    2    0    0 -0.10579755910E-01  0.14683287461E-01  0.14498015592E-01  0.23188846929E-01  0.00000000000E+00 0.  1.
     999901    1    3    3    0    0  0.65269668181E-01  0.39689746597E-01  0.91665914932E-01  0.88805295199E+00  0.88000000000E+00 0.  1.
        -11    1    4    4    0    0 -0.87007783244E-02 -0.20260820493E-01 -0.34648482310E-01  0.41072896634E-01  0.51100000000E-03 0. -1.
         11    1    4    4    0    0 -0.45989133947E-01 -0.34112213565E-01 -0.71515448214E-01  0.91615304452E-01  0.51100000000E-03 0.  1.
</event>
<event>
 8    1  0.1091347E+005  0.1043930E+01  0.7957747E-01            NaN
         13   -1    0    0    0    0  0.00000000000E+00  0.00000000000E+00  0.74505805969E-08  0.10566000000E+00  0.10566000000E+00 0. -1.
     999900   -1    0    0    0    0 -0.00000000000E+00 -0.00000000000E+00 -0.74505805969E-08  0.93827000000E+00  0.93827000000E+00 0. -1.
     999902    2    1    2    0    0  0.11136434210E-01 -0.21180815118E-01  0.42110827787E-02  0.10196322570E+01  0.10193427094E+01 0.  0.
     999903    2    3    3    0    0  0.70448530300E-01 -0.10696894413E+00  0.30441102027E-01  0.13308528041E+00  0.19485398096E-01 0.  0.
         14    1    1    2    0    0 -0.11136434210E-01  0.21180815118E-01 -0.42110827787E-02  0.24297742984E-01  0.00000000000E+00 0.  1.
     999901    1    3    3    0    0 -0.59312096090E-01  0.85788129013E-01 -0.26230019248E-01  0.88654697661E+00  0.88000000000E+00 0. -1.
        -11    1    4    4    0    0  0.65863712673E-01 -0.90077782180E-01  0.22393286975E-01  0.11381456810E+00  0.51100000000E-03 0.  1.
         11    1    4    4    0    0  0.45848176269E-02 -0.16891161950E-01  0.80478150520E-02  0.19270712307E-01  0.51100000000E-03 0. -1.
</event>
<event>
 8    1  0.1091347E+005  0.1043930E+01  0.7957747E-01            NaN
         13   -1    0    0    0    0  0.00000000000E+00  0.00000000000E+00  0.74505805969E-08  0.10566000000E+00  0.10566000000E+00 0. -1.
     999900   -1    0    0    0    0 -0.00000000000E+00 -0.00000000000E+00 -0.74505805969E-08  0.93827000000E+00  0.93827000000E+00 0.  1.
     999902    2    1    2    0    0  0.20036823655E-01  0.80025301563E-02 -0.93856650913E-02  0.10204011772E+01  0.10201298726E+01 0.  0.
     999903    2    3    3    0    0 -0.33872390811E-01  0.18165933346E-01  0.12160085314E+00  0.12901631865E+00  0.19521859550E-01 0.  0.
         14    1    1    2    0    0 -0.20036823655E-01 -0.80025301563E-02  0.93856650913E-02  0.23528822756E-01  0.00000000000E+00 0. -1.
     999901    1    3    3    0    0  0.53909214466E-01 -0.10163403190E-01 -0.13098651823E+00  0.89138485859E+00  0.88000000000E+00 0.  1.
        -11    1    4    4    0    0 -0.10293819792E-02 -0.32204114375E-02  0.54850702712E-02  0.64635743955E-02  0.51100000000E-03 0. -1.
         11    1    4    4    0    0 -0.32843008832E-01  0.21386344784E-01  0.11611578287E+00  0.12255274426E+00  0.51100000000E-03 0.  1.
</event>
<event>
 8    1  0.1091347E+005  0.1043930E+01  0.7957747E-01            NaN
         13   -1    0    0    0    0  0.00000000000E+00  0.00000000000E+00  0.74505805969E-08  0.10566000000E+00  0.10566000000E+00 0.  1.
     999900   -1    0    0    0    0 -0.00000000000E+00 -0.00000000000E+00 -0.74505805969E-08  0.93827000000E+00  0.93827000000E+00 0.  1.
     999902    2    1    2    0    0 -0.22719362577E-01 -0.70313225205E-02 -0.10884345750E-02  0.10201225721E+01  0.10198447277E+01 0.  0.
     999903    2    3    3    0    0  0.81771380471E-01 -0.60251042577E-01 -0.76921097362E-01  0.12911121039E+00  0.20883070516E-01 0.  0.
         14    1    1    2    0    0  0.22719362577E-01  0.70313225205E-02  0.10884345750E-02  0.23807427877E-01  0.00000000000E+00 0. -1.
     999901    1    3    3    0    0 -0.10449074305E+00  0.53219720057E-01  0.75832662787E-01  0.89101136173E+00  0.88000000000E+00 0. -1.
        -11    1    4    4    0    0  0.31081312242E-01 -0.31851719842E-01 -0.24241363939E-01  0.50680221727E-01  0.51100000000E-03 0.  1.
         11    1    4    4    0    0  0.50690068229E-01 -0.28399322735E-01 -0.52679733423E-01  0.78430988667E-01  0.51100000000E-03 0. -1.
</event>
<event>
 8    1  0.1091347E+005  0.1043930E+01  0.7957747E-01            NaN
         13   -1    0    0    0    0  0.00000000000E+00  0.00000000000E+00  0.74505805969E-08  0.10566000000E+00  0.10566000000E+00 0.  1.
     999900   -1    0    0    0    0 -0.00000000000E+00 -0.00000000000E+00 -0.74505805969E-08  0.93827000000E+00  0.93827000000E+00 0. -1.
     999902    2    1    2    0    0  0.67058461246E-03  0.19648158531E-01 -0.10326778419E-01  0.10217231954E+01  0.10214818383E+01 0.  0.
     999903    2    3    3    0    0 -0.30169084511E-01  0.41894540699E-01 -0.12095437671E+00  0.13398198751E+00  0.25610262205E-01 0.  0.
         14    1    1    2    0    0 -0.67058461246E-03 -0.19648158531E-01  0.10326778419E-01  0.22206804585E-01  0.00000000000E+00 0.  1.
     999901    1    3    3    0    0  0.30839669123E-01 -0.22246382168E-01  0.11062759829E+00  0.88774120791E+00  0.88000000000E+00 0.  1.
        -11    1    4    4    0    0 -0.15372934308E-02  0.17627176525E-01 -0.58462180109E-01  0.61083289429E-01  0.51100000000E-03 0.  1.
         11    1    4    4    0    0 -0.28631791080E-01  0.24267364174E-01 -0.62492196603E-01  0.72898698079E-01  0.51100000000E-03 0. -1.
</event>
<event>
 8    1  0.1091347E+005  0.1043930E+01  0.7957747E-01            NaN
         13   -1    0    0    0    0  0.00000000000E+00  0.00000000000E+00  0.74505805969E-08  0.10566000000E+00  0.10566000000E+00 0.  1.
     999900   -1    0    0    0    0 -0.00000000000E+00 -0.00000000000E+00 -0.74505805969E-08  0.93827000000E+00  0.93827000000E+00 0.  1.
     999902    2    1    2    0    0 -0.10874843542E-01  0.11537248711E-01 -0.17191704354E-01  0.10205435717E+01  0.10202755788E+01 0.  0.
     999903    2    3    3    0    0  0.11625553889E+00  0.51190803509E-01  0.13223490623E-01  0.13000462105E+00  0.24300043309E-01 0.  0.
         14    1    1    2    0    0  0.10874843542E-01 -0.11537248711E-01  0.17191704354E-01  0.23386428297E-01  0.00000000000E+00 0.  1.
     999901    1    3    3    0    0 -0.12713038243E+00 -0.39653554798E-01 -0.30415194977E-01  0.89053895065E+00  0.88000000000E+00 0.  1.
        -11    1    4    4    0    0  0.49900268305E-01  0.10017126634E-01  0.98217835594E-02  0.51837323968E-01  0.51100000000E-03 0.  1.
         11    1    4    4    0    0  0.66355270581E-01  0.41173676875E-01  0.34017070633E-02  0.78167297082E-01  0.51100000000E-03 0. -1.
</event>
<event>
 8    1  0.1091347E+005  0.1043930E+01  0.7957747E-01            NaN
         13   -1    0    0    0    0  0.00000000000E+00  0.00000000000E+00  0.74505805969E-08  0.10566000000E+00  0.10566000000E+00 0. -1.
     999900   -1    0    0    0    0 -0.00000000000E+00 -0.00000000000E+00 -0.74505805969E-08  0.93827000000E+00  0.93827000000E+00 0. -1.
     999902    2    1    2    0    0 -0.38251422387E-02 -0.19628348088E-01 -0.12576915553E-01  0.10203062288E+01  0.10200327043E+01 0.  0.
     999903    2    3    3    0    0 -0.15393191484E-01  0.27632589263E-01  0.12324640351E+00  0.12855772726E+00  0.18354915579E-01 0.  0.
         14    1    1    2    0    0  0.38251422387E-02  0.19628348088E-01  0.12576915553E-01  0.23623771219E-01  0.00000000000E+00 0.  1.
     999901    1    3    3    0    0  0.11568049245E-01 -0.47260937351E-01 -0.13582331907E+00  0.89174850152E+00  0.88000000000E+00 0. -1.
        -11    1    4    4    0    0 -0.23657002340E-02  0.13547865083E-01  0.25818682856E-01  0.29257592029E-01  0.51100000000E-03 0. -1.
         11    1    4    4    0    0 -0.13027491250E-01  0.14084724180E-01  0.97427720657E-01  0.99300135231E-01  0.51100000000E-03 0.  1.
</event>
<event>
 8    1  0.1091347E+005  0.1043930E+01  0.7957747E-01            NaN
         13   -1    0    0    0    0  0.00000000000E+00  0.00000000000E+00  0.74505805969E-08  0.10566000000E+00  0.10566000000E+00 0. -1.
     999900   -1    0    0    0    0 -0.00000000000E+00 -0.00000000000E+00 -0.74505805969E-08  0.93827000000E+00  0.93827000000E+00 0.  1.
     999902    2    1    2    0    0  0.18714966167E-01 -0.13956862339E-01  0.55698630950E-02  0.10199285971E+01  0.10196461523E+01 0.  0.
     999903    2    3    3    0    0 -0.62463681332E-01 -0.99987308825E-01 -0.51565698003E-01  0.13017824850E+00  0.19702328830E-01 0.  0.
         14    1    1    2    0    0 -0.18714966167E-01  0.13956862339E-01 -0.55698630950E-02  0.24001402873E-01  0.00000000000E+00 0. -1.
     999901    1    3    3    0    0  0.81178647499E-01  0.86030446487E-01  0.57135561098E-01  0.88975034862E+00  0.88000000000E+00 0. -1.
        -11    1    4    4    0    0 -0.21108538032E-01 -0.46269367548E-01 -0.29940896776E-01  0.59018159679E-01  0.51100000000E-03 0.  1.
         11    1    4    4    0    0 -0.41355143301E-01 -0.53717941277E-01 -0.21624801227E-01  0.71160088825E-01  0.51100000000E-03 0. -1.
</event>
<event>
 8    1  0.1091347E+005  0.1043930E+01  0.7957747E-01            NaN
         13   -1    0    0    0    0  0.00000000000E+00  0.00000000000E+00  0.74505805969E-08  0.10566000000E+00  0.10566000000E+00 0. -1.
     999900   -1    0    0    0    0 -0.00000000000E+00 -0.00000000000E+00 -0.74505805969E-08  0.93827000000E+00  0.93827000000E+00 0. -1.
     999902    2    1    2    0    0 -0.48923491214E-02  0.19103279312E-01  0.12607887577E-01  0.10205242488E+01  0.10202558077E+01 0.  0.
     999903    2    3    3    0    0 -0.86349141856E-01 -0.69904376030E-01  0.65673490174E-01  0.13070767782E+00  0.20704918337E-01 0.  0.
         14    1    1    2    0    0  0.48923491214E-02 -0.19103279312E-01 -0.12607887577E-01  0.23405751207E-01  0.00000000000E+00 0.  1.
     999901    1    3    3    0    0  0.81456792734E-01  0.89007655342E-01 -0.53065602597E-01  0.88981657097E+00  0.88000000000E+00 0.  1.
        -11    1    4    4    0    0 -0.44230259133E-01 -0.22914113216E-01  0.26400377547E-01  0.56379193530E-01  0.51100000000E-03 0. -1.
         11    1    4    4    0    0 -0.42118882722E-01 -0.46990262814E-01  0.39273112627E-01  0.74328484295E-01  0.51100000000E-03 0.  1.
</event>
<event>
 8    1  0.1091347E+005  0.1043930E+01  0.7957747E-01            NaN
         13   -1    0    0    0    0  0.00000000000E+00  0.00000000000E+00  0.74505805969E-08  0.10566000000E+00  0.10566000000E+00 0.  1.
     999900   -1    0    0    0    0 -0.00000000000E+00 -0.00000000000E+00 -0.74505805969E-08  0.93827000000E+00  0.93827000000E+00 0. -1.
     999902    2    1    2    0    0  0.24734360201E-02  0.23015023834E-01 -0.49484293146E-02  0.10202594242E+01  0.10199848021E+01 0.  0.
     999903    2    3    3    0    0  0.70873377104E-01 -0.94150136684E-01 -0.48339703279E-01  0.12880609985E+00  0.19157260364E-01 0.  0.
         14    1    1    2    0    0 -0.24734360201E-02 -0.23015023834E-01  0.49484293146E-02  0.23670575838E-01  0.00000000000E+00 0.  1.
     999901    1    3    3    0    0 -0.68399941084E-01  0.11716516052E+00  0.43391273964E-01  0.89145332432E+00  0.88000000000E+00 0.  1.
        -11    1    4    4    0    0  0.22356094672E-01 -0.28506289774E-01 -0.55870065358E-02  0.36658959187E-01  0.51100000000E-03 0. -1.
         11    1    4    4    0    0  0.48517282432E-01 -0.65643846910E-01 -0.42752696743E-01  0.92147140658E-01  0.51100000000E-03 0.  1.
</event>
<event>
 8    1  0.1091347E+005  0.1043930E+01  0.7957747E-01            NaN
         13   -1    0    0    0    0  0.00000000000E+00  0.00000000000E+00  0.74505805969E-08  0.10566000000E+00  0.10566000000E+00 0.  1.
     999900   -1    0    0    0    0 -0.00000000000E+00 -0.00000000000E+00 -0.74505805969E-08  0.93827000000E+00  0.93827000000E+00 0.  1.
     999902    2    1    2    0    0 -0.74642593502E-02 -0.97978793524E-02  0.25920307633E-01  0.10152319869E+01  0.10148262961E+01 0.  0.
     999903    2    3    3    0    0 -0.30601699234E-01 -0.12207936790E+00  0.55579403588E-02  0.12756251025E+00  0.20036647830E-01 0.  0.
         14    1    1    2    0    0  0.74642593502E-02  0.97978793524E-02 -0.25920307633E-01  0.28698013088E-01  0.00000000000E+00 0. -1.
     999901    1    3    3    0    0  0.23137439884E-01  0.11228148855E+00  0.20362367274E-01  0.88766947666E+00  0.88000000000E+00 0.  1.
        -11    1    4    4    0    0 -0.12746084037E-01 -0.38736630990E-01  0.10727845812E-01  0.42170333595E-01  0.51100000000E-03 0.  1.
         11    1    4    4    0    0 -0.17855615196E-01 -0.83342736914E-01 -0.51699054537E-02  0.85392176655E-01  0.51100000000E-03 0. -1.
</event>
<event>
 8    1  0.1091347E+005  0.1043930E+01  0.7957747E-01            NaN
         13   -1    0    0    0    0  0.00000000000E+00  0.00000000000E+00  0.74505805969E-08  0.10566000000E+00  0.10566000000E+00 0.  1.
     999900   -1    0    0    0    0 -0.00000000000E+00 -0.00000000000E+00 -0.74505805969E-08  0.93827000000E+00  0.93827000000E+00 0. -1.
     999902    2    1    2    0    0 -0.22729458786E-01  0.19845050366E-02 -0.80561305189E-02  0.10197335582E+01  0.10194464488E+01 0.  0.
     999903    2    3    3    0    0 -0.16501661242E-03  0.12360771801E+00  0.36311065970E-01  0.12997527186E+00  0.17209956411E-01 0.  0.
         14    1    1    2    0    0  0.22729458786E-01 -0.19845050366E-02  0.80561305189E-02  0.24196441802E-01  0.00000000000E+00 0.  1.
     999901    1    3    3    0    0 -0.22564442173E-01 -0.12162321298E+00 -0.44367196489E-01  0.88975828634E+00  0.88000000000E+00 0.  1.
        -11    1    4    4    0    0 -0.45202611893E-03  0.35187399634E-01  0.24083263122E-02  0.35276317513E-01  0.51100000000E-03 0. -1.
         11    1    4    4    0    0  0.28700950651E-03  0.88420318380E-01  0.33902739658E-01  0.94698954346E-01  0.51100000000E-03 0.  1.
</event>
<event>
 8    1  0.1091347E+005  0.1043930E+01  0.7957747E-01            NaN
         13   -1    0    0    0    0  0.00000000000E+00  0.00000000000E+00  0.74505805969E-08  0.10566000000E+00  0.10566000000E+00 0.  1.
     999900   -1    0    0    0    0 -0.00000000000E+00 -0.00000000000E+00 -0.74505805969E-08  0.93827000000E+00  0.93827000000E+00 0. -1.
     999902    2    1    2    0    0 -0.23692200159E-01  0.28172091042E-02  0.10324425575E-02  0.10200485647E+01  0.10197689696E+01 0.  0.
     999903    2    3    3    0    0  0.17602477346E-01 -0.88613861553E-01  0.90996034254E-01  0.12979110815E+00  0.20079587553E-01 0.  0.
         14    1    1    2    0    0  0.23692200159E-01 -0.28172091042E-02 -0.10324425575E-02  0.23881435324E-01  0.00000000000E+00 0. -1.
     999901    1    3    3    0    0 -0.41294677505E-01  0.91431070657E-01 -0.89963591697E-01  0.89025745653E+00  0.88000000000E+00 0. -1.
        -11    1    4    4    0    0  0.15711427076E-01 -0.44525207859E-01  0.57401662812E-01  0.74327350889E-01  0.51100000000E-03 0. -1.
         11    1    4    4    0    0  0.18910502704E-02 -0.44088653694E-01  0.33594371442E-01  0.55463757259E-01  0.51100000000E-03 0.  1.
</event>
<event>
 8    1  0.1091347E+005  0.1043930E+01  0.7957747E-01            NaN
         13   -1    0    0    0    0  0.00000000000E+00  0.00000000000E+00  0.74505805969E-08  0.10566000000E+00  0.10566000000E+00 0. -1.
     999900   -1    0    0    0    0 -0.00000000000E+00 -0.00000000000E+00 -0.74505805969E-08  0.93827000000E+00  0.93827000000E+00 0. -1.
     999902    2    1    2    0    0  0.69506331111E-02  0.22875561121E-01 -0.52471560361E-02  0.10194527607E+01  0.10191588669E+01 0.  0.
     999903    2    3    3    0    0 -0.86332626927E-01  0.48685502992E-01  0.81390790614E-01  0.12991689661E+00  0.20744603020E-01 0.  0.
         14    1    1    2    0    0 -0.69506331111E-02 -0.22875561121E-01  0.52471560361E-02  0.24477239299E-01  0.00000000000E+00 0. -1.
     999901    1    3    3    0    0  0.93283260038E-01 -0.25809941870E-01 -0.86637946650E-01  0.88953586409E+00  0.88000000000E+00 0. -1.
        -11    1    4    4    0    0 -0.68751179149E-01  0.28776190933E-01  0.63191317430E-01  0.97714878696E-01  0.51100000000E-03 0. -1.
         11    1    4    4    0    0 -0.17581447778E-01  0.19909312058E-01  0.18199473184E-01  0.32202017915E-01  0.51100000000E-03 0.  1.
</event>
<event>
 8    1  0.1091347E+005  0.1043930E+01  0.7957747E-01            NaN
         13   -1    0    0    0    0  0.00000000000E+00  0.00000000000E+00  0.74505805969E-08  0.10566000000E+00  0.10566000000E+00 0. -1.
     999900   -1    0    0    0    0 -0.00000000000E+00 -0.00000000000E+00 -0.74505805969E-08  0.93827000000E+00  0.93827000000E+00 0. -1.
     999902    2    1    2    0    0 -0.33943936289E-02  0.21302592375E-01  0.98493321955E-02  0.10202164660E+01  0.10199408345E+01 0.  0.
     999903    2    3    3    0    0 -0.11942442209E+00 -0.30786334772E-01  0.37864229158E-01  0.13063169866E+00  0.20517062250E-01 0.  0.
         14    1    1    2    0    0  0.33943936289E-02 -0.21302592375E-01 -0.98493321955E-02  0.23713533998E-01  0.00000000000E+00 0.  1.
     999901    1    3    3    0    0  0.11603002847E+00  0.52088927147E-01 -0.28014896963E-01  0.88958476734E+00  0.88000000000E+00 0. -1.
        -11    1    4    4    0    0 -0.57069698339E-01 -0.10625874985E-01  0.79581871049E-02  0.58595678601E-01  0.51100000000E-03 0.  1.
         11    1    4    4    0    0 -0.62354723756E-01 -0.20160459787E-01  0.29906042053E-01  0.72036020058E-01  0.51100000000E-03 0. -1.
</event>
<event>
 8    1  0.1091347E+005  0.1043930E+01  0.7957747E-01            NaN
         13   -1    0    0    0    0  0.00000000000E+00  0.00000000000E+00  0.74505805969E-08  0.10566000000E+00  0.10566000000E+00 0.  1.
     999900   -1    0    0    0    0 -0.00000000000E+00 -0.00000000000E+00 -0.74505805969E-08  0.93827000000E+00  0.93827000000E+00 0.  1.
     999902    2    1    2    0    0 -0.39979166889E-02  0.87764285100E-02 -0.21174341480E-01  0.10206628177E+01  0.10203975821E+01 0.  0.
     999903    2    3    3    0    0 -0.10547819467E+00 -0.74530757727E-01 -0.64744979296E-02  0.13080079497E+00  0.19658215619E-01 0.  0.
         14    1    1    2    0    0  0.39979166889E-02 -0.87764285100E-02  0.21174341480E-01  0.23267182304E-01  0.00000000000E+00 0.  1.
     999901    1    3    3    0    0  0.10148027798E+00  0.83307186237E-01 -0.14699843551E-01  0.88986202273E+00  0.88000000000E+00 0.  1.
        -11    1    4    4    0    0 -0.28865103264E-01 -0.31480735322E-01 -0.50718093551E-03  0.42717083659E-01  0.51100000000E-03 0. -1.
         11    1    4    4    0    0 -0.76613091409E-01 -0.43050022404E-01 -0.59673169941E-02  0.88083711306E-01  0.51100000000E-03 0.  1.
</event>
<event>
 8    1  0.1091347E+005  0.1043930E+01  0.7957747E-01            NaN
         13   -1    0    0    0    0  0.00000000000E+00  0.00000000000E+00  0.74505805969E-08  0.10566000000E+00  0.10566000000E+00 0.  1.
     999900   -1    0    0    0    0 -0.00000000000E+00 -0.00000000000E+00 -0.74505805969E-08  0.93827000000E+00  0.93827000000E+00 0. -1.
     999902    2    1    2    0    0 -0.13449738916E-01 -0.75887052159E-02  0.16570289838E-01  0.10212792069E+01  0.10210279918E+01 0.  0.
     999903    2    3    3    0    0  0.25246330525E-01 -0.60720921363E-02 -0.12486993751E+00  0.12914411407E+00  0.20284314092E-01 0.  0.
         14    1    1    2    0    0  0.13449738916E-01  0.75887052159E-02 -0.16570289838E-01  0.22650793123E-01  0.00000000000E+00 0. -1.
     999901    1    3    3    0    0 -0.38696069441E-01 -0.15166130796E-02  0.14144022735E+00  0.89213509281E+00  0.88000000000E+00 0.  1.
        -11    1    4    4    0    0  0.25679213205E-01  0.11343995244E-02 -0.96699759725E-01  0.10005905009E+00  0.51100000000E-03 0. -1.
         11    1    4    4    0    0 -0.43288267986E-03 -0.72064916607E-02 -0.28170177783E-01  0.29085063981E-01  0.51100000000E-03 0.  1.
</event>
<event>
 8    1  0.1091347E+005  0.1043930E+01  0.7957747E-01            NaN
         13   -1    0    0    0    0  0.00000000000E+00  0.00000000000E+00  0.74505805969E-08  0.10566000000E+00  0.10566000000E+00 0. -1.
     999900   -1    0    0    0    0 -0.00000000000E+00 -0.00000000000E+00 -0.74505805969E-08  0.93827000000E+00  0.93827000000E+00 0.  1.
     999902    2    1    2    0    0  0.14121118577E-01 -0.85060968942E-02  0.17383390998E-01  0.10199729143E+01  0.10196915239E+01 0.  0.
     999903    2    3    3    0    0 -0.11056051418E+00 -0.25771120831E-01 -0.55689400667E-01  0.12801819373E+00  0.19989262512E-01 0.  0.
         14    1    1    2    0    0 -0.14121118577E-01  0.85060968942E-02 -0.17383390998E-01  0.23957085733E-01  0.00000000000E+00 0.  1.
     999901    1    3    3    0    0  0.12468163276E+00  0.17265023937E-01  0.73072791665E-01  0.89195472053E+00  0.88000000000E+00 0. -1.
        -11    1    4    4    0    0 -0.33549938844E-01 -0.70659382822E-02 -0.69747898630E-02  0.34991923281E-01  0.51100000000E-03 0. -1.
         11    1    4    4    0    0 -0.77010575336E-01 -0.18705182549E-01 -0.48714610804E-01  0.93026270454E-01  0.51100000000E-03 0.  1.
</event>
<event>
 8    1  0.1091347E+005  0.1043930E+01  0.7957747E-01            NaN
         13   -1    0    0    0    0  0.00000000000E+00  0.00000000000E+00  0.74505805969E-08  0.10566000000E+00  0.10566000000E+00 0.  1.
     999900   -1    0    0    0    0 -0.00000000000E+00 -0.00000000000E+00 -0.74505805969E-08  0.93827000000E+00  0.93827000000E+00 0. -1.
     999902    2    1    2    0    0 -0.97789127200E-02  0.22544335931E-01 -0.34465481780E-02  0.10191156310E+01  0.10188134846E+01 0.  0.
     999903    2    3    3    0    0 -0.63906419789E-01  0.27492205676E-01  0.10811764805E+00  0.13040823349E+00  0.21841009120E-01 0.  0.
         14    1    1    2    0    0  0.97789127200E-02 -0.22544335931E-01  0.34465481780E-02  0.24814369041E-01  0.00000000000E+00 0. -1.
     999901    1    3    3    0    0  0.54127507069E-01 -0.49478697441E-02 -0.11156419623E+00  0.88870739747E+00  0.88000000000E+00 0. -1.
        -11    1    4    4    0    0 -0.10746730560E-01  0.66054536609E-02  0.37584115574E-01  0.39647838532E-01  0.51100000000E-03 0.  1.
         11    1    4    4    0    0 -0.53159689229E-01  0.20886752015E-01  0.70533532474E-01  0.90760394958E-01  0.51100000000E-03 0. -1.
</event>
<event>
 8    1  0.1091347E+005  0.1043930E+01  0.7957747E-01            NaN
         13   -1    0    0    0    0  0.00000000000E+00  0.00000000000E+00  0.74505805969E-08  0.10566000000E+00  0.10566000000E+00 0.  1.
     999900   -1    0    0    0    0 -0.00000000000E+00 -0.00000000000E+00 -0.74505805969E-08  0.93827000000E+00  0.93827000000E+00 0.  1.
     999902    2    1    2    0    0  0.12876635830E-01  0.18741963457E-01 -0.35526272223E-03  0.10211880749E+01  0.10209348114E+01 0.  0.
     999903    2    3    3    0    0 -0.52939526732E-01 -0.81813715014E-01 -0.82314071924E-01  0.12924611598E+00  0.20805638735E-01 0.  0.
         14    1    1    2    0    0 -0.12876635830E-01 -0.18741963457E-01  0.35526272223E-03  0.22741925076E-01  0.00000000000E+00 0. -1.
     999901    1    3    3    0    0  0.65816162562E-01  0.10055567847E+00  0.81958809201E-01  0.89194195895E+00  0.88000000000E+00 0.  1.
        -11    1    4    4    0    0 -0.49959573054E-01 -0.76052004005E-01 -0.82369606150E-01  0.12273907035E+00  0.51100000000E-03 0.  1.
         11    1    4    4    0    0 -0.29799536779E-02 -0.57617110097E-02  0.55534226757E-04  0.65070456224E-02  0.51100000000E-03 0. -1.
</event>
<event>
 8    1  0.1091347E+005  0.1043930E+01  0.7957747E-01            NaN
         13   -1    0    0    0    0  0.00000000000E+00  0.00000000000E+00  0.74505805969E-08  0.10566000000E+00  0.10566000000E+00 0. -1.
     999900   -1    0    0    0    0 -0.00000000000E+00 -0.00000000000E+00 -0.74505805969E-08  0.93827000000E+00  0.93827000000E+00 0.  1.
     999902    2    1    2    0    0  0.83152324584E-02  0.21705240569E-01 -0.39879769187E-02  0.10203468594E+01  0.10200742860E+01 0.  0.
     999903    2    3    3    0    0 -0.10548246614E+00  0.63524240576E-01  0.40190592854E-01  0.13093666667E+00  0.19163692745E-01 0.  0.
         14    1    1    2    0    0 -0.83152324584E-02 -0.21705240569E-01  0.39879769187E-02  0.23583140565E-01  0.00000000000E+00 0.  1.
     999901    1    3    3    0    0  0.11379769860E+00 -0.41819000007E-01 -0.44178569773E-01  0.88941019277E+00  0.88000000000E+00 0.  1.
        -11    1    4    4    0    0 -0.64510737023E-01  0.48950573529E-01  0.23127220459E-01  0.84219494699E-01  0.51100000000E-03 0.  1.
         11    1    4    4    0    0 -0.40971729121E-01  0.14573667047E-01  0.17063372395E-01  0.46717171970E-01  0.51100000000E-03 0. -1.
</event>
<event>
 8    1  0.1091347E+005  0.1043930E+01  0.7957747E-01            NaN
         13   -1    0    0    0    0  0.00000000000E+00  0.00000000000E+00  0.74505805969E-08  0.10566000000E+00  0.10566000000E+00 0.  1.
     999900   -1    0    0    0    0 -0.00000000000E+00 -0.00000000000E+00 -0.74505805969E-08  0.93827000000E+00  0.93827000000E+00 0. -1.
     999902    2    1    2    0    0 -0.19362248991E-02 -0.12972202809E-02 -0.23652745905E-01  0.10201627087E+01  0.10198858113E+01 0.  0.
     999903    2    3    3    0    0 -0.56133037398E-01  0.10663034886E+00  0.43821685970E-01  0.12935495523E+00  0.17070884436E-01 0.  0.
         14    1    1    2    0    0  0.19362248991E-02  0.12972202809E-02  0.23652745905E-01  0.23767291309E-01  0.00000000000E+00 0.  1.
     999901    1    3    3    0    0  0.54196812499E-01 -0.10792756914E+00 -0.67474431874E-01  0.89080775346E+00  0.88000000000E+00 0. -1.
        -11    1    4    4    0    0 -0.15159693671E-01  0.24511281644E-01  0.18127313206E-01  0.34051135739E-01  0.51100000000E-03 0. -1.
         11    1    4    4    0    0 -0.40973343728E-01  0.82119067220E-01  0.25694372763E-01  0.95303819493E-01  0.51100000000E-03 0.  1.
</event>
<event>
 8    1  0.1091347E+005  0.1043930E+01  0.7957747E-01            NaN
         13   -1    0    0    0    0  0.00000000000E+00  0.00000000000E+00  0.74505805969E-08  0.10566000000E+00  0.10566000000E+00 0.  1.
     999900   -1    0    0    0    0 -0.00000000000E+00 -0.00000000000E+00 -0.74505805969E-08  0.93827000000E+00  0.93827000000E+00 0.  1.
     999902    2    1    2    0    0  0.19238154231E-01 -0.35495611286E-02 -0.12928937563E-01  0.10204808339E+01  0.10202113845E+01 0.  0.
     999903    2    3    3    0    0  0.22705981382E-01 -0.11813084346E+00  0.47671515345E-01  0.13097911332E+00  0.20310021778E-01 0.  0.
         14    1    1    2    0    0 -0.19238154231E-01  0.35495611286E-02  0.12928937563E-01  0.23449166060E-01  0.00000000000E+00 0.  1.
     999901    1    3    3    0    0 -0.34678271503E-02  0.11458128233E+00 -0.60600452907E-01  0.88950172062E+00  0.88000000000E+00 0.  1.
        -11    1    4    4    0    0  0.54636525949E-03 -0.40536161675E-01  0.91730352517E-02  0.41567831493E-01  0.51100000000E-03 0.  1.
         11    1    4    4    0    0  0.22159616122E-01 -0.77594681785E-01  0.38498480093E-01  0.89411281830E-01  0.51100000000E-03 0. -1.
</event>
<event>
 8    1  0.1091347E+005  0.1043930E+01  0.7957747E-01            NaN
         13   -1    0    0    0    0  0.00000000000E+00  0.00000000000E+00  0.74505805969E-08  0.10566000000E+00  0.10566000000E+00 0.  1.
     999900   -1    0    0    0    0 -0.00000000000E+00 -0.00000000000E+00 -0.74505805969E-08  0.93827000000E+00  0.93827000000E+00 0. -1.
     999902    2    1    2    0    0 -0.78583549276E-02 -0.15588975248E-01 -0.15655855759E-01  0.10204805712E+01  0.10202111156E+01 0.  0.
     999903    2    3    3    0    0  0.10933898177E+00 -0.59503590447E-01  0.32813768807E-01  0.13030473820E+00  0.20171543414E-01 0.  0.
         14    1    1    2    0    0  0.78583549276E-02  0.15588975248E-01  0.15655855759E-01  0.23449428800E-01  0.00000000000E+00 0.  1.
     999901    1    3    3    0    0 -0.11719733669E+00  0.43914615199E-01 -0.48469624566E-01  0.89017583300E+00  0.88000000000E+00 0. -1.
        -11    1    4    4    0    0  0.20438197837E-01 -0.39974036090E-02  0.96987938663E-02  0.22978835695E-01  0.51100000000E-03 0. -1.
         11    1    4    4    0    0  0.88900783929E-01 -0.55506186838E-01  0.23114974941E-01  0.10732590250E+00  0.51100000000E-03 0.  1.
</event>
<event>
 8    1  0.1091347E+005  0.1043930E+01  0.7957747E-01            NaN
         13   -1    0    0    0    0  0.00000000000E+00  0.00000000000E+00  0.74505805969E-08  0.10566000000E+00  0.10566000000E+00 0. -1.
     999900   -1    0    0    0    0 -0.00000000000E+00 -0.00000000000E+00 -0.74505805969E-08  0.93827000000E+00  0.93827000000E+00 0. -1.
     999902    2    1    2    0    0 -0.12754809956E-01 -0.21140131585E-01  0.21227318799E-02  0.10191490329E+01  0.10188477094E+01 0.  0.
     999903    2    3    3    0    0 -0.10302791223E+00 -0.45557809518E-01  0.65928156405E-01  0.13189676426E+00  0.18972872976E-01 0.  0.
         14    1    1    2    0    0  0.12754809956E-01  0.21140131585E-01 -0.21227318799E-02  0.24780967114E-01  0.00000000000E+00 0.  1.
     999901    1    3    3    0    0  0.90273102270E-01  0.24417677933E-01 -0.63805424525E-01  0.88725226863E+00  0.88000000000E+00 0.  1.
        -11    1    4    4    0    0 -0.69372110731E-01 -0.23946652749E-01  0.34863127412E-01  0.81250419686E-01  0.51100000000E-03 0.  1.
         11    1    4    4    0    0 -0.33655801494E-01 -0.21611156769E-01  0.31065028993E-01  0.50646344571E-01  0.51100000000E-03 0. -1.
</event>
<event>
 7    1  0.1091347E+005  0.1043930E+01  0.7957747E-01            NaN
         13   -1    0    0    0    0  0.00000000000E+00  0.00000000000E+00  0.74505805969E-08  0.10566000000E+00  0.10566000000E+00 0.  1.
     999900   -1    0    0    0    0 -0.00000000000E+00 -0.00000000000E+00 -0.74505805969E-08  0.93827000000E+00  0.93827000000E+00 0.  1.
     999902    2    1    2    0    0 -0.22718399873E-01 -0.61838198044E-02  0.44008078273E-02  0.10199772876E+01  0.10196960012E+01 0.  0.
         14    1    1    2    0    0  0.22718399873E-01  0.61838198044E-02 -0.44008078273E-02  0.23952712366E-01  0.00000000000E+00 0.  1.
     999901    1    3    3    0    0 -0.82316775871E-01  0.10408660302E+00 -0.28136310659E-01  0.89039413997E+00  0.88000000000E+00 0. -1.
        -11    1    3    3    0    0  0.44092561486E-01 -0.78304735537E-01  0.21968226603E-01  0.92512970372E-01  0.51100000000E-03 0.  1.
         11    1    3    3    0    0  0.15505814512E-01 -0.31965687291E-01  0.10568891884E-01  0.37070177290E-01  0.51100000000E-03 0. -1.
</event>
<event>
 8    1  0.1091347E+005  0.1043930E+01  0.7957747E-01            NaN
         13   -1    0    0    0    0  0.00000000000E+00  0.00000000000E+00  0.74505805969E-08  0.10566000000E+00  0.10566000000E+00 0.  1.
     999900   -1    0    0    0    0 -0.00000000000E+00 -0.00000000000E+00 -0.74505805969E-08  0.93827000000E+00  0.93827000000E+00 0. -1.
     999902    2    1    2    0    0 -0.36627294176E-03 -0.62506616092E-02 -0.23426008245E-01  0.10196816436E+01  0.10193932860E+01 0.  0.
     999903    2    3    3    0    0 -0.35694467577E-01 -0.12352290298E-01 -0.12586421515E+00  0.13301434553E+00  0.20599547817E-01 0.  0.
         14    1    1    2    0    0  0.36627294176E-03  0.62506616092E-02  0.23426008245E-01  0.24248356412E-01  0.00000000000E+00 0.  1.
     999901    1    3    3    0    0  0.35328194636E-01  0.61016286888E-02  0.10243820691E+00  0.88666729806E+00  0.88000000000E+00 0.  1.
        -11    1    4    4    0    0 -0.11640369982E-01 -0.13425581918E-01 -0.38760256896E-01  0.42642268922E-01  0.51100000000E-03 0.  1.
         11    1    4    4    0    0 -0.24054097595E-01  0.10732916197E-02 -0.87103958255E-01  0.90372076609E-01  0.51100000000E-03 0. -1.
</event>
<event>
 7    1  0.1091347E+005  0.1043930E+01  0.7957747E-01            NaN
         13   -1    0    0    0    0  0.00000000000E+00  0.00000000000E+00  0.74505805969E-08  0.10566000000E+00  0.10566000000E+00 0.  1.
     999900   -1    0    0    0    0 -0.00000000000E+00 -0.00000000000E+00 -0.74505805969E-08  0.93827000000E+00  0.93827000000E+00 0. -1.
     999903    2    1    2    0    0  0.29159300041E-01 -0.48236913941E-02 -0.90298839099E-01  0.96843842089E-01  0.18743442333E-01 0.  0.
         14    1    1    2    0    0  0.33953356001E-01  0.41177266955E-01  0.31834975666E-01  0.62143892486E-01  0.00000000000E+00 0.  1.
     999901    1    1    2    0    0 -0.63112656042E-01 -0.36353575561E-01  0.58463863433E-01  0.88494226543E+00  0.88000000000E+00 0.  1.
        -11    1    3    3    0    0  0.29313801522E-01 -0.13656858320E-02 -0.65190069568E-01  0.71492449593E-01  0.51100000000E-03 0.  1.
         11    1    3    3    0    0 -0.15450148119E-03 -0.34580055622E-02 -0.25108769530E-01  0.25351392496E-01  0.51100000000E-03 0. -1.
</event>
<event>
 8    1  0.1091347E+005  0.1043930E+01  0.7957747E-01            NaN
         13   -1    0    0    0    0  0.00000000000E+00  0.00000000000E+00  0.74505805969E-08  0.10566000000E+00  0.10566000000E+00 0.  1.
     999900   -1    0    0    0    0 -0.00000000000E+00 -0.00000000000E+00 -0.74505805969E-08  0.93827000000E+00  0.93827000000E+00 0. -1.
     999902    2    1    2    0    0  0.17411459016E-01  0.17124924687E-01 -0.11868429673E-01  0.10167770706E+01  0.10164144478E+01 0.  0.
     999903    2    3    3    0    0  0.13413471020E-01 -0.27683031198E-01  0.12031255071E+00  0.12576890658E+00  0.19910715294E-01 0.  0.
         14    1    1    2    0    0 -0.17411459016E-01 -0.17124924687E-01  0.11868429673E-01  0.27152929373E-01  0.00000000000E+00 0.  1.
     999901    1    3    3    0    0  0.39979879961E-02  0.44807955885E-01 -0.13218098038E+00  0.89100816404E+00  0.88000000000E+00 0. -1.
        -11    1    4    4    0    0  0.43389596663E-02 -0.15378300870E-01  0.93858289486E-01  0.95210074756E-01  0.51100000000E-03 0. -1.
         11    1    4    4    0    0  0.90745113535E-02 -0.12304730328E-01  0.26454261224E-01  0.30558831827E-01  0.51100000000E-03 0.  1.
</event>
<event>
 8    1  0.1091347E+005  0.1043930E+01  0.7957747E-01            NaN
         13   -1    0    0    0    0  0.00000000000E+00  0.00000000000E+00  0.74505805969E-08  0.10566000000E+00  0.10566000000E+00 0. -1.
     999900   -1    0    0    0    0 -0.00000000000E+00 -0.00000000000E+00 -0.74505805969E-08  0.93827000000E+00  0.93827000000E+00 0.  1.
     999902    2    1    2    0    0 -0.25652215606E-01  0.34807136938E-03  0.75142417283E-02  0.10171976012E+01  0.10168462709E+01 0.  0.
     999903    2    3    3    0    0  0.10678308427E+00  0.20909570047E-01 -0.57491030360E-01  0.12468005551E+00  0.20001511587E-01 0.  0.
         14    1    1    2    0    0  0.25652215606E-01 -0.34807136938E-03 -0.75142417283E-02  0.26732398843E-01  0.00000000000E+00 0.  1.
     999901    1    3    3    0    0 -0.13243529987E+00 -0.20561498678E-01  0.65005272088E-01  0.89251754564E+00  0.88000000000E+00 0. -1.
        -11    1    4    4    0    0  0.58291025741E-01  0.68047445248E-02 -0.40844597468E-01  0.71503080306E-01  0.51100000000E-03 0.  1.
         11    1    4    4    0    0  0.48492058527E-01  0.14104825522E-01 -0.16646432892E-01  0.53176975208E-01  0.51100000000E-03 0. -1.
</event>
<event>
 8    1  0.1091347E+005  0.1043930E+01  0.7957747E-01            NaN
         13   -1    0    0    0    0  0.00000000000E+00  0.00000000000E+00  0.74505805969E-08  0.10566000000E+00  0.10566000000E+00 0. -1.
     999900   -1    0    0    0    0 -0.00000000000E+00 -0.00000000000E+00 -0.74505805969E-08  0.93827000000E+00  0.93827000000E+00 0. -1.
     999902    2    1    2    0    0 -0.69641362033E-02  0.19632324742E-01 -0.10872319332E-01  0.10204324534E+01  0.10201618780E+01 0.  0.
     999903    2    3    3    0    0  0.43547748625E-01  0.32272357744E-01  0.11621775128E+00  0.12977926222E+00  0.19954440720E-01 0.  0.
         14    1    1    2    0    0  0.69641362033E-02 -0.19632324742E-01  0.10872319332E-01  0.23497546584E-01  0.00000000000E+00 0.  1.
     999901    1    3    3    0    0 -0.50511884828E-01 -0.12640033003E-01 -0.12709007061E+00  0.89065319120E+00  0.88000000000E+00 0. -1.
        -11    1    4    4    0    0  0.82348755903E-02  0.17735704563E-01  0.38432240363E-01  0.43123852015E-01  0.51100000000E-03 0.  1.
         11    1    4    4    0    0  0.35312873034E-01  0.14536653182E-01  0.77785510917E-01  0.86655410202E-01  0.51100000000E-03 0. -1.
</event>
<event>
 8    1  0.1091347E+005  0.1043930E+01  0.7957747E-01            NaN
         13   -1    0    0    0    0  0.00000000000E+00  0.00000000000E+00  0.74505805969E-08  0.10566000000E+00  0.10566000000E+00 0.  1.
     999900   -1    0    0    0    0 -0.00000000000E+00 -0.00000000000E+00 -0.74505805969E-08  0.93827000000E+00  0.93827000000E+00 0. -1.
     999902    2    1    2    0    0  0.19275721288E-01 -0.15238057370E-01  0.57910076518E-02  0.10186854443E+01  0.10183725972E+01 0.  0.
     999903    2    3    3    0    0  0.79554194116E-01 -0.77101468071E-01  0.69037944779E-01  0.13219757019E+00  0.20891471077E-01 0.  0.
         14    1    1    2    0    0 -0.19275721288E-01  0.15238057370E-01 -0.57910076518E-02  0.25244555714E-01  0.00000000000E+00 0. -1.
     999901    1    3    3    0    0 -0.60278472828E-01  0.61863410701E-01 -0.63246937127E-01  0.88648787410E+00  0.88000000000E+00 0. -1.
        -11    1    4    4    0    0  0.20335872055E-01 -0.25877147028E-01  0.10901113501E-01  0.34673762806E-01  0.51100000000E-03 0.  1.
         11    1    4    4    0    0  0.59218322060E-01 -0.51224321043E-01  0.58136831277E-01  0.97523807380E-01  0.51100000000E-03 0. -1.
</event>
<event>
 8    1  0.1091347E+005  0.1043930E+01  0.7957747E-01            NaN
         13   -1    0    0    0    0  0.00000000000E+00  0.00000000000E+00  0.74505805969E-08  0.10566000000E+00  0.10566000000E+00 0. -1.
     999900   -1    0    0    0    0 -0.00000000000E+00 -0.00000000000E+00 -0.74505805969E-08  0.93827000000E+00  0.93827000000E+00 0. -1.
     999902    2    1    2    0    0 -0.23737169786E-01  0.19381186308E-02  0.98325032544E-03  0.10200935507E+01  0.10198150204E+01 0.  0.
     999903    2    3    3    0    0  0.12353863043E+00 -0.23805520181E-01  0.59395913465E-02  0.12746963126E+00  0.19614590159E-01 0.  0.
         14    1    1    2    0    0  0.23737169786E-01 -0.19381186308E-02 -0.98325032544E-03  0.23836449284E-01  0.00000000000E+00 0.  1.
     999901    1    3    3    0    0 -0.14727580022E+00  0.25743638811E-01 -0.49563410210E-02  0.89262391946E+00  0.88000000000E+00 0. -1.
        -11    1    4    4    0    0  0.62417690913E-01 -0.21961435211E-01  0.22968792819E-02  0.66210343232E-01  0.51100000000E-03 0.  1.
         11    1    4    4    0    0  0.61120939522E-01 -0.18440849700E-02  0.36427120645E-02  0.61259288027E-01  0.51100000000E-03 0. -1.
</event>
<event>
 8    1  0.1091347E+005  0.1043930E+01  0.7957747E-01            NaN
         13   -1    0    0    0    0  0.00000000000E+00  0.00000000000E+00  0.74505805969E-08  0.10566000000E+00  0.10566000000E+00 0. -1.
     999900   -1    0    0    0    0 -0.00000000000E+00 -0.00000000000E+00 -0.74505805969E-08  0.93827000000E+00  0.93827000000E+00 0. -1.
     999902    2    1    2    0    0 -0.11926952117E-01  0.15672317457E-01  0.12110099450E-01  0.10208101334E+01  0.10205482842E+01 0.  0.
     999903    2    3    3    0    0 -0.66953444645E-02 -0.52432874678E-01  0.11892142315E+00  0.13172389140E+00  0.20367736672E-01 0.  0.
         14    1    1    2    0    0  0.11926952117E-01 -0.15672317457E-01 -0.12110099450E-01  0.23119866564E-01  0.00000000000E+00 0.  1.
     999901    1    3    3    0    0 -0.52316076529E-02  0.68105192135E-01 -0.10681132370E+00  0.88908624204E+00  0.88000000000E+00 0. -1.
        -11    1    4    4    0    0 -0.77227793234E-02 -0.13019055699E-01  0.50842031878E-01  0.53050075007E-01  0.51100000000E-03 0. -1.
         11    1    4    4    0    0  0.10274348589E-02 -0.39413818979E-01  0.68079391267E-01  0.78673816389E-01  0.51100000000E-03 0.  1.
</event>
<event>
 8    1  0.1091347E+005  0.1043930E+01  0.7957747E-01            NaN
         13   -1    0    0    0    0  0.00000000000E+00  0.00000000000E+00  0.74505805969E-08  0.10566000000E+00  0.10566000000E+00 0. -1.
     999900   -1    0    0    0    0 -0.00000000000E+00 -0.00000000000E+00 -0.74505805969E-08  0.93827000000E+00  0.93827000000E+00 0. -1.
     999902    2    1    2    0    0  0.72819747320E-03 -0.21009283868E-01 -0.11905530744E-01  0.10197709035E+01  0.10194846903E+01 0.  0.
     999903    2    3    3    0    0  0.11499006319E+00 -0.44129698417E-01  0.38810655387E-01  0.13063511015E+00  0.19726127812E-01 0.  0.
         14    1    1    2    0    0 -0.72819747320E-03  0.21009283868E-01  0.11905530744E-01  0.24159096476E-01  0.00000000000E+00 0.  1.
     999901    1    3    3    0    0 -0.11426186571E+00  0.23120414548E-01 -0.50716186131E-01  0.88913579337E+00  0.88000000000E+00 0. -1.
        -11    1    4    4    0    0  0.65346461030E-01 -0.26515215468E-01  0.12035266478E-01  0.71542472565E-01  0.51100000000E-03 0.  1.
         11    1    4    4    0    0  0.49643602155E-01 -0.17614482949E-01  0.26775388909E-01  0.59092637585E-01  0.51100000000E-03 0. -1.
</event>
<event>
 8    1  0.1091347E+005  0.1043930E+01  0.7957747E-01            NaN
         13   -1    0    0    0    0  0.00000000000E+00  0.00000000000E+00  0.74505805969E-08  0.10566000000E+00  0.10566000000E+00 0. -1.
     999900   -1    0    0    0    0 -0.00000000000E+00 -0.00000000000E+00 -0.74505805969E-08  0.93827000000E+00  0.93827000000E+00 0.  1.
     999902    2    1    2    0    0 -0.20807729499E-01 -0.62148894269E-02 -0.52439466992E-02  0.10215897799E+01  0.10213454817E+01 0.  0.
     999903    2    3    3    0    0  0.33731865770E-01  0.27263991843E-01 -0.12078238228E+00  0.13173331223E+00  0.29734116155E-01 0.  0.
         14    1    1    2    0    0  0.20807729499E-01  0.62148894269E-02  0.52439466992E-02  0.22340220108E-01  0.00000000000E+00 0. -1.
     999901    1    3    3    0    0 -0.54539595269E-01 -0.33478881269E-01  0.11553843558E+00  0.88985646766E+00  0.88000000000E+00 0. -1.
        -11    1    4    4    0    0  0.21071387929E-01  0.27603805513E-01 -0.57348199286E-01  0.67045138157E-01  0.51100000000E-03 0. -1.
         11    1    4    4    0    0  0.12660477841E-01 -0.33981367025E-03 -0.63434182990E-01  0.64688174074E-01  0.51100000000E-03 0.  1.
</event>
<event>
 8    1  0.1091347E+005  0.1043930E+01  0.7957747E-01            NaN
         13   -1    0    0    0    0  0.00000000000E+00  0.00000000000E+00  0.74505805969E-08  0.10566000000E+00  0.10566000000E+00 0.  1.
     999900   -1    0    0    0    0 -0.00000000000E+00 -0.00000000000E+00 -0.74505805969E-08  0.93827000000E+00  0.93827000000E+00 0.  1.
     999902    2    1    2    0    0  0.23291676280E-01 -0.22194127351E-02  0.26041683682E-02  0.10203883418E+01  0.10201167377E+01 0.  0.
     999903    2    3    3    0    0  0.12777004664E-01 -0.33617656195E-01 -0.12359973609E+00  0.13076829174E+00  0.23022873537E-01 0.  0.
         14    1    1    2    0    0 -0.23291676280E-01  0.22194127351E-02 -0.26041683682E-02  0.23541658176E-01  0.00000000000E+00 0.  1.
     999901    1    3    3    0    0  0.10514671616E-01  0.31398243459E-01  0.12620390446E+00  0.88962005008E+00  0.88000000000E+00 0. -1.
        -11    1    4    4    0    0  0.98362478690E-02 -0.15383679691E-02 -0.38630978479E-01  0.39896515730E-01  0.51100000000E-03 0. -1.
         11    1    4    4    0    0  0.29407567947E-02 -0.32079288225E-01 -0.84968757614E-01  0.90871776009E-01  0.51100000000E-03 0.  1.
</event>
<event>
 8    1  0.1091347E+005  0.1043930E+01  0.7957747E-01            NaN
         13   -1    0    0    0    0  0.00000000000E+00  0.00000000000E+00  0.74505805969E-08  0.10566000000E+00  0.10566000000E+00 0. -1.
     999900   -1    0    0    0    0 -0.00000000000E+00 -0.00000000000E+00 -0.74505805969E-08  0.93827000000E+00  0.93827000000E+00 0. -1.
     999902    2    1    2    0    0 -0.12565822707E-01  0.94628742554E-02 -0.18262632919E-01  0.10198266880E+01  0.10195418107E+01 0.  0.
     999903    2    3    3    0    0  0.50414856323E-01 -0.67567227094E-01  0.93214336670E-01  0.12723085716E+00  0.19793699420E-01 0.  0.
         14    1    1    2    0    0  0.12565822707E-01 -0.94628742554E-02  0.18262632919E-01  0.24103312026E-01  0.00000000000E+00 0. -1.
     999901    1    3    3    0    0 -0.62980679030E-01  0.77030101349E-01 -0.11147696959E+00  0.89259583082E+00  0.88000000000E+00 0. -1.
        -11    1    4    4    0    0  0.40628126598E-01 -0.54163450416E-01  0.61677004730E-01  0.91589508489E-01  0.51100000000E-03 0.  1.
         11    1    4    4    0    0  0.97867297253E-02 -0.13403776678E-01  0.31537331940E-01  0.35641348667E-01  0.51100000000E-03 0. -1.
</event>
<event>
 8    1  0.1091347E+005  0.1043930E+01  0.7957747E-01            NaN
         13   -1    0    0    0    0  0.00000000000E+00  0.00000000000E+00  0.74505805969E-08  0.10566000000E+00  0.10566000000E+00 0. -1.
     999900   -1    0    0    0    0 -0.00000000000E+00 -0.00000000000E+00 -0.74505805969E-08  0.93827000000E+00  0.93827000000E+00 0. -1.
     999902    2    1    2    0    0 -0.22516421449E-01  0.11155327649E-01  0.29123993104E-02  0.10186335054E+01  0.10183193535E+01 0.  0.
     999903    2    3    3    0    0  0.11006039044E+00  0.58431780295E-01  0.16696338921E-01  0.12734136977E+00  0.20235963770E-01 0.  0.
         14    1    1    2    0    0  0.22516421449E-01 -0.11155327649E-01 -0.29123993104E-02  0.25296494611E-01  0.00000000000E+00 0. -1.
     999901    1    3    3    0    0 -0.13257681189E+00 -0.47276452646E-01 -0.13783939611E-01  0.89129213562E+00  0.88000000000E+00 0.  1.
        -11    1    4    4    0    0  0.51878947065E-01  0.17152973048E-01  0.11289870106E-01  0.55797597807E-01  0.51100000000E-03 0.  1.
         11    1    4    4    0    0  0.58181443373E-01  0.41278807247E-01  0.54064688150E-02  0.71543771964E-01  0.51100000000E-03 0. -1.
</event>
<event>
 8    1  0.1091347E+005  0.1043930E+01  0.7957747E-01            NaN
         13   -1    0    0    0    0  0.00000000000E+00  0.00000000000E+00  0.74505805969E-08  0.10566000000E+00  0.10566000000E+00 0. -1.
     999900   -1    0    0    0    0 -0.00000000000E+00 -0.00000000000E+00 -0.74505805969E-08  0.93827000000E+00  0.93827000000E+00 0. -1.
     999902    2    1    2    0    0  0.19545192483E-01 -0.87121681550E-02  0.10482377745E-01  0.10201015157E+01  0.10198231737E+01 0.  0.
     999903    2    3    3    0    0  0.12148279883E+00 -0.35378363685E-01  0.36903067123E-01  0.13342208406E+00  0.20734442922E-01 0.  0.
         14    1    1    2    0    0 -0.19545192483E-01  0.87121681550E-02 -0.10482377745E-01  0.23828484348E-01  0.00000000000E+00 0.  1.
     999901    1    3    3    0    0 -0.10193760635E+00  0.26666195530E-01 -0.26420689378E-01  0.88667943159E+00  0.88000000000E+00 0. -1.
        -11    1    4    4    0    0  0.23776216605E-01 -0.15707802170E-01  0.97291192292E-02  0.30115783354E-01  0.51100000000E-03 0. -1.
         11    1    4    4    0    0  0.97706582230E-01 -0.19670561516E-01  0.27173947894E-01  0.10330630071E+00  0.51100000000E-03 0.  1.
</event>
<event>
 8    1  0.1091347E+005  0.1043930E+01  0.7957747E-01            NaN
         13   -1    0    0    0    0  0.00000000000E+00  0.00000000000E+00  0.74505805969E-08  0.10566000000E+00  0.10566000000E+00 0.  1.
     999900   -1    0    0    0    0 -0.00000000000E+00 -0.00000000000E+00 -0.74505805969E-08  0.93827000000E+00  0.93827000000E+00 0.  1.
     999902    2    1    2    0    0  0.15469914362E-02  0.70036690541E-02 -0.22085362516E-01  0.10207091516E+01  0.10204449835E+01 0.  0.
     999903    2    3    3    0    0  0.75608343192E-02 -0.19354174469E-01 -0.13031830062E+00  0.13366615878E+00  0.21261049885E-01 0.  0.
         14    1    1    2    0    0 -0.15469914362E-02 -0.70036690541E-02  0.22085362516E-01  0.23220848395E-01  0.00000000000E+00 0.  1.
     999901    1    3    3    0    0 -0.60138428830E-02  0.26357843523E-01  0.10823293811E+00  0.88704299282E+00  0.88000000000E+00 0. -1.
        -11    1    4    4    0    0  0.75053437898E-02  0.22009297123E-02 -0.26615529945E-01  0.27745663305E-01  0.51100000000E-03 0. -1.
         11    1    4    4    0    0  0.55490529451E-04 -0.21555104182E-01 -0.10370277068E+00  0.10592049548E+00  0.51100000000E-03 0.  1.
</event>
<event>
 8    1  0.1091347E+005  0.1043930E+01  0.7957747E-01            NaN
         13   -1    0    0    0    0  0.00000000000E+00  0.00000000000E+00  0.74505805969E-08  0.10566000000E+00  0.10566000000E+00 0. -1.
     999900   -1    0    0    0    0 -0.00000000000E+00 -0.00000000000E+00 -0.74505805969E-08  0.93827000000E+00  0.93827000000E+00 0. -1.
     999902    2    1    2    0    0  0.11775175447E-01  0.17991845790E-02  0.21777922497E-01  0.10191072336E+01  0.10188048802E+01 0.  0.
     999903    2    3    3    0    0  0.60821913551E-01 -0.63043961376E-01  0.97069207766E-01  0.13215797142E+00  0.19221136278E-01 0.  0.
         14    1    1    2    0    0 -0.11775175447E-01 -0.17991845790E-02 -0.21777922497E-01  0.24822766370E-01  0.00000000000E+00 0.  1.
     999901    1    3    3    0    0 -0.49046738104E-01  0.64843145955E-01 -0.75291285269E-01  0.88694926221E+00  0.88000000000E+00 0. -1.
        -11    1    4    4    0    0  0.42579746216E-01 -0.53271575220E-01  0.81409255376E-01  0.10620086391E+00  0.51100000000E-03 0.  1.
         11    1    4    4    0    0  0.18242167336E-01 -0.97723861564E-02  0.15659952390E-01  0.25957107507E-01  0.51100000000E-03 0. -1.
</event>
<event>
 8    1  0.1091347E+005  0.1043930E+01  0.7957747E-01            NaN
         13   -1    0    0    0    0  0.00000000000E+00  0.00000000000E+00  0.74505805969E-08  0.10566000000E+00  0.10566000000E+00 0. -1.
     999900   -1    0    0    0    0 -0.00000000000E+00 -0.00000000000E+00 -0.74505805969E-08  0.93827000000E+00  0.93827000000E+00 0. -1.
     999902    2    1    2    0    0  0.64388412383E-02 -0.19054157117E-01  0.11155607710E-01  0.10209307139E+01  0.10206716197E+01 0.  0.
     999903    2    3    3    0    0 -0.20675504261E-01 -0.11300136593E+00  0.65993822236E-01  0.13381826577E+00  0.18850954941E-01 0.  0.
         14    1    1    2    0    0 -0.64388412383E-02  0.19054157117E-01 -0.11155607710E-01  0.22999286148E-01  0.00000000000E+00 0. -1.
     999901    1    3    3    0    0  0.27114345499E-01  0.93947208808E-01 -0.54838214526E-01  0.88711244808E+00  0.88000000000E+00 0.  1.
        -11    1    4    4    0    0 -0.14042661360E-01 -0.55922663032E-01  0.23128253354E-01  0.62126627165E-01  0.51100000000E-03 0.  1.
         11    1    4    4    0    0 -0.66328429011E-02 -0.57078702894E-01  0.42865568881E-01  0.71691638602E-01  0.51100000000E-03 0. -1.
</event>
<event>
 8    1  0.1091347E+005  0.1043930E+01  0.7957747E-01            NaN
         13   -1    0    0    0    0  0.00000000000E+00  0.00000000000E+00  0.74505805969E-08  0.10566000000E+00  0.10566000000E+00 0.  1.
     999900   -1    0    0    0    0 -0.00000000000E+00 -0.00000000000E+00 -0.74505805969E-08  0.93827000000E+00  0.93827000000E+00 0. -1.
     999902    2    1    2    0    0 -0.20987487392E-01  0.10888186632E-01 -0.18056115278E-01  0.10141802011E+01  0.10137437693E+01 0.  0.
     999903    2    3    3    0    0  0.41934837743E-01 -0.35973759813E-01  0.10681365598E+00  0.12190909836E+00  0.20000728652E-01 0.  0.
         14    1    1    2    0    0  0.20987487392E-01 -0.10888186632E-01  0.18056115278E-01  0.29749798892E-01  0.00000000000E+00 0. -1.
     999901    1    3    3    0    0 -0.62922325135E-01  0.46861946445E-01 -0.12486977126E+00  0.89227110275E+00  0.88000000000E+00 0. -1.
        -11    1    4    4    0    0  0.15302316025E-01 -0.20984668379E-01  0.65931601482E-01  0.70864337842E-01  0.51100000000E-03 0. -1.
         11    1    4    4    0    0  0.26632521718E-01 -0.14989091434E-01  0.40882054502E-01  0.51044760518E-01  0.51100000000E-03 0.  1.
</event>
<event>
 8    1  0.1091347E+005  0.1043930E+01  0.7957747E-01            NaN
         13   -1    0    0    0    0  0.00000000000E+00  0.00000000000E+00  0.74505805969E-08  0.10566000000E+00  0.10566000000E+00 0. -1.
     999900   -1    0    0    0    0 -0.00000000000E+00 -0.00000000000E+00 -0.74505805969E-08  0.93827000000E+00  0.93827000000E+00 0. -1.
     999902    2    1    2    0    0 -0.15983693727E-01 -0.24940508742E-01  0.71933735196E-03  0.10142985153E+01  0.10138655992E+01 0.  0.
     999903    2    3    3    0    0 -0.63246693259E-01 -0.10255319578E+00  0.40754340187E-01  0.12871378088E+00  0.19723563873E-01 0.  0.
         14    1    1    2    0    0  0.15983693727E-01  0.24940508742E-01 -0.71933735196E-03  0.29631484737E-01  0.00000000000E+00 0. -1.
     999901    1    3    3    0    0  0.47262999532E-01  0.77612687040E-01 -0.40035002835E-01  0.88558473438E+00  0.88000000000E+00 0. -1.
        -11    1    4    4    0    0 -0.14572139031E-01 -0.12484734925E-01  0.22297641092E-02  0.19324823701E-01  0.51100000000E-03 0. -1.
         11    1    4    4    0    0 -0.48674554227E-01 -0.90068460857E-01  0.38524576078E-01  0.10938895718E+00  0.51100000000E-03 0.  1.
</event>
<event>
 8    1  0.1091347E+005  0.1043930E+01  0.7957747E-01            NaN
         13   -1    0    0    0    0  0.00000000000E+00  0.00000000000E+00  0.74505805969E-08  0.10566000000E+00  0.10566000000E+00 0. -1.
     999900   -1    0    0    0    0 -0.00000000000E+00 -0.00000000000E+00 -0.74505805969E-08  0.93827000000E+00  0.93827000000E+00 0.  1.
     999902    2    1    2    0    0 -0.13288985824E-01  0.20926563774E-01  0.23502657507E-01  0.10097701826E+01  0.10091922158E+01 0.  0.
     999903    2    3    3    0    0  0.10176490164E+00  0.38702180644E-01 -0.45781741100E-01  0.11940301256E+00  0.17525912152E-01 0.  0.
         14    1    1    2    0    0  0.13288985824E-01 -0.20926563774E-01 -0.23502657507E-01  0.34159817411E-01  0.00000000000E+00 0.  1.
     999901    1    3    3    0    0 -0.11505388747E+00 -0.17775616870E-01  0.69284398607E-01  0.89036717003E+00  0.88000000000E+00 0. -1.
        -11    1    4    4    0    0  0.16576487005E-01  0.67460185765E-02 -0.84264038209E-03  0.17923723158E-01  0.51100000000E-03 0.  1.
         11    1    4    4    0    0  0.85188414640E-01  0.31956162067E-01 -0.44939100718E-01  0.10147928940E+00  0.51100000000E-03 0. -1.
</event>
<event>
 8    1  0.1091347E+005  0.1043930E+01  0.7957747E-01            NaN
         13   -1    0    0    0    0  0.00000000000E+00  0.00000000000E+00  0.74505805969E-08  0.10566000000E+00  0.10566000000E+00 0.  1.
     999900   -1    0    0    0    0 -0.00000000000E+00 -0.00000000000E+00 -0.74505805969E-08  0.93827000000E+00  0.93827000000E+00 0.  1.
     999902    2    1    2    0    0 -0.16195696607E-01 -0.13435174322E-01 -0.81078214158E-02  0.10213791405E+01  0.10211301618E+01 0.  0.
     999903    2    3    3    0    0 -0.53064427811E-01  0.95454653176E-01 -0.70733226902E-01  0.13169479235E+00  0.20320054910E-01 0.  0.
         14    1    1    2    0    0  0.16195696607E-01  0.13435174322E-01  0.81078214158E-02  0.22550859535E-01  0.00000000000E+00 0.  1.
     999901    1    3    3    0    0  0.36868731204E-01 -0.10888982750E+00  0.62625405487E-01  0.88968434812E+00  0.88000000000E+00 0. -1.
        -11    1    4    4    0    0 -0.36088492469E-01  0.44867172332E-01 -0.33375734832E-01  0.66555565044E-01  0.51100000000E-03 0. -1.
         11    1    4    4    0    0 -0.16975935342E-01  0.50587480845E-01 -0.37357492071E-01  0.65139227304E-01  0.51100000000E-03 0.  1.
</event>
<event>
 8    1  0.1091347E+005  0.1043930E+01  0.7957747E-01            NaN
         13   -1    0    0    0    0  0.00000000000E+00  0.00000000000E+00  0.74505805969E-08  0.10566000000E+00  0.10566000000E+00 0. -1.
     999900   -1    0    0    0    0 -0.00000000000E+00 -0.00000000000E+00 -0.74505805969E-08  0.93827000000E+00  0.93827000000E+00 0.  1.
     999902    2    1    2    0    0 -0.78682125904E-02  0.11440292550E-01 -0.13991146784E-01  0.10242185502E+01  0.10240288558E+01 0.  0.
     999903    2    3    3    0    0  0.10312846145E+00  0.46113513437E-01  0.66876784381E-01  0.13289250654E+00  0.20639242346E-01 0.  0.
         14    1    1    2    0    0  0.78682125904E-02 -0.11440292550E-01  0.13991146784E-01  0.19711449752E-01  0.00000000000E+00 0. -1.
     999901    1    3    3    0    0 -0.11099667404E+00 -0.34673220887E-01 -0.80867931165E-01  0.89132604370E+00  0.88000000000E+00 0.  1.
        -11    1    4    4    0    0  0.21994431352E-01  0.89435388651E-02  0.24419024020E-01  0.34063055545E-01  0.51100000000E-03 0.  1.
         11    1    4    4    0    0  0.81134030094E-01  0.37169974571E-01  0.42457760361E-01  0.98829450999E-01  0.51100000000E-03 0. -1.
</event>
<event>
 8    1  0.1091347E+005  0.1043930E+01  0.7957747E-01            NaN
         13   -1    0    0    0    0  0.00000000000E+00  0.00000000000E+00  0.74505805969E-08  0.10566000000E+00  0.10566000000E+00 0.  1.
     999900   -1    0    0    0    0 -0.00000000000E+00 -0.00000000000E+00 -0.74505805969E-08  0.93827000000E+00  0.93827000000E+00 0. -1.
     999902    2    1    2    0    0 -0.19218741269E-01 -0.28767470598E-02  0.13836372043E-01  0.10200745838E+01  0.10197956049E+01 0.  0.
     999903    2    3    3    0    0 -0.76520913491E-01  0.29586175121E-01 -0.99344019277E-01  0.13038521037E+00  0.20006922734E-01 0.  0.
         14    1    1    2    0    0  0.19218741269E-01  0.28767470598E-02 -0.13836372043E-01  0.23855416176E-01  0.00000000000E+00 0. -1.
     999901    1    3    3    0    0  0.57302172223E-01 -0.32462922181E-01  0.11318039132E+00  0.88968937345E+00  0.88000000000E+00 0.  1.
        -11    1    4    4    0    0 -0.29186171924E-01  0.20366311124E-01 -0.50125964246E-01  0.61477578620E-01  0.51100000000E-03 0. -1.
         11    1    4    4    0    0 -0.47334741568E-01  0.92198639972E-02 -0.49218055031E-01  0.68907631751E-01  0.51100000000E-03 0.  1.
</event>
<event>
 8    1  0.1091347E+005  0.1043930E+01  0.7957747E-01            NaN
         13   -1    0    0    0    0  0.00000000000E+00  0.00000000000E+00  0.74505805969E-08  0.10566000000E+00  0.10566000000E+00 0. -1.
     999900   -1    0    0    0    0 -0.00000000000E+00 -0.00000000000E+00 -0.74505805969E-08  0.93827000000E+00  0.93827000000E+00 0.  1.
     999902    2    1    2    0    0  0.21651703898E-01 -0.68016606973E-02  0.63653930139E-02  0.10203593170E+01  0.10200870348E+01 0.  0.
     999903    2    3    3    0    0  0.94798415837E-01  0.76181193216E-01  0.48310172242E-01  0.13244267674E+00  0.20417542318E-01 0.  0.
         14    1    1    2    0    0 -0.21651703898E-01  0.68016606973E-02 -0.63653930139E-02  0.23570683022E-01  0.00000000000E+00 0.  1.
     999901    1    3    3    0    0 -0.73146711939E-01 -0.82982853913E-01 -0.41944779228E-01  0.88791664024E+00  0.88000000000E+00 0.  1.
        -11    1    4    4    0    0  0.22043042555E-01  0.29285437802E-01  0.16808890844E-01  0.40327813290E-01  0.51100000000E-03 0.  1.
         11    1    4    4    0    0  0.72755373282E-01  0.46895755414E-01  0.31501281399E-01  0.92114863448E-01  0.51100000000E-03 0. -1.
</event>
<event>
 8    1  0.1091347E+005  0.1043930E+01  0.7957747E-01            NaN
         13   -1    0    0    0    0  0.00000000000E+00  0.00000000000E+00  0.74505805969E-08  0.10566000000E+00  0.10566000000E+00 0. -1.
     999900   -1    0    0    0    0 -0.00000000000E+00 -0.00000000000E+00 -0.74505805969E-08  0.93827000000E+00  0.93827000000E+00 0. -1.
     999902    2    1    2    0    0 -0.12091544674E-01  0.90408024276E-02  0.17524934498E-01  0.10207985303E+01  0.10205364151E+01 0.  0.
     999903    2    3    3    0    0 -0.12850081635E+00 -0.22034866295E-01  0.13656226801E-01  0.13258021107E+00  0.19824850615E-01 0.  0.
         14    1    1    2    0    0  0.12091544674E-01 -0.90408024276E-02 -0.17524934498E-01  0.23131469696E-01  0.00000000000E+00 0.  1.
     999901    1    3    3    0    0  0.11640927168E+00  0.31075668723E-01  0.38687076975E-02  0.88821831923E+00  0.88000000000E+00 0. -1.
        -11    1    4    4    0    0 -0.56944990113E-02  0.28445465695E-02 -0.84550916747E-03  0.64416434959E-02  0.51100000000E-03 0. -1.
         11    1    4    4    0    0 -0.12280631734E+00 -0.24879412864E-01  0.14501735968E-01  0.12613856758E+00  0.51100000000E-03 0.  1.
</event>
<event>
 8    1  0.1091347E+005  0.1043930E+01  0.7957747E-01            NaN
         13   -1    0    0    0    0  0.00000000000E+00  0.00000000000E+00  0.74505805969E-08  0.10566000000E+00  0.10566000000E+00 0.  1.
     999900   -1    0    0    0    0 -0.00000000000E+00 -0.00000000000E+00 -0.74505805969E-08  0.93827000000E+00  0.93827000000E+00 0. -1.
     999902    2    1    2    0    0 -0.10457868389E-01  0.57973785251E-02  0.15534216773E-02  0.10318722337E+01  0.10318017818E+01 0.  0.
     999903    2    3    3    0    0  0.13768545264E-01  0.70385152247E-02  0.13862890770E+00  0.14092995252E+00  0.20103828806E-01 0.  0.
         14    1    1    2    0    0  0.10457868389E-01 -0.57973785251E-02 -0.15534216773E-02  0.12057766290E-01  0.00000000000E+00 0. -1.
     999901    1    3    3    0    0 -0.24226413653E-01 -0.12411366996E-02 -0.13707548602E+00  0.89094228119E+00  0.88000000000E+00 0. -1.
        -11    1    4    4    0    0  0.42232442525E-02 -0.56307495128E-03  0.10605490235E+00  0.10614168021E+00  0.51100000000E-03 0. -1.
         11    1    4    4    0    0  0.95453010119E-02  0.76015901760E-02  0.32574005353E-01  0.34788272311E-01  0.51100000000E-03 0.  1.
</event>
<event>
 8    1  0.1091347E+005  0.1043930E+01  0.7957747E-01            NaN
         13   -1    0    0    0    0  0.00000000000E+00  0.00000000000E+00  0.74505805969E-08  0.10566000000E+00  0.10566000000E+00 0. -1.
     999900   -1    0    0    0    0 -0.00000000000E+00 -0.00000000000E+00 -0.74505805969E-08  0.93827000000E+00  0.93827000000E+00 0. -1.
     999902    2    1    2    0    0 -0.10647710557E-01  0.18191056997E-01  0.10309293432E-01  0.10204657756E+01  0.10201959760E+01 0.  0.
     999903    2    3    3    0    0  0.23986360907E-01 -0.79162273651E-02 -0.12503504115E+00  0.12906283749E+00  0.19632685479E-01 0.  0.
         14    1    1    2    0    0  0.10647710557E-01 -0.18191056997E-01 -0.10309293432E-01  0.23464224382E-01  0.00000000000E+00 0.  1.
     999901    1    3    3    0    0 -0.34634071465E-01  0.26107284362E-01  0.13534433458E+00  0.89140293813E+00  0.88000000000E+00 0.  1.
        -11    1    4    4    0    0  0.27136678078E-01 -0.66549939586E-02 -0.10141560638E+00  0.10519541141E+00  0.51100000000E-03 0.  1.
         11    1    4    4    0    0 -0.31503171702E-02 -0.12612334066E-02 -0.23619434769E-01  0.23867426082E-01  0.51100000000E-03 0. -1.
</event>
<event>
 8    1  0.1091347E+005  0.1043930E+01  0.7957747E-01            NaN
         13   -1    0    0    0    0  0.00000000000E+00  0.00000000000E+00  0.74505805969E-08  0.10566000000E+00  0.10566000000E+00 0.  1.
     999900   -1    0    0    0    0 -0.00000000000E+00 -0.00000000000E+00 -0.74505805969E-08  0.93827000000E+00  0.93827000000E+00 0. -1.
     999902    2    1    2    0    0  0.52713744133E-02  0.36166967745E-02 -0.20340386497E-01  0.10226086678E+01  0.10223863694E+01 0.  0.
     999903    2    3    3    0    0  0.91792631002E-01  0.36716132002E-01  0.84851107733E-01  0.13151565868E+00  0.17963756251E-01 0.  0.
         14    1    1    2    0    0 -0.52713744133E-02 -0.36166967745E-02  0.20340386497E-01  0.21321332196E-01  0.00000000000E+00 0.  1.
     999901    1    3    3    0    0 -0.86521256589E-01 -0.33099435227E-01 -0.10519149423E+00  0.89109300913E+00  0.88000000000E+00 0. -1.
        -11    1    4    4    0    0  0.26811634672E-01  0.17960025638E-01  0.34134717689E-01  0.46977296084E-01  0.51100000000E-03 0. -1.
         11    1    4    4    0    0  0.64980996330E-01  0.18756106364E-01  0.50716390044E-01  0.84538362594E-01  0.51100000000E-03 0.  1.
</event>
<event>
 8    1  0.1091347E+005  0.1043930E+01  0.7957747E-01            NaN
         13   -1    0    0    0    0  0.00000000000E+00  0.00000000000E+00  0.74505805969E-08  0.10566000000E+00  0.10566000000E+00 0.  1.
     999900   -1    0    0    0    0 -0.00000000000E+00 -0.00000000000E+00 -0.74505805969E-08  0.93827000000E+00  0.93827000000E+00 0. -1.
     999902    2    1    2    0    0 -0.68716158467E-02  0.26983113849E-01  0.14547910424E-01  0.10125142518E+01  0.10120267590E+01 0.  0.
     999903    2    3    3    0    0  0.10136732253E+00 -0.41615043740E-01 -0.47708524898E-01  0.12105632304E+00  0.19271327359E-01 0.  0.
         14    1    1    2    0    0  0.68716158467E-02 -0.26983113849E-01 -0.14547910424E-01  0.31415748201E-01  0.00000000000E+00 0. -1.
     999901    1    3    3    0    0 -0.10823893838E+00  0.68598157589E-01  0.62256435322E-01  0.89145792876E+00  0.88000000000E+00 0.  1.
        -11    1    4    4    0    0  0.95495285844E-01 -0.42892888267E-01 -0.47658483803E-01  0.11502496112E+00  0.51100000000E-03 0. -1.
         11    1    4    4    0    0  0.58720366849E-02  0.12778445268E-02 -0.50041095489E-04  0.60313619170E-02  0.51100000000E-03 0.  1.
</event>
<event>
 8    1  0.1091347E+005  0.1043930E+01  0.7957747E-01            NaN
         13   -1    0    0    0    0  0.00000000000E+00  0.00000000000E+00  0.74505805969E-08  0.10566000000E+00  0.10566000000E+00 0.  1.
     999900   -1    0    0    0    0 -0.00000000000E+00 -0.00000000000E+00 -0.74505805969E-08  0.93827000000E+00  0.93827000000E+00 0.  1.
     999902    2    1    2    0    0 -0.96953269506E-02  0.13075527543E-02  0.22716768585E-01  0.10191962046E+01  0.10188960413E+01 0.  0.
     999903    2    3    3    0    0  0.44510273119E-01 -0.10587049729E+00 -0.52417227837E-01  0.12786545854E+00  0.20304755723E-01 0.  0.
         14    1    1    2    0    0  0.96953269506E-02 -0.13075527543E-02 -0.22716768585E-01  0.24733795378E-01  0.00000000000E+00 0. -1.
     999901    1    3    3    0    0 -0.54205600070E-01  0.10717805004E+00  0.75133996421E-01  0.89133074608E+00  0.88000000000E+00 0. -1.
        -11    1    4    4    0    0  0.14935253007E-01 -0.49312958979E-01 -0.32848644348E-01  0.61107481230E-01  0.51100000000E-03 0.  1.
         11    1    4    4    0    0  0.29575020112E-01 -0.56557538308E-01 -0.19568583489E-01  0.66757977312E-01  0.51100000000E-03 0. -1.
</event>
<event>
 8    1  0.1091347E+005  0.1043930E+01  0.7957747E-01            NaN
         13   -1    0    0    0    0  0.00000000000E+00  0.00000000000E+00  0.74505805969E-08  0.10566000000E+00  0.10566000000E+00 0.  1.
     999900   -1    0    0    0    0 -0.00000000000E+00 -0.00000000000E+00 -0.74505805969E-08  0.93827000000E+00  0.93827000000E+00 0.  1.
     999902    2    1    2    0    0  0.15768026843E-01 -0.16690102058E-01 -0.87432947075E-02  0.10193610078E+01  0.10190648796E+01 0.  0.
     999903    2    3    3    0    0  0.65993911777E-01 -0.16464443125E-01 -0.11145286446E+00  0.13196484699E+00  0.19149557852E-01 0.  0.
         14    1    1    2    0    0 -0.15768026843E-01  0.16690102058E-01  0.87432947075E-02  0.24568992238E-01  0.00000000000E+00 0. -1.
     999901    1    3    3    0    0 -0.50225884934E-01 -0.22565893369E-03  0.10270956975E+00  0.88739616077E+00  0.88000000000E+00 0. -1.
        -11    1    4    4    0    0  0.56007384606E-01 -0.89725470014E-02 -0.79551410547E-01  0.97703744919E-01  0.51100000000E-03 0.  1.
         11    1    4    4    0    0  0.99865271708E-02 -0.74918961233E-02 -0.31901453909E-01  0.34261102069E-01  0.51100000000E-03 0. -1.
</event>
<event>
 8    1  0.1091347E+005  0.1043930E+01  0.7957747E-01            NaN
         13   -1    0    0    0    0  0.00000000000E+00  0.00000000000E+00  0.74505805969E-08  0.10566000000E+00  0.10566000000E+00 0.  1.
     999900   -1    0    0    0    0 -0.00000000000E+00 -0.00000000000E+00 -0.74505805969E-08  0.93827000000E+00  0.93827000000E+00 0.  1.
     999902    2    1    2    0    0 -0.17130164387E-01  0.12129260097E-01 -0.12643791810E-01  0.10194263890E+01  0.10191318539E+01 0.  0.
     999903    2    3    3    0    0 -0.75023765248E-01 -0.69038245900E-01  0.77118613941E-01  0.12925948184E+00  0.19128206424E-01 0.  0.
         14    1    1    2    0    0  0.17130164387E-01 -0.12129260097E-01  0.12643791810E-01  0.24503611035E-01  0.00000000000E+00 0.  1.
     999901    1    3    3    0    0  0.57893600862E-01  0.81167505997E-01 -0.89762405751E-01  0.89016690712E+00  0.88000000000E+00 0.  1.
        -11    1    4    4    0    0 -0.30213882453E-01 -0.40767644405E-01  0.38224703932E-01  0.63531634915E-01  0.51100000000E-03 0. -1.
         11    1    4    4    0    0 -0.44809882795E-01 -0.28270601495E-01  0.38893910009E-01  0.65727846928E-01  0.51100000000E-03 0.  1.
</event>
<event>
 8    1  0.1091347E+005  0.1043930E+01  0.7957747E-01            NaN
         13   -1    0    0    0    0  0.00000000000E+00  0.00000000000E+00  0.74505805969E-08  0.10566000000E+00  0.10566000000E+00 0.  1.
     999900   -1    0    0    0    0 -0.00000000000E+00 -0.00000000000E+00 -0.74505805969E-08  0.93827000000E+00  0.93827000000E+00 0. -1.
     999902    2    1    2    0    0  0.21341538394E-01 -0.37243684211E-02 -0.99646676484E-02  0.10200841034E+01  0.10198053497E+01 0.  0.
     999903    2    3    3    0    0  0.22709315590E-01  0.65680793633E-01 -0.11004596963E+00  0.13169499143E+00  0.20094170070E-01 0.  0.
         14    1    1    2    0    0 -0.21341538394E-01  0.37243684211E-02  0.99646676484E-02  0.23845896555E-01  0.00000000000E+00 0.  1.
     999901    1    3    3    0    0 -0.13677771966E-02 -0.69405162054E-01  0.10008130198E+00  0.88838911201E+00  0.88000000000E+00 0.  1.
        -11    1    4    4    0    0 -0.10071737800E-02  0.19447093316E-02 -0.12993937150E-01  0.13187107987E-01  0.51100000000E-03 0. -1.
         11    1    4    4    0    0  0.23716489370E-01  0.63736084301E-01 -0.97052032478E-01  0.11850788345E+00  0.51100000000E-03 0.  1.
</event>
<event>
 8    1  0.1091347E+005  0.1043930E+01  0.7957747E-01            NaN
         13   -1    0    0    0    0  0.00000000000E+00  0.00000000000E+00  0.74505805969E-08  0.10566000000E+00  0.10566000000E+00 0. -1.
     999900   -1    0    0    0    0 -0.00000000000E+00 -0.00000000000E+00 -0.74505805969E-08  0.93827000000E+00  0.93827000000E+00 0.  1.
     999902    2    1    2    0    0  0.13164749628E-01  0.22642953748E-03  0.20400442937E-01  0.10196495557E+01  0.10193604252E+01 0.  0.
     999903    2    3    3    0    0 -0.78330858796E-01  0.44960885321E-01 -0.87773570555E-01  0.12719550362E+00  0.17812686593E-01 0.  0.
         14    1    1    2    0    0 -0.13164749628E-01 -0.22642953748E-03 -0.20400442937E-01  0.24280444295E-01  0.00000000000E+00 0.  1.
     999901    1    3    3    0    0  0.91495608424E-01 -0.44734455783E-01  0.10817401349E+00  0.89245405209E+00  0.88000000000E+00 0. -1.
        -11    1    4    4    0    0 -0.19125417950E-01  0.31876875564E-02 -0.15216884871E-01  0.24652741630E-01  0.51100000000E-03 0. -1.
         11    1    4    4    0    0 -0.59205440847E-01  0.41773197764E-01 -0.72556685684E-01  0.10254276199E+00  0.51100000000E-03 0.  1.
</event>
<event>
 8    1  0.1091347E+005  0.1043930E+01  0.7957747E-01            NaN
         13   -1    0    0    0    0  0.00000000000E+00  0.00000000000E+00  0.74505805969E-08  0.10566000000E+00  0.10566000000E+00 0. -1.
     999900   -1    0    0    0    0 -0.00000000000E+00 -0.00000000000E+00 -0.74505805969E-08  0.93827000000E+00  0.93827000000E+00 0.  1.
     999902    2    1    2    0    0 -0.34201215132E-02  0.22484862226E-01  0.48516356908E-02  0.10206747935E+01  0.10204098341E+01 0.  0.
     999903    2    3    3    0    0  0.11967364301E+00 -0.77417448866E-02  0.47764615328E-01  0.13055837052E+00  0.19552856280E-01 0.  0.
         14    1    1    2    0    0  0.34201215132E-02 -0.22484862226E-01 -0.48516356908E-02  0.23255206500E-01  0.00000000000E+00 0. -1.
     999901    1    3    3    0    0 -0.12309376453E+00  0.30226607113E-01 -0.42912979637E-01  0.89011642298E+00  0.88000000000E+00 0. -1.
        -11    1    4    4    0    0  0.10116508812E+00 -0.13606377958E-01  0.40671222469E-01  0.10988138165E+00  0.51100000000E-03 0.  1.
         11    1    4    4    0    0  0.18508554893E-01  0.58646330719E-02  0.70933928590E-02  0.20676988866E-01  0.51100000000E-03 0. -1.
</event>
<event>
 8    1  0.1091347E+005  0.1043930E+01  0.7957747E-01            NaN
         13   -1    0    0    0    0  0.00000000000E+00  0.00000000000E+00  0.74505805969E-08  0.10566000000E+00  0.10566000000E+00 0. -1.
     999900   -1    0    0    0    0 -0.00000000000E+00 -0.00000000000E+00 -0.74505805969E-08  0.93827000000E+00  0.93827000000E+00 0. -1.
     999902    2    1    2    0    0 -0.41139355601E-02  0.11546536002E-01  0.20333396341E-01  0.10201877599E+01  0.10199114527E+01 0.  0.
     999903    2    3    3    0    0 -0.46867119827E-01 -0.99198311166E-01  0.67028398518E-01  0.13098998707E+00  0.25074661403E-01 0.  0.
         14    1    1    2    0    0  0.41139355601E-02 -0.11546536002E-01 -0.20333396341E-01  0.23742240126E-01  0.00000000000E+00 0. -1.
     999901    1    3    3    0    0  0.42753184267E-01  0.11074484717E+00 -0.46695002177E-01  0.88919777281E+00  0.88000000000E+00 0. -1.
        -11    1    4    4    0    0 -0.34877514566E-01 -0.85167814477E-01  0.45620354187E-01  0.10272037520E+00  0.51100000000E-03 0.  1.
         11    1    4    4    0    0 -0.11989605261E-01 -0.14030496689E-01  0.21408044332E-01  0.28269611861E-01  0.51100000000E-03 0. -1.
</event>
<event>
 8    1  0.1091347E+005  0.1043930E+01  0.7957747E-01            NaN
         13   -1    0    0    0    0  0.00000000000E+00  0.00000000000E+00  0.74505805969E-08  0.10566000000E+00  0.10566000000E+00 0. -1.
     999900   -1    0    0    0    0 -0.00000000000E+00 -0.00000000000E+00 -0.74505805969E-08  0.93827000000E+00  0.93827000000E+00 0. -1.
     999902    2    1    2    0    0  0.15434289085E-01 -0.15297320727E-01 -0.71421531728E-02  0.10210556551E+01  0.10207994001E+01 0.  0.
     999903    2    3    3    0    0 -0.17729690964E-01 -0.81326527705E-01 -0.10162315416E+00  0.13291919868E+00  0.20295365583E-01 0.  0.
         14    1    1    2    0    0 -0.15434289085E-01  0.15297320727E-01  0.71421531728E-02  0.22874344863E-01  0.00000000000E+00 0. -1.
     999901    1    3    3    0    0  0.33163980050E-01  0.66029206978E-01  0.94481000991E-01  0.88813645646E+00  0.88000000000E+00 0.  1.
        -11    1    4    4    0    0 -0.11011003894E-01 -0.43507721582E-01 -0.39034243142E-01  0.59481907356E-01  0.51100000000E-03 0.  1.
         11    1    4    4    0    0 -0.67186870701E-02 -0.37818806123E-01 -0.62588911021E-01  0.73437291319E-01  0.51100000000E-03 0. -1.
</event>
<event>
 8    1  0.1091347E+005  0.1043930E+01  0.7957747E-01            NaN
         13   -1    0    0    0    0  0.00000000000E+00  0.00000000000E+00  0.74505805969E-08  0.10566000000E+00  0.10566000000E+00 0.  1.
     999900   -1    0    0    0    0 -0.00000000000E+00 -0.00000000000E+00 -0.74505805969E-08  0.93827000000E+00  0.93827000000E+00 0. -1.
     999902    2    1    2    0    0  0.53760405787E-04  0.21866495380E-01 -0.99608412333E-02  0.10199015821E+01  0.10196184935E+01 0.  0.
     999903    2    3    3    0    0 -0.45502643084E-01  0.12292051539E+00 -0.10096210756E-01  0.13294762656E+00  0.19829127696E-01 0.  0.
         14    1    1    2    0    0 -0.53760405787E-04 -0.21866495380E-01  0.99608412333E-02  0.24028417935E-01  0.00000000000E+00 0.  1.
     999901    1    3    3    0    0  0.45556403490E-01 -0.10105402001E+00  0.13536952293E-03  0.88695395550E+00  0.88000000000E+00 0.  1.
        -11    1    4    4    0    0 -0.24512412246E-01  0.62347973719E-01  0.46790195122E-02  0.67158637014E-01  0.51100000000E-03 0.  1.
         11    1    4    4    0    0 -0.20990230838E-01  0.60572541671E-01 -0.14775230268E-01  0.65788989547E-01  0.51100000000E-03 0. -1.
</event>
<event>
 8    1  0.1091347E+005  0.1043930E+01  0.7957747E-01            NaN
         13   -1    0    0    0    0  0.00000000000E+00  0.00000000000E+00  0.74505805969E-08  0.10566000000E+00  0.10566000000E+00 0.  1.
     999900   -1    0    0    0    0 -0.00000000000E+00 -0.00000000000E+00 -0.74505805969E-08  0.93827000000E+00  0.93827000000E+00 0. -1.
     999902    2    1    2    0    0  0.18187256263E-01 -0.80144029396E-02 -0.12095551749E-01  0.10206639450E+01  0.10203987354E+01 0.  0.
     999903    2    3    3    0    0 -0.65441937974E-01 -0.65170271463E-02 -0.11166324781E+00  0.13110798250E+00  0.19887264135E-01 0.  0.
         14    1    1    2    0    0 -0.18187256263E-01  0.80144029396E-02  0.12095551749E-01  0.23266055037E-01  0.00000000000E+00 0.  1.
     999901    1    3    3    0    0  0.83629194236E-01 -0.14973757933E-02  0.99567696058E-01  0.88955596247E+00  0.88000000000E+00 0.  1.
        -11    1    4    4    0    0 -0.16643762839E-01  0.37449300741E-02 -0.16870323782E-01  0.23998089262E-01  0.51100000000E-03 0. -1.
         11    1    4    4    0    0 -0.48798175134E-01 -0.10261957220E-01 -0.94792924025E-01  0.10710989323E+00  0.51100000000E-03 0.  1.
</event>
<event>
 8    1  0.1091347E+005  0.1043930E+01  0.7957747E-01            NaN
         13   -1    0    0    0    0  0.00000000000E+00  0.00000000000E+00  0.74505805969E-08  0.10566000000E+00  0.10566000000E+00 0. -1.
     999900   -1    0    0    0    0 -0.00000000000E+00 -0.00000000000E+00 -0.74505805969E-08  0.93827000000E+00  0.93827000000E+00 0.  1.
     999902    2    1    2    0    0 -0.21216328860E-01 -0.10156186705E-01  0.12327350774E-02  0.10203757992E+01  0.10201039022E+01 0.  0.
     999903    2    3    3    0    0  0.11663860666E+00 -0.21686649605E-01  0.44488447333E-01  0.12851931331E+00  0.21520144352E-01 0.  0.
         14    1    1    2    0    0  0.21216328860E-01  0.10156186705E-01 -0.12327350774E-02  0.23554200782E-01  0.00000000000E+00 0.  1.
     999901    1    3    3    0    0 -0.13785493552E+00  0.11530462900E-01 -0.43255712255E-01  0.89185648591E+00  0.88000000000E+00 0.  1.
        -11    1    4    4    0    0  0.45292347011E-01 -0.98140047182E-02  0.28616811014E-01  0.54469205795E-01  0.51100000000E-03 0. -1.
         11    1    4    4    0    0  0.71346259645E-01 -0.11872644887E-01  0.15871636319E-01  0.74050107511E-01  0.51100000000E-03 0.  1.
</event>
<event>
 8    1  0.1091347E+005  0.1043930E+01  0.7957747E-01            NaN
         13   -1    0    0    0    0  0.00000000000E+00  0.00000000000E+00  0.74505805969E-08  0.10566000000E+00  0.10566000000E+00 0. -1.
     999900   -1    0    0    0    0 -0.00000000000E+00 -0.00000000000E+00 -0.74505805969E-08  0.93827000000E+00  0.93827000000E+00 0. -1.
     999902    2    1    2    0    0  0.30183453627E-02  0.15152195753E-01  0.17603280234E-01  0.10205083237E+01  0.10202395130E+01 0.  0.
     999903    2    3    3    0    0  0.26762579308E-01  0.11857067866E+00  0.50191383401E-01  0.13353529385E+00  0.23178831817E-01 0.  0.
         14    1    1    2    0    0 -0.30183453627E-02 -0.15152195753E-01 -0.17603280234E-01  0.23421676282E-01  0.00000000000E+00 0.  1.
     999901    1    3    3    0    0 -0.23744233945E-01 -0.10341848291E+00 -0.32588103167E-01  0.88697302987E+00  0.88000000000E+00 0.  1.
        -11    1    4    4    0    0  0.24854581401E-01  0.61167767123E-01  0.22353672050E-01  0.69707917244E-01  0.51100000000E-03 0. -1.
         11    1    4    4    0    0  0.19079979069E-02  0.57402911542E-01  0.27837711352E-01  0.63827376601E-01  0.51100000000E-03 0.  1.
</event>
<event>
 8    1  0.1091347E+005  0.1043930E+01  0.7957747E-01            NaN
         13   -1    0    0    0    0  0.00000000000E+00  0.00000000000E+00  0.74505805969E-08  0.10566000000E+00  0.10566000000E+00 0.  1.
     999900   -1    0    0    0    0 -0.00000000000E+00 -0.00000000000E+00 -0.74505805969E-08  0.93827000000E+00  0.93827000000E+00 0. -1.
     999902    2    1    2    0    0 -0.99679218015E-02 -0.21634608471E-01  0.25071303927E-02  0.10199779343E+01  0.10196966632E+01 0.  0.
     999903    2    3    3    0    0  0.36773531448E-01 -0.11363410167E+00 -0.53130727798E-01  0.13220305209E+00  0.19742620606E-01 0.  0.
         14    1    1    2    0    0  0.99679218015E-02  0.21634608471E-01 -0.25071303927E-02  0.23952065705E-01  0.00000000000E+00 0. -1.
     999901    1    3    3    0    0 -0.46741453250E-01  0.91999493202E-01  0.55637858191E-01  0.88777488220E+00  0.88000000000E+00 0.  1.
        -11    1    4    4    0    0  0.34947193008E-01 -0.90691376910E-01 -0.48882632420E-01  0.10879340521E+00  0.51100000000E-03 0. -1.
         11    1    4    4    0    0  0.18263384400E-02 -0.22942724764E-01 -0.42480953781E-02  0.23409646880E-01  0.51100000000E-03 0.  1.
</event>
<event>
 8    1  0.1091347E+005  0.1043930E+01  0.7957747E-01            NaN
         13   -1    0    0    0    0  0.00000000000E+00  0.00000000000E+00  0.74505805969E-08  0.10566000000E+00  0.10566000000E+00 0.  1.
     999900   -1    0    0    0    0 -0.00000000000E+00 -0.00000000000E+00 -0.74505805969E-08  0.93827000000E+00  0.93827000000E+00 0.  1.
     999902    2    1    2    0    0  0.33904387164E-02 -0.17102590991E-01 -0.14889102466E-01  0.10210023079E+01  0.10207448426E+01 0.  0.
     999903    2    3    3    0    0  0.29623766267E-01  0.60484353924E-01 -0.11166278097E+00  0.13191678537E+00  0.19938330209E-01 0.  0.
         14    1    1    2    0    0 -0.33904387164E-02  0.17102590991E-01  0.14889102466E-01  0.22927692111E-01  0.00000000000E+00 0.  1.
     999901    1    3    3    0    0 -0.26233327551E-01 -0.77586944915E-01  0.96773678505E-01  0.88908552252E+00  0.88000000000E+00 0. -1.
        -11    1    4    4    0    0  0.24178556673E-01  0.49712014683E-01 -0.74038699768E-01  0.92400634148E-01  0.51100000000E-03 0.  1.
         11    1    4    4    0    0  0.54452095938E-02  0.10772339240E-01 -0.37624081203E-01  0.39516151225E-01  0.51100000000E-03 0. -1.
</event>
<event>
 8    1  0.1091347E+005  0.1043930E+01  0.7957747E-01            NaN
         13   -1    0    0    0    0  0.00000000000E+00  0.00000000000E+00  0.74505805969E-08  0.10566000000E+00  0.10566000000E+00 0. -1.
     999900   -1    0    0    0    0 -0.00000000000E+00 -0.00000000000E+00 -0.74505805969E-08  0.93827000000E+00  0.93827000000E+00 0. -1.
     999902    2    1    2    0    0  0.18639128617E-01 -0.62494021814E-02  0.15092718911E-01  0.10191456842E+01  0.10188442783E+01 0.  0.
     999903    2    3    3    0    0  0.12076604662E+00 -0.24782815589E-01  0.44293178053E-01  0.13256457594E+00  0.20318838709E-01 0.  0.
         14    1    1    2    0    0 -0.18639128617E-01  0.62494021814E-02 -0.15092718911E-01  0.24784315753E-01  0.00000000000E+00 0.  1.
     999901    1    3    3    0    0 -0.10212691801E+00  0.18533413408E-01 -0.29200459142E-01  0.88658110831E+00  0.88000000000E+00 0.  1.
        -11    1    4    4    0    0  0.79179994398E-01 -0.19170666602E-01  0.19315705139E-01  0.83727794411E-01  0.51100000000E-03 0.  1.
         11    1    4    4    0    0  0.41586052225E-01 -0.56121489873E-02  0.24977472914E-01  0.48836781529E-01  0.51100000000E-03 0. -1.
</event>
<event>
 8    1  0.1091347E+005  0.1043930E+01  0.7957747E-01            NaN
         13   -1    0    0    0    0  0.00000000000E+00  0.00000000000E+00  0.74505805969E-08  0.10566000000E+00  0.10566000000E+00 0. -1.
     999900   -1    0    0    0    0 -0.00000000000E+00 -0.00000000000E+00 -0.74505805969E-08  0.93827000000E+00  0.93827000000E+00 0.  1.
     999902    2    1    2    0    0  0.91656899244E-02 -0.25407454749E-02 -0.21878836706E-01  0.10200731613E+01  0.10197941486E+01 0.  0.
     999903    2    3    3    0    0 -0.61800222915E-02 -0.12851396619E+00  0.11491576843E-01  0.13034380481E+00  0.17418924536E-01 0.  0.
         14    1    1    2    0    0 -0.91656899244E-02  0.25407454749E-02  0.21878836706E-01  0.23856838746E-01  0.00000000000E+00 0. -1.
     999901    1    3    3    0    0  0.15345712216E-01  0.12597322072E+00 -0.33370413549E-01  0.88972935645E+00  0.88000000000E+00 0. -1.
        -11    1    4    4    0    0 -0.69409422795E-02 -0.12124713718E+00  0.67820126765E-02  0.12163593947E+00  0.51100000000E-03 0. -1.
         11    1    4    4    0    0  0.76091998797E-03 -0.72668290136E-02  0.47095641667E-02  0.87078653401E-02  0.51100000000E-03 0.  1.
</event>
<event>
 8    1  0.1091347E+005  0.1043930E+01  0.7957747E-01            NaN
         13   -1    0    0    0    0  0.00000000000E+00  0.00000000000E+00  0.74505805969E-08  0.10566000000E+00  0.10566000000E+00 0. -1.
     999900   -1    0    0    0    0 -0.00000000000E+00 -0.00000000000E+00 -0.74505805969E-08  0.93827000000E+00  0.93827000000E+00 0.  1.
     999902    2    1    2    0    0  0.48557083898E-02 -0.21312061878E-01  0.10137309061E-01  0.10198354587E+01  0.10195507912E+01 0.  0.
     999903    2    3    3    0    0 -0.10165710506E+00  0.28401252630E-01 -0.70201568896E-01  0.12839239917E+00  0.20385036927E-01 0.  0.
         14    1    1    2    0    0 -0.48557083898E-02  0.21312061878E-01 -0.10137309061E-01  0.24094541300E-01  0.00000000000E+00 0.  1.
     999901    1    3    3    0    0  0.10651281345E+00 -0.49713314508E-01  0.80338877957E-01  0.89144305953E+00  0.88000000000E+00 0.  1.
        -11    1    4    4    0    0 -0.48268044027E-01  0.21305145533E-01 -0.26566704128E-01  0.59074226103E-01  0.51100000000E-03 0. -1.
         11    1    4    4    0    0 -0.53389061029E-01  0.70961070973E-02 -0.43634864768E-01  0.69318173070E-01  0.51100000000E-03 0.  1.
</event>
<event>
 8    1  0.1091347E+005  0.1043930E+01  0.7957747E-01            NaN
         13   -1    0    0    0    0  0.00000000000E+00  0.00000000000E+00  0.74505805969E-08  0.10566000000E+00  0.10566000000E+00 0. -1.
     999900   -1    0    0    0    0 -0.00000000000E+00 -0.00000000000E+00 -0.74505805969E-08  0.93827000000E+00  0.93827000000E+00 0. -1.
     999902    2    1    2    0    0 -0.19496171528E-01 -0.83788158928E-02  0.16788065542E-01  0.10168718329E+01  0.10165117708E+01 0.  0.
     999903    2    3    3    0    0  0.55406655841E-01 -0.37171254944E-01 -0.10382342577E+00  0.12502735663E+00  0.20023397839E-01 0.  0.
         14    1    1    2    0    0  0.19496171528E-01  0.83788158928E-02 -0.16788065542E-01  0.27058167060E-01  0.00000000000E+00 0.  1.
     999901    1    3    3    0    0 -0.74902827369E-01  0.28792439051E-01  0.12061149131E+00  0.89184447631E+00  0.88000000000E+00 0.  1.
        -11    1    4    4    0    0  0.34026930198E-01 -0.20934965458E-01 -0.43880154964E-01  0.59345040889E-01  0.51100000000E-03 0.  1.
         11    1    4    4    0    0  0.21379725642E-01 -0.16236289486E-01 -0.59943270805E-01  0.65682315738E-01  0.51100000000E-03 0. -1.
</event>
<event>
 8    1  0.1091347E+005  0.1043930E+01  0.7957747E-01            NaN
         13   -1    0    0    0    0  0.00000000000E+00  0.00000000000E+00  0.74505805969E-08  0.10566000000E+00  0.10566000000E+00 0. -1.
     999900   -1    0    0    0    0 -0.00000000000E+00 -0.00000000000E+00 -0.74505805969E-08  0.93827000000E+00  0.93827000000E+00 0. -1.
     999902    2    1    2    0    0 -0.14418729736E-01  0.29947206240E-02  0.18938550101E-01  0.10199396520E+01  0.10196574704E+01 0.  0.
     999903    2    3    3    0    0 -0.54245743200E-01  0.66361159038E-01  0.99842264118E-01  0.13306485389E+00  0.19783163374E-01 0.  0.
         14    1    1    2    0    0  0.14418729736E-01 -0.29947206240E-02 -0.18938550101E-01  0.23990348033E-01  0.00000000000E+00 0.  1.
     999901    1    3    3    0    0  0.39827013464E-01 -0.63366438414E-01 -0.80903714017E-01  0.88687479807E+00  0.88000000000E+00 0. -1.
        -11    1    4    4    0    0 -0.28330845529E-01  0.46157214153E-01  0.71289584331E-01  0.89529834033E-01  0.51100000000E-03 0.  1.
         11    1    4    4    0    0 -0.25914897671E-01  0.20203944884E-01  0.28552679786E-01  0.43535019860E-01  0.51100000000E-03 0. -1.
</event>
<event>
 8    1  0.1091347E+005  0.1043930E+01  0.7957747E-01            NaN
         13   -1    0    0    0    0  0.00000000000E+00  0.00000000000E+00  0.74505805969E-08  0.10566000000E+00  0.10566000000E+00 0. -1.
     999900   -1    0    0    0    0 -0.00000000000E+00 -0.00000000000E+00 -0.74505805969E-08  0.93827000000E+00  0.93827000000E+00 0. -1.
     999902    2    1    2    0    0 -0.15351376984E-01 -0.18640044316E-01  0.81114924343E-03  0.10197685847E+01  0.10194823158E+01 0.  0.
     999903    2    3    3    0    0  0.12091449713E+00  0.17319326751E-01 -0.32236869263E-01  0.12794257230E+00  0.20243798342E-01 0.  0.
         14    1    1    2    0    0  0.15351376984E-01  0.18640044316E-01 -0.81114924343E-03  0.24161415325E-01  0.00000000000E+00 0. -1.
     999901    1    3    3    0    0 -0.13626587412E+00 -0.35959371066E-01  0.33048018507E-01  0.89182601237E+00  0.88000000000E+00 0.  1.
        -11    1    4    4    0    0  0.49754937920E-01  0.76097089370E-02 -0.30837252723E-02  0.50430466983E-01  0.51100000000E-03 0.  1.
         11    1    4    4    0    0  0.71159559214E-01  0.97096178136E-02 -0.29153143991E-01  0.77512105320E-01  0.51100000000E-03 0. -1.
</event>
<event>
 8    1  0.1091347E+005  0.1043930E+01  0.7957747E-01            NaN
         13   -1    0    0    0    0  0.00000000000E+00  0.00000000000E+00  0.74505805969E-08  0.10566000000E+00  0.10566000000E+00 0. -1.
     999900   -1    0    0    0    0 -0.00000000000E+00 -0.00000000000E+00 -0.74505805969E-08  0.93827000000E+00  0.93827000000E+00 0. -1.
     999902    2    1    2    0    0 -0.82650393732E-02  0.15890415554E-01 -0.16795438997E-01  0.10193759178E+01  0.10190801533E+01 0.  0.
     999903    2    3    3    0    0 -0.12734094297E+00 -0.10006030484E-01  0.16437169234E-01  0.13035729988E+00  0.20174456542E-01 0.  0.
         14    1    1    2    0    0  0.82650393732E-02 -0.15890415554E-01  0.16795438997E-01  0.24554082215E-01  0.00000000000E+00 0. -1.
     999901    1    3    3    0    0  0.11907590360E+00  0.25896446038E-01 -0.33232608232E-01  0.88901861791E+00  0.88000000000E+00 0. -1.
        -11    1    4    4    0    0 -0.61706841584E-01  0.76830107455E-03 -0.51741524243E-03  0.61715909005E-01  0.51100000000E-03 0. -1.
         11    1    4    4    0    0 -0.65634101385E-01 -0.10774331559E-01  0.16954584477E-01  0.68641390873E-01  0.51100000000E-03 0.  1.
</event>
<event>
 8    1  0.1091347E+005  0.1043930E+01  0.7957747E-01            NaN
         13   -1    0    0    0    0  0.00000000000E+00  0.00000000000E+00  0.74505805969E-08  0.10566000000E+00  0.10566000000E+00 0. -1.
     999900   -1    0    0    0    0 -0.00000000000E+00 -0.00000000000E+00 -0.74505805969E-08  0.93827000000E+00  0.93827000000E+00 0. -1.
     999902    2    1    2    0    0 -0.19924185478E-01 -0.11372401802E-01  0.10581208659E-02  0.10209642797E+01  0.10207059499E+01 0.  0.
     999903    2    3    3    0    0  0.94964326946E-02  0.12734116980E+00  0.75348792251E-02  0.12958951220E+00  0.20753590207E-01 0.  0.
         14    1    1    2    0    0  0.19924185478E-01  0.11372401802E-01 -0.10581208659E-02  0.22965720313E-01  0.00000000000E+00 0. -1.
     999901    1    3    3    0    0 -0.29420618173E-01 -0.13871357160E+00 -0.64767583592E-02  0.89137476749E+00  0.88000000000E+00 0. -1.
        -11    1    4    4    0    0  0.49417600958E-02  0.11508519270E+00  0.15548857210E-02  0.11520287046E+00  0.51100000000E-03 0. -1.
         11    1    4    4    0    0  0.45546725989E-02  0.12255977103E-01  0.59799935041E-02  0.14386641739E-01  0.51100000000E-03 0.  1.
</event>
<event>
 7    1  0.1091347E+005  0.1043930E+01  0.7957747E-01            NaN
         13   -1    0    0    0    0  0.00000000000E+00  0.00000000000E+00  0.74505805969E-08  0.10566000000E+00  0.10566000000E+00 0. -1.
     999900   -1    0    0    0    0 -0.00000000000E+00 -0.00000000000E+00 -0.74505805969E-08  0.93827000000E+00  0.93827000000E+00 0. -1.
     999902    2    1    2    0    0 -0.10628146031E-01  0.20238774608E-01  0.32062526545E-02  0.10208465526E+01  0.10205855371E+01 0.  0.
         14    1    1    2    0    0  0.10628146031E-01 -0.20238774608E-01 -0.32062526545E-02  0.23083447355E-01  0.00000000000E+00 0.  1.
     999901    1    3    3    0    0 -0.52862059827E-01  0.83782784682E-01  0.95973726434E-01  0.89074401965E+00  0.88000000000E+00 0.  1.
        -11    1    3    3    0    0  0.32556255944E-02 -0.45579114701E-01 -0.63164338054E-01  0.77961846551E-01  0.51100000000E-03 0. -1.
         11    1    3    3    0    0  0.38978288202E-01 -0.17964895373E-01 -0.29603135726E-01  0.52140686443E-01  0.51100000000E-03 0.  1.
</event>
<event>
 8    1  0.1091347E+005  0.1043930E+01  0.7957747E-01            NaN
         13   -1    0    0    0    0  0.00000000000E+00  0.00000000000E+00  0.74505805969E-08  0.10566000000E+00  0.10566000000E+00 0.  1.
     999900   -1    0    0    0    0 -0.00000000000E+00 -0.00000000000E+00 -0.74505805969E-08  0.93827000000E+00  0.93827000000E+00 0. -1.
     999902    2    1    2    0    0  0.13817066264E-01 -0.13890986634E-01 -0.14621581451E-01  0.10194828841E+01  0.10191897221E+01 0.  0.
     999903    2    3    3    0    0  0.40005151350E-01  0.11905644962E+00  0.17669276780E-01  0.12852635538E+00  0.20783896523E-01 0.  0.
         14    1    1    2    0    0 -0.13817066264E-01  0.13890986634E-01  0.14621581451E-01  0.24447115861E-01  0.00000000000E+00 0.  1.
     999901    1    3    3    0    0 -0.26188085085E-01 -0.13294743626E+00 -0.32290858231E-01  0.89095652876E+00  0.88000000000E+00 0. -1.
        -11    1    4    4    0    0  0.12559998766E-01  0.58724600352E-01  0.16306583393E-01  0.62229398506E-01  0.51100000000E-03 0. -1.
         11    1    4    4    0    0  0.27445152583E-01  0.60331849271E-01  0.13626933868E-02  0.66296956877E-01  0.51100000000E-03 0.  1.
</event>
<event>
 8    1  0.1091347E+005  0.1043930E+01  0.7957747E-01            NaN
         13   -1    0    0    0    0  0.00000000000E+00  0.00000000000E+00  0.74505805969E-08  0.10566000000E+00  0.10566000000E+00 0.  1.
     999900   -1    0    0    0    0 -0.00000000000E+00 -0.00000000000E+00 -0.74505805969E-08  0.93827000000E+00  0.93827000000E+00 0. -1.
     999902    2    1    2    0    0 -0.22840293020E-02 -0.23982119218E-01  0.17433988424E-02  0.10197763611E+01  0.10194902787E+01 0.  0.
     999903    2    3    3    0    0 -0.64100837060E-01  0.26450966913E-01  0.10730459283E+00  0.12988424429E+00  0.23389534215E-01 0.  0.
         14    1    1    2    0    0  0.22840293020E-02  0.23982119218E-01 -0.17433988424E-02  0.24153638889E-01  0.00000000000E+00 0. -1.
     999901    1    3    3    0    0  0.61816807758E-01 -0.50433086131E-01 -0.10556119399E+00  0.88989211682E+00  0.88000000000E+00 0. -1.
        -11    1    4    4    0    0 -0.34130624031E-01  0.26278270417E-01  0.59445815384E-01  0.73413303158E-01  0.51100000000E-03 0.  1.
         11    1    4    4    0    0 -0.29970213029E-01  0.17269649545E-03  0.47858777446E-01  0.56470941136E-01  0.51100000000E-03 0. -1.
</event>
<event>
 8    1  0.1091347E+005  0.1043930E+01  0.7957747E-01            NaN
         13   -1    0    0    0    0  0.00000000000E+00  0.00000000000E+00  0.74505805969E-08  0.10566000000E+00  0.10566000000E+00 0. -1.
     999900   -1    0    0    0    0 -0.00000000000E+00 -0.00000000000E+00 -0.74505805969E-08  0.93827000000E+00  0.93827000000E+00 0. -1.
     999902    2    1    2    0    0  0.15718358814E-01  0.11047119803E-02  0.17564595101E-01  0.10203333436E+01  0.10200604540E+01 0.  0.
     999903    2    3    3    0    0 -0.87029618329E-01  0.93664758190E-01  0.22833270099E-02  0.12940235518E+00  0.19811979991E-01 0.  0.
         14    1    1    2    0    0 -0.15718358814E-01 -0.11047119803E-02 -0.17564595101E-01  0.23596656403E-01  0.00000000000E+00 0.  1.
     999901    1    3    3    0    0  0.10274797714E+00 -0.92560046210E-01  0.15281268091E-01  0.89093098841E+00  0.88000000000E+00 0.  1.
        -11    1    4    4    0    0 -0.36065546581E-01  0.25629593139E-01 -0.19309336615E-02  0.44289833150E-01  0.51100000000E-03 0.  1.
         11    1    4    4    0    0 -0.50964071748E-01  0.68035165052E-01  0.42142606714E-02  0.85112522033E-01  0.51100000000E-03 0. -1.
</event>
<event>
 8    1  0.1091347E+005  0.1043930E+01  0.7957747E-01            NaN
         13   -1    0    0    0    0  0.00000000000E+00  0.00000000000E+00  0.74505805969E-08  0.10566000000E+00  0.10566000000E+00 0.  1.
     999900   -1    0    0    0    0 -0.00000000000E+00 -0.00000000000E+00 -0.74505805969E-08  0.93827000000E+00  0.93827000000E+00 0. -1.
     999902    2    1    2    0    0 -0.60989862978E-02  0.61540830709E-02  0.18194391010E-01  0.10237779223E+01  0.10235795660E+01 0.  0.
     999903    2    3    3    0    0 -0.29562191321E-01 -0.87939645892E-01 -0.91410474509E-01  0.13169195200E+00  0.19483092583E-01 0.  0.
         14    1    1    2    0    0  0.60989862978E-02 -0.61540830709E-02 -0.18194391010E-01  0.20152077722E-01  0.00000000000E+00 0. -1.
     999901    1    3    3    0    0  0.23463205023E-01  0.94093728962E-01  0.10960486552E+00  0.89208597028E+00  0.88000000000E+00 0.  1.
        -11    1    4    4    0    0 -0.55221921374E-02 -0.33864021658E-01 -0.44382105699E-01  0.56100793186E-01  0.51100000000E-03 0. -1.
         11    1    4    4    0    0 -0.24039999183E-01 -0.54075624233E-01 -0.47028368810E-01  0.75591158814E-01  0.51100000000E-03 0.  1.
</event>
<event>
 8    1  0.1091347E+005  0.1043930E+01  0.7957747E-01            NaN
         13   -1    0    0    0    0  0.00000000000E+00  0.00000000000E+00  0.74505805969E-08  0.10566000000E+00  0.10566000000E+00 0.  1.
     999900   -1    0    0    0    0 -0.00000000000E+00 -0.00000000000E+00 -0.74505805969E-08  0.93827000000E+00  0.93827000000E+00 0.  1.
     999902    2    1    2    0    0  0.20013984306E-01 -0.87642934547E-02  0.37408566890E-03  0.10220779441E+01  0.10218443186E+01 0.  0.
     999903    2    3    3    0    0  0.42481997206E-01 -0.48319843375E-01 -0.11501518051E+00  0.13337994371E+00  0.20547269542E-01 0.  0.
         14    1    1    2    0    0 -0.20013984306E-01  0.87642934547E-02 -0.37408566890E-03  0.21852055914E-01  0.00000000000E+00 0. -1.
     999901    1    3    3    0    0 -0.22468012900E-01  0.39555549920E-01  0.11538926617E+00  0.88869800038E+00  0.88000000000E+00 0. -1.
        -11    1    4    4    0    0  0.25602529388E-01 -0.22546277480E-01 -0.41880062620E-01  0.54018745870E-01  0.51100000000E-03 0. -1.
         11    1    4    4    0    0  0.16879467819E-01 -0.25773565895E-01 -0.73135117885E-01  0.79361197835E-01  0.51100000000E-03 0.  1.
</event>
<event>
 8    1  0.1091347E+005  0.1043930E+01  0.7957747E-01            NaN
         13   -1    0    0    0    0  0.00000000000E+00  0.00000000000E+00  0.74505805969E-08  0.10566000000E+00  0.10566000000E+00 0. -1.
     999900   -1    0    0    0    0 -0.00000000000E+00 -0.00000000000E+00 -0.74505805969E-08  0.93827000000E+00  0.93827000000E+00 0. -1.
     999902    2    1    2    0    0 -0.38145114385E-02  0.34478680887E-02 -0.23025451311E-01  0.10203374228E+01  0.10200646286E+01 0.  0.
     999903    2    3    3    0    0 -0.64428440294E-01 -0.33345053995E-01  0.10425287089E+00  0.12835786091E+00  0.18551625913E-01 0.  0.
         14    1    1    2    0    0  0.38145114385E-02 -0.34478680887E-02  0.23025451311E-01  0.23592577221E-01  0.00000000000E+00 0. -1.
     999901    1    3    3    0    0  0.60613928856E-01  0.36792922084E-01 -0.12727832220E+00  0.89197956187E+00  0.88000000000E+00 0. -1.
        -11    1    4    4    0    0 -0.33279722660E-01 -0.15485954742E-01  0.68320388298E-01  0.77558309115E-01  0.51100000000E-03 0. -1.
         11    1    4    4    0    0 -0.31148717634E-01 -0.17859099254E-01  0.35932482593E-01  0.50799551796E-01  0.51100000000E-03 0.  1.
</event>
<event>
 8    1  0.1091347E+005  0.1043930E+01  0.7957747E-01            NaN
         13   -1    0    0    0    0  0.00000000000E+00  0.00000000000E+00  0.74505805969E-08  0.10566000000E+00  0.10566000000E+00 0.  1.
     999900   -1    0    0    0    0 -0.00000000000E+00 -0.00000000000E+00 -0.74505805969E-08  0.93827000000E+00  0.93827000000E+00 0. -1.
     999902    2    1    2    0    0  0.50879620063E-02  0.65066022383E-03  0.22417829905E-01  0.10209328303E+01  0.10206737844E+01 0.  0.
     999903    2    3    3    0    0 -0.93029676316E-01 -0.89103970613E-01  0.56969083612E-02  0.13078534033E+00  0.21870350369E-01 0.  0.
         14    1    1    2    0    0 -0.50879620063E-02 -0.65066022383E-03 -0.22417829905E-01  0.22997169690E-01  0.00000000000E+00 0. -1.
     999901    1    3    3    0    0  0.98117638322E-01  0.89754630836E-01  0.16720921543E-01  0.89014748998E+00  0.88000000000E+00 0.  1.
        -11    1    4    4    0    0 -0.47500489023E-01 -0.52803038576E-01 -0.63881259353E-02  0.71312878319E-01  0.51100000000E-03 0. -1.
         11    1    4    4    0    0 -0.45529187293E-01 -0.36300932037E-01  0.12085034297E-01  0.59472462007E-01  0.51100000000E-03 0.  1.
</event>
<event>
 8    1  0.1091347E+005  0.1043930E+01  0.7957747E-01            NaN
         13   -1    0    0    0    0  0.00000000000E+00  0.00000000000E+00  0.74505805969E-08  0.10566000000E+00  0.10566000000E+00 0.  1.
     999900   -1    0    0    0    0 -0.00000000000E+00 -0.00000000000E+00 -0.74505805969E-08  0.93827000000E+00  0.93827000000E+00 0. -1.
     999902    2    1    2    0    0 -0.19058929213E-01  0.77310370167E-02  0.10227611218E-01  0.10209601122E+01  0.10207016875E+01 0.  0.
     999903    2    3    3    0    0  0.61204205846E-02  0.12706030999E+00 -0.27513505995E-01  0.13174817625E+00  0.20464774830E-01 0.  0.
         14    1    1    2    0    0  0.19058929213E-01 -0.77310370167E-02 -0.10227611218E-01  0.22969887838E-01  0.00000000000E+00 0. -1.
     999901    1    3    3    0    0 -0.25179349797E-01 -0.11932927298E+00  0.37741117212E-01  0.88921193591E+00  0.88000000000E+00 0.  1.
        -11    1    4    4    0    0 -0.32718851444E-02  0.89483395150E-01 -0.13508382564E-01  0.90557831027E-01  0.51100000000E-03 0.  1.
         11    1    4    4    0    0  0.93923057289E-02  0.37576914842E-01 -0.14005123431E-01  0.41190345219E-01  0.51100000000E-03 0. -1.
</event>
<event>
 8    1  0.1091347E+005  0.1043930E+01  0.7957747E-01            NaN
         13   -1    0    0    0    0  0.00000000000E+00  0.00000000000E+00  0.74505805969E-08  0.10566000000E+00  0.10566000000E+00 0. -1.
     999900   -1    0    0    0    0 -0.00000000000E+00 -0.00000000000E+00 -0.74505805969E-08  0.93827000000E+00  0.93827000000E+00 0. -1.
     999902    2    1    2    0    0 -0.22811508443E-01 -0.33111951717E-02 -0.57380212277E-02  0.10201759726E+01  0.10198993878E+01 0.  0.
     999903    2    3    3    0    0  0.38252987466E-01 -0.12049317415E+00  0.22170937566E-01  0.12987299110E+00  0.19838026038E-01 0.  0.
         14    1    1    2    0    0  0.22811508443E-01  0.33111951717E-02  0.57380212277E-02  0.23754027417E-01  0.00000000000E+00 0. -1.
     999901    1    3    3    0    0 -0.61064495909E-01  0.11718197898E+00 -0.27908958794E-01  0.89030298148E+00  0.88000000000E+00 0.  1.
        -11    1    4    4    0    0  0.26914964006E-01 -0.53141349790E-01  0.78419160839E-02  0.60084732784E-01  0.51100000000E-03 0.  1.
         11    1    4    4    0    0  0.11338023460E-01 -0.67351824363E-01  0.14329021482E-01  0.69788258315E-01  0.51100000000E-03 0. -1.
</event>
<event>
 8    1  0.1091347E+005  0.1043930E+01  0.7957747E-01            NaN
         13   -1    0    0    0    0  0.00000000000E+00  0.00000000000E+00  0.74505805969E-08  0.10566000000E+00  0.10566000000E+00 0. -1.
     999900   -1    0    0    0    0 -0.00000000000E+00 -0.00000000000E+00 -0.74505805969E-08  0.93827000000E+00  0.93827000000E+00 0. -1.
     999902    2    1    2    0    0  0.48567590285E-02  0.53300753793E-02 -0.22536263792E-01  0.10202681954E+01  0.10199937792E+01 0.  0.
     999903    2    3    3    0    0 -0.87144014737E-02  0.12199455668E+00 -0.45560351275E-01  0.13216635089E+00  0.20822729091E-01 0.  0.
         14    1    1    2    0    0 -0.48567590285E-02 -0.53300753793E-02  0.22536263792E-01  0.23661804612E-01  0.00000000000E+00 0. -1.
     999901    1    3    3    0    0  0.13571160502E-01 -0.11666448130E+00  0.23024087483E-01  0.88810184450E+00  0.88000000000E+00 0.  1.
        -11    1    4    4    0    0 -0.65989892472E-02  0.25237292529E-01 -0.24127113064E-02  0.26202097056E-01  0.51100000000E-03 0. -1.
         11    1    4    4    0    0 -0.21154122266E-02  0.96757264152E-01 -0.43147639968E-01  0.10596425384E+00  0.51100000000E-03 0.  1.
</event>
<event>
 8    1  0.1091347E+005  0.1043930E+01  0.7957747E-01            NaN
         13   -1    0    0    0    0  0.00000000000E+00  0.00000000000E+00  0.74505805969E-08  0.10566000000E+00  0.10566000000E+00 0.  1.
     999900   -1    0    0    0    0 -0.00000000000E+00 -0.00000000000E+00 -0.74505805969E-08  0.93827000000E+00  0.93827000000E+00 0.  1.
     999902    2    1    2    0    0  0.20791073106E-01  0.11234901510E-01 -0.49389883502E-02  0.10197869816E+01  0.10195011537E+01 0.  0.
     999903    2    3    3    0    0  0.69952258602E-01  0.68942267963E-01 -0.86812956566E-01  0.13274114906E+00  0.20913355336E-01 0.  0.
         14    1    1    2    0    0 -0.20791073106E-01 -0.11234901510E-01  0.49389883502E-02  0.24143018427E-01  0.00000000000E+00 0. -1.
     999901    1    3    3    0    0 -0.49161185496E-01 -0.57707366453E-01  0.81873968216E-01  0.88704583251E+00  0.88000000000E+00 0. -1.
        -11    1    4    4    0    0  0.37624411995E-01  0.49430798016E-01 -0.47263099983E-01  0.78058067562E-01  0.51100000000E-03 0.  1.
         11    1    4    4    0    0  0.32327846606E-01  0.19511469947E-01 -0.39549856583E-01  0.54683081501E-01  0.51100000000E-03 0. -1.
</event>
<event>
 8    1  0.1091347E+005  0.1043930E+01  0.7957747E-01            NaN
         13   -1    0    0    0    0  0.00000000000E+00  0.00000000000E+00  0.74505805969E-08  0.10566000000E+00  0.10566000000E+00 0.  1.
     999900   -1    0    0    0    0 -0.00000000000E+00 -0.00000000000E+00 -0.74505805969E-08  0.93827000000E+00  0.93827000000E+00 0. -1.
     999902    2    1    2    0    0 -0.15901238227E-01  0.97139249838E-03  0.17185913580E-01  0.10204960800E+01  0.10202269849E+01 0.  0.
     999903    2    3    3    0    0  0.11924987274E+00  0.41714281366E-01 -0.15951352266E-01  0.12863068424E+00  0.18187739559E-01 0.  0.
         14    1    1    2    0    0  0.15901238227E-01 -0.97139249838E-03 -0.17185913580E-01  0.23433919990E-01  0.00000000000E+00 0. -1.
     999901    1    3    3    0    0 -0.13515111097E+00 -0.40742888868E-01  0.33137265845E-01  0.89186539577E+00  0.88000000000E+00 0.  1.
        -11    1    4    4    0    0  0.23375514699E-01  0.10783511977E-01 -0.10296716771E-01  0.27730530382E-01  0.51100000000E-03 0.  1.
         11    1    4    4    0    0  0.95874358040E-01  0.30930769390E-01 -0.56546354945E-02  0.10090015386E+00  0.51100000000E-03 0. -1.
</event>
<event>
 8    1  0.1091347E+005  0.1043930E+01  0.7957747E-01            NaN
         13   -1    0    0    0    0  0.00000000000E+00  0.00000000000E+00  0.74505805969E-08  0.10566000000E+00  0.10566000000E+00 0. -1.
     999900   -1    0    0    0    0 -0.00000000000E+00 -0.00000000000E+00 -0.74505805969E-08  0.93827000000E+00  0.93827000000E+00 0. -1.
     999902    2    1    2    0    0 -0.22112884767E-02  0.16391123017E-01 -0.18013690444E-01  0.10194749033E+01  0.10191815475E+01 0.  0.
     999903    2    3    3    0    0  0.44063672289E-01 -0.85716273742E-02 -0.12109663375E+00  0.13189921409E+00  0.26794177734E-01 0.  0.
         14    1    1    2    0    0  0.22112884767E-02 -0.16391123017E-01  0.18013690444E-01  0.24455096685E-01  0.00000000000E+00 0. -1.
     999901    1    3    3    0    0 -0.46274960766E-01  0.24962750392E-01  0.10308294331E+00  0.88757568922E+00  0.88000000000E+00 0.  1.
        -11    1    4    4    0    0  0.18799787104E-02 -0.11158567657E-02 -0.41033928343E-01  0.41095302074E-01  0.51100000000E-03 0.  1.
         11    1    4    4    0    0  0.42183693579E-01 -0.74557706085E-02 -0.80062705408E-01  0.90803912017E-01  0.51100000000E-03 0. -1.
</event>
<event>
 8    1  0.1091347E+005  0.1043930E+01  0.7957747E-01            NaN
         13   -1    0    0    0    0  0.00000000000E+00  0.00000000000E+00  0.74505805969E-08  0.10566000000E+00  0.10566000000E+00 0. -1.
     999900   -1    0    0    0    0 -0.00000000000E+00 -0.00000000000E+00 -0.74505805969E-08  0.93827000000E+00  0.93827000000E+00 0.  1.
     999902    2    1    2    0    0 -0.20792176401E-01  0.10962462970E-01 -0.19060381249E-02  0.10203477360E+01  0.10200751831E+01 0.  0.
     999903    2    3    3    0    0 -0.63196742848E-01  0.10954226727E+00  0.36545509258E-01  0.13299513046E+00  0.18941854510E-01 0.  0.
         14    1    1    2    0    0  0.20792176401E-01 -0.10962462970E-01  0.19060381249E-02  0.23582263997E-01  0.00000000000E+00 0. -1.
     999901    1    3    3    0    0  0.42404566447E-01 -0.98579804304E-01 -0.38451547383E-01  0.88735260555E+00  0.88000000000E+00 0.  1.
        -11    1    4    4    0    0 -0.26841095736E-01  0.44543510993E-01  0.54696403264E-02  0.52294807373E-01  0.51100000000E-03 0.  1.
         11    1    4    4    0    0 -0.36355647112E-01  0.64998756281E-01  0.31075868932E-01  0.80700323085E-01  0.51100000000E-03 0. -1.
</event>
<event>
 8    1  0.1091347E+005  0.1043930E+01  0.7957747E-01            NaN
         13   -1    0    0    0    0  0.00000000000E+00  0.00000000000E+00  0.74505805969E-08  0.10566000000E+00  0.10566000000E+00 0.  1.
     999900   -1    0    0    0    0 -0.00000000000E+00 -0.00000000000E+00 -0.74505805969E-08  0.93827000000E+00  0.93827000000E+00 0. -1.
     999902    2    1    2    0    0 -0.18438282921E-01  0.12045203534E-01  0.94742767559E-02  0.10199546142E+01  0.10196727886E+01 0.  0.
     999903    2    3    3    0    0 -0.12057208051E+00  0.40081897855E-01  0.35851891776E-01  0.13321161454E+00  0.17770508399E-01 0.  0.
         14    1    1    2    0    0  0.18438282921E-01 -0.12045203534E-01 -0.94742767559E-02  0.23975385822E-01  0.00000000000E+00 0. -1.
     999901    1    3    3    0    0  0.10213379759E+00 -0.28036694321E-01 -0.26377615020E-01  0.88674299964E+00  0.88000000000E+00 0. -1.
        -11    1    4    4    0    0 -0.40708586058E-01  0.48334705188E-02  0.11703639409E-01  0.42635521722E-01  0.51100000000E-03 0.  1.
         11    1    4    4    0    0 -0.79863494455E-01  0.35248427336E-01  0.24148252367E-01  0.90576092815E-01  0.51100000000E-03 0. -1.
</event>
<event>
 8    1  0.1091347E+005  0.1043930E+01  0.7957747E-01            NaN
         13   -1    0    0    0    0  0.00000000000E+00  0.00000000000E+00  0.74505805969E-08  0.10566000000E+00  0.10566000000E+00 0. -1.
     999900   -1    0    0    0    0 -0.00000000000E+00 -0.00000000000E+00 -0.74505805969E-08  0.93827000000E+00  0.93827000000E+00 0. -1.
     999902    2    1    2    0    0  0.22631182657E-01 -0.78099841991E-02  0.13754550474E-01  0.10163192423E+01  0.10159441167E+01 0.  0.
     999903    2    3    3    0    0 -0.31172588175E-01  0.44312247262E-01 -0.11012570734E+00  0.12449084455E+00  0.20856496552E-01 0.  0.
         14    1    1    2    0    0 -0.22631182657E-01  0.78099841991E-02 -0.13754550474E-01  0.27610757694E-01  0.00000000000E+00 0.  1.
     999901    1    3    3    0    0  0.53803770832E-01 -0.52122231461E-01  0.12388025782E+00  0.89182839776E+00  0.88000000000E+00 0.  1.
        -11    1    4    4    0    0 -0.12828326967E-01  0.23707956248E-01 -0.33211609891E-01  0.42777392567E-01  0.51100000000E-03 0. -1.
         11    1    4    4    0    0 -0.18344261207E-01  0.20604291013E-01 -0.76914097450E-01  0.81713451983E-01  0.51100000000E-03 0.  1.
</event>
<event>
 8    1  0.1091347E+005  0.1043930E+01  0.7957747E-01            NaN
         13   -1    0    0    0    0  0.00000000000E+00  0.00000000000E+00  0.74505805969E-08  0.10566000000E+00  0.10566000000E+00 0. -1.
     999900   -1    0    0    0    0 -0.00000000000E+00 -0.00000000000E+00 -0.74505805969E-08  0.93827000000E+00  0.93827000000E+00 0. -1.
     999902    2    1    2    0    0 -0.13309278403E-01  0.12296633716E-01 -0.15554755309E-01  0.10200491603E+01  0.10197695793E+01 0.  0.
     999903    2    3    3    0    0 -0.10538247030E+00  0.35088150684E-01 -0.70702451543E-01  0.13323565436E+00  0.20402440359E-01 0.  0.
         14    1    1    2    0    0  0.13309278403E-01 -0.12296633716E-01  0.15554755309E-01  0.23880839706E-01  0.00000000000E+00 0. -1.
     999901    1    3    3    0    0  0.92073191898E-01 -0.22791516968E-01  0.55147696234E-01  0.88681350594E+00  0.88000000000E+00 0. -1.
        -11    1    4    4    0    0 -0.65988007961E-01  0.32141855846E-01 -0.44779138913E-01  0.85982256860E-01  0.51100000000E-03 0.  1.
         11    1    4    4    0    0 -0.39394462340E-01  0.29462948374E-02 -0.25923312630E-01  0.47253397497E-01  0.51100000000E-03 0. -1.
</event>
<event>
 8    1  0.1091347E+005  0.1043930E+01  0.7957747E-01            NaN
         13   -1    0    0    0    0  0.00000000000E+00  0.00000000000E+00  0.74505805969E-08  0.10566000000E+00  0.10566000000E+00 0.  1.
     999900   -1    0    0    0    0 -0.00000000000E+00 -0.00000000000E+00 -0.74505805969E-08  0.93827000000E+00  0.93827000000E+00 0.  1.
     999902    2    1    2    0    0 -0.11962330797E-01  0.13220499541E-01 -0.15057411124E-01  0.10205932351E+01  0.10203263924E+01 0.  0.
     999903    2    3    3    0    0  0.54318530761E-01 -0.37601458688E-01  0.10800423332E+00  0.12811343568E+00  0.19589933778E-01 0.  0.
         14    1    1    2    0    0  0.11962330797E-01 -0.13220499541E-01  0.15057411124E-01  0.23336764900E-01  0.00000000000E+00 0.  1.
     999901    1    3    3    0    0 -0.66280861558E-01  0.50821958229E-01 -0.12306164445E+00  0.89247979942E+00  0.88000000000E+00 0.  1.
        -11    1    4    4    0    0  0.14977332299E-01 -0.21435610053E-01  0.36282742875E-01  0.44726998700E-01  0.51100000000E-03 0. -1.
         11    1    4    4    0    0  0.39341198461E-01 -0.16165848635E-01  0.71721490448E-01  0.83386436976E-01  0.51100000000E-03 0.  1.
</event>
<event>
 8    1  0.1091347E+005  0.1043930E+01  0.7957747E-01            NaN
         13   -1    0    0    0    0  0.00000000000E+00  0.00000000000E+00  0.74505805969E-08  0.10566000000E+00  0.10566000000E+00 0. -1.
     999900   -1    0    0    0    0 -0.00000000000E+00 -0.00000000000E+00 -0.74505805969E-08  0.93827000000E+00  0.93827000000E+00 0.  1.
     999902    2    1    2    0    0 -0.20593834122E-01  0.96281813467E-02  0.75255180544E-02  0.10199833655E+01  0.10197022235E+01 0.  0.
     999903    2    3    3    0    0  0.50889064955E-01  0.11838787072E+00  0.48502650693E-02  0.13040726881E+00  0.19420242612E-01 0.  0.
         14    1    1    2    0    0  0.20593834122E-01 -0.96281813467E-02 -0.75255180544E-02  0.23946634459E-01  0.00000000000E+00 0.  1.
     999901    1    3    3    0    0 -0.71482899077E-01 -0.10875968937E+00  0.26752529851E-02  0.88957609673E+00  0.88000000000E+00 0.  1.
        -11    1    4    4    0    0  0.40946683717E-01  0.71739865019E-01  0.39968219940E-02  0.82701117571E-01  0.51100000000E-03 0.  1.
         11    1    4    4    0    0  0.99423812379E-02  0.46648005698E-01  0.85344307534E-03  0.47706151242E-01  0.51100000000E-03 0. -1.
</event>
<event>
 8    1  0.1091347E+005  0.1043930E+01  0.7957747E-01            NaN
         13   -1    0    0    0    0  0.00000000000E+00  0.00000000000E+00  0.74505805969E-08  0.10566000000E+00  0.10566000000E+00 0.  1.
     999900   -1    0    0    0    0 -0.00000000000E+00 -0.00000000000E+00 -0.74505805969E-08  0.93827000000E+00  0.93827000000E+00 0.  1.
     999902    2    1    2    0    0  0.82085320456E-02 -0.20492505998E-01  0.41677432151E-02  0.10214646292E+01  0.10212175556E+01 0.  0.
     999903    2    3    3    0    0 -0.76545975036E-01 -0.66748257810E-01 -0.82014243794E-01  0.13199835335E+00  0.19560492988E-01 0.  0.
         14    1    1    2    0    0 -0.82085320456E-02  0.20492505998E-01 -0.41677432151E-02  0.22465370772E-01  0.00000000000E+00 0. -1.
     999901    1    3    3    0    0  0.84754507082E-01  0.46255751812E-01  0.86181987009E-01  0.88946627588E+00  0.88000000000E+00 0. -1.
        -11    1    4    4    0    0 -0.35516190844E-01 -0.41744065921E-01 -0.36795635364E-01  0.66016261288E-01  0.51100000000E-03 0.  1.
         11    1    4    4    0    0 -0.41029784193E-01 -0.25004191889E-01 -0.45218608430E-01  0.65982092058E-01  0.51100000000E-03 0. -1.
</event>
<event>
 8    1  0.1091347E+005  0.1043930E+01  0.7957747E-01            NaN
         13   -1    0    0    0    0  0.00000000000E+00  0.00000000000E+00  0.74505805969E-08  0.10566000000E+00  0.10566000000E+00 0. -1.
     999900   -1    0    0    0    0 -0.00000000000E+00 -0.00000000000E+00 -0.74505805969E-08  0.93827000000E+00  0.93827000000E+00 0.  1.
     999902    2    1    2    0    0  0.74655579006E-02  0.21997401082E-01 -0.49666773886E-02  0.10201752511E+01  0.10198986493E+01 0.  0.
     999903    2    3    3    0    0  0.32058993213E-01  0.22111686771E-01 -0.12401542882E+00  0.13181864744E+00  0.21900308010E-01 0.  0.
         14    1    1    2    0    0 -0.74655579006E-02 -0.21997401082E-01  0.49666773886E-02  0.23754748860E-01  0.00000000000E+00 0. -1.
     999901    1    3    3    0    0 -0.24593435313E-01 -0.11428568919E-03  0.11904875143E+00  0.88835660370E+00  0.88000000000E+00 0. -1.
        -11    1    4    4    0    0  0.23833612103E-01  0.32289409647E-02 -0.64798354214E-01  0.69119859342E-01  0.51100000000E-03 0. -1.
         11    1    4    4    0    0  0.82253811106E-02  0.18882745806E-01 -0.59217074601E-01  0.62698788098E-01  0.51100000000E-03 0.  1.
</event>
<event>
 8    1  0.1091347E+005  0.1043930E+01  0.7957747E-01            NaN
         13   -1    0    0    0    0  0.00000000000E+00  0.00000000000E+00  0.74505805969E-08  0.10566000000E+00  0.10566000000E+00 0.  1.
     999900   -1    0    0    0    0 -0.00000000000E+00 -0.00000000000E+00 -0.74505805969E-08  0.93827000000E+00  0.93827000000E+00 0.  1.
     999902    2    1    2    0    0 -0.12900436473E-01  0.33344460761E-02 -0.18490508383E-01  0.10211388023E+01  0.10208844278E+01 0.  0.
     999903    2    3    3    0    0  0.41391336162E-01 -0.94870228026E-01 -0.79305283865E-01  0.13193118229E+00  0.20072516928E-01 0.  0.
         14    1    1    2    0    0  0.12900436473E-01 -0.33344460761E-02  0.18490508383E-01  0.22791197689E-01  0.00000000000E+00 0.  1.
     999901    1    3    3    0    0 -0.54291772635E-01  0.98204674102E-01  0.60814775482E-01  0.88920762002E+00  0.88000000000E+00 0. -1.
        -11    1    4    4    0    0  0.26989279061E-01 -0.68871573564E-01 -0.66841435291E-01  0.99698312033E-01  0.51100000000E-03 0.  1.
         11    1    4    4    0    0  0.14402057101E-01 -0.25998654462E-01 -0.12463848574E-01  0.32232870255E-01  0.51100000000E-03 0. -1.
</event>
<event>
 8    1  0.1091347E+005  0.1043930E+01  0.7957747E-01            NaN
         13   -1    0    0    0    0  0.00000000000E+00  0.00000000000E+00  0.74505805969E-08  0.10566000000E+00  0.10566000000E+00 0.  1.
     999900   -1    0    0    0    0 -0.00000000000E+00 -0.00000000000E+00 -0.74505805969E-08  0.93827000000E+00  0.93827000000E+00 0.  1.
     999902    2    1    2    0    0 -0.20995070076E-01  0.81301669242E-02 -0.78593271634E-02  0.10200833733E+01  0.10198046023E+01 0.  0.
     999903    2    3    3    0    0  0.12510917830E+00  0.20539392572E-02  0.17004957375E-01  0.12767001359E+00  0.18813256867E-01 0.  0.
         14    1    1    2    0    0  0.20995070076E-01 -0.81301669242E-02  0.78593271634E-02  0.23846626704E-01  0.00000000000E+00 0.  1.
     999901    1    3    3    0    0 -0.14610424837E+00  0.60762276671E-02 -0.24864284539E-01  0.89241335971E+00  0.88000000000E+00 0.  1.
        -11    1    4    4    0    0  0.78943170059E-01 -0.73181960445E-02  0.13551590556E-01  0.80433120168E-01  0.51100000000E-03 0.  1.
         11    1    4    4    0    0  0.46166008239E-01  0.93721353016E-02  0.34533668189E-02  0.47236893422E-01  0.51100000000E-03 0. -1.
</event>
<event>
 8    1  0.1091347E+005  0.1043930E+01  0.7957747E-01            NaN
         13   -1    0    0    0    0  0.00000000000E+00  0.00000000000E+00  0.74505805969E-08  0.10566000000E+00  0.10566000000E+00 0.  1.
     999900   -1    0    0    0    0 -0.00000000000E+00 -0.00000000000E+00 -0.74505805969E-08  0.93827000000E+00  0.93827000000E+00 0.  1.
     999902    2    1    2    0    0  0.30887632628E-02 -0.23234686044E-01  0.63369013620E-02  0.10196494025E+01  0.10193602683E+01 0.  0.
     999903    2    3    3    0    0  0.26248971624E-01  0.48311535739E-01 -0.11411928370E+00  0.12826567506E+00  0.20145954656E-01 0.  0.
         14    1    1    2    0    0 -0.30887632628E-02  0.23234686044E-01 -0.63369013620E-02  0.24280597459E-01  0.00000000000E+00 0. -1.
     999901    1    3    3    0    0 -0.23160208361E-01 -0.71546221783E-01  0.12045618506E+00  0.89138372748E+00  0.88000000000E+00 0. -1.
        -11    1    4    4    0    0  0.28728711077E-01  0.41502801899E-01 -0.91393888785E-01  0.10440749702E+00  0.51100000000E-03 0. -1.
         11    1    4    4    0    0 -0.24797394530E-02  0.68087338397E-02 -0.22725394915E-01  0.23858178038E-01  0.51100000000E-03 0.  1.
</event>
<event>
 8    1  0.1091347E+005  0.1043930E+01  0.7957747E-01            NaN
         13   -1    0    0    0    0  0.00000000000E+00  0.00000000000E+00  0.74505805969E-08  0.10566000000E+00  0.10566000000E+00 0. -1.
     999900   -1    0    0    0    0 -0.00000000000E+00 -0.00000000000E+00 -0.74505805969E-08  0.93827000000E+00  0.93827000000E+00 0.  1.
     999902    2    1    2    0    0  0.10557237542E-01 -0.97977932075E-02  0.19773576632E-01  0.10194668369E+01  0.10191732852E+01 0.  0.
     999903    2    3    3    0    0  0.12166986225E-02  0.52229512598E-01  0.11915515347E+00  0.13165417076E+00  0.20136229504E-01 0.  0.
         14    1    1    2    0    0 -0.10557237542E-01  0.97977932075E-02 -0.19773576632E-01  0.24463163104E-01  0.00000000000E+00 0.  1.
     999901    1    3    3    0    0  0.93405389194E-02 -0.62027305806E-01 -0.99381576838E-01  0.88781266613E+00  0.88000000000E+00 0.  1.
        -11    1    4    4    0    0 -0.32930959203E-02  0.74446690357E-02  0.37858372471E-01  0.38727058563E-01  0.51100000000E-03 0. -1.
         11    1    4    4    0    0  0.45097945428E-02  0.44784843563E-01  0.81296780999E-01  0.92927112199E-01  0.51100000000E-03 0.  1.
</event>
<event>
 7    1  0.1091347E+005  0.1043930E+01  0.7957747E-01            NaN
         13   -1    0    0    0    0  0.00000000000E+00  0.00000000000E+00  0.74505805969E-08  0.10566000000E+00  0.10566000000E+00 0.  1.
     999900   -1    0    0    0    0 -0.00000000000E+00 -0.00000000000E+00 -0.74505805969E-08  0.93827000000E+00  0.93827000000E+00 0.  1.
     999902    2    1    2    0    0  0.93873647146E-02  0.72965290827E-02 -0.19618941441E-01  0.10209895376E+01  0.10207317821E+01 0.  0.
         14    1    1    2    0    0 -0.93873647146E-02 -0.72965290827E-02  0.19618941441E-01  0.22940462424E-01  0.00000000000E+00 0.  1.
     999901    1    3    3    0    0  0.65964563252E-01  0.92071325369E-01  0.50137914182E-01  0.88867444151E+00  0.88000000000E+00 0. -1.
        -11    1    3    3    0    0 -0.30843551777E-01 -0.21184455008E-01 -0.46019328833E-02  0.37703378197E-01  0.51100000000E-03 0. -1.
         11    1    3    3    0    0 -0.25733646760E-01 -0.63590341278E-01 -0.65154922739E-01  0.94611717866E-01  0.51100000000E-03 0.  1.
</event>
<event>
 8    1  0.1091347E+005  0.1043930E+01  0.7957747E-01            NaN
         13   -1    0    0    0    0  0.00000000000E+00  0.00000000000E+00  0.74505805969E-08  0.10566000000E+00  0.10566000000E+00 0.  1.
     999900   -1    0    0    0    0 -0.00000000000E+00 -0.00000000000E+00 -0.74505805969E-08  0.93827000000E+00  0.93827000000E+00 0.  1.
     999902    2    1    2    0    0  0.17830847715E-01 -0.56538032355E-02  0.14237133581E-01  0.10204225417E+01  0.10201517353E+01 0.  0.
     999903    2    3    3    0    0 -0.79279316600E-01 -0.94958192486E-01  0.35957980987E-01  0.13032285453E+00  0.19718054064E-01 0.  0.
         14    1    1    2    0    0 -0.17830847715E-01  0.56538032355E-02 -0.14237133581E-01  0.23507458261E-01  0.00000000000E+00 0.  1.
     999901    1    3    3    0    0  0.97110164315E-01  0.89304389251E-01 -0.21720847406E-01  0.89009968721E+00  0.88000000000E+00 0. -1.
        -11    1    4    4    0    0 -0.48085566412E-01 -0.42665615957E-01  0.16067588747E-01  0.66264658841E-01  0.51100000000E-03 0.  1.
         11    1    4    4    0    0 -0.31193750189E-01 -0.52292576529E-01  0.19890392240E-01  0.64058195692E-01  0.51100000000E-03 0. -1.
</event>
<event>
 7    1  0.1091347E+005  0.1043930E+01  0.7957747E-01            NaN
         13   -1    0    0    0    0  0.00000000000E+00  0.00000000000E+00  0.74505805969E-08  0.10566000000E+00  0.10566000000E+00 0.  1.
     999900   -1    0    0    0    0 -0.00000000000E+00 -0.00000000000E+00 -0.74505805969E-08  0.93827000000E+00  0.93827000000E+00 0. -1.
     999903    2    1    2    0    0  0.16628604203E-01  0.91491687757E-01 -0.53719404332E-01  0.10900146544E+00  0.18662948831E-01 0.  0.
         14    1    1    2    0    0  0.26535179767E-01  0.34178116607E-01 -0.89761444237E-03  0.43278922488E-01  0.00000000000E+00 0.  1.
     999901    1    1    2    0    0 -0.43163783970E-01 -0.12566980436E+00  0.54617018774E-01  0.89164961208E+00  0.88000000000E+00 0.  1.
        -11    1    3    3    0    0  0.11605598321E-01  0.20195860876E-01 -0.15054358999E-01  0.27739097944E-01  0.51100000000E-03 0. -1.
         11    1    3    3    0    0  0.50230058826E-02  0.71295826881E-01 -0.38665045333E-01  0.81262367492E-01  0.51100000000E-03 0.  1.
</event>
<event>
 8    1  0.1091347E+005  0.1043930E+01  0.7957747E-01            NaN
         13   -1    0    0    0    0  0.00000000000E+00  0.00000000000E+00  0.74505805969E-08  0.10566000000E+00  0.10566000000E+00 0.  1.
     999900   -1    0    0    0    0 -0.00000000000E+00 -0.00000000000E+00 -0.74505805969E-08  0.93827000000E+00  0.93827000000E+00 0. -1.
     999902    2    1    2    0    0  0.14253300113E-01 -0.18880043298E-01  0.31197402400E-02  0.10200690407E+01  0.10197899305E+01 0.  0.
     999903    2    3    3    0    0  0.72673621452E-01  0.12425768978E-01 -0.10626458678E+00  0.13082333854E+00  0.19665414170E-01 0.  0.
         14    1    1    2    0    0 -0.14253300113E-01  0.18880043298E-01 -0.31197402400E-02  0.23860959289E-01  0.00000000000E+00 0. -1.
     999901    1    3    3    0    0 -0.58420321339E-01 -0.31305812276E-01  0.10938432702E+00  0.88924570217E+00  0.88000000000E+00 0.  1.
        -11    1    4    4    0    0  0.19457108239E-01  0.10416064940E-01 -0.41202521389E-01  0.46743794878E-01  0.51100000000E-03 0.  1.
         11    1    4    4    0    0  0.53216513214E-01  0.20097040376E-02 -0.65062065390E-01  0.84079543664E-01  0.51100000000E-03 0. -1.
</event>
<event>
 8    1  0.1091347E+005  0.1043930E+01  0.7957747E-01            NaN
         13   -1    0    0    0    0  0.00000000000E+00  0.00000000000E+00  0.74505805969E-08  0.10566000000E+00  0.10566000000E+00 0.  1.
     999900   -1    0    0    0    0 -0.00000000000E+00 -0.00000000000E+00 -0.74505805969E-08  0.93827000000E+00  0.93827000000E+00 0. -1.
     999902    2    1    2    0    0 -0.77079724207E-02 -0.56526470989E-02  0.22341350471E-01  0.10196297696E+01  0.10193401620E+01 0.  0.
     999903    2    3    3    0    0 -0.79608571438E-01  0.10046347769E+00  0.12350812606E-01  0.13028723774E+00  0.19793603720E-01 0.  0.
         14    1    1    2    0    0  0.77079724207E-02  0.56526470989E-02 -0.22341350471E-01  0.24300230430E-01  0.00000000000E+00 0. -1.
     999901    1    3    3    0    0  0.71900599018E-01 -0.10611612479E+00  0.99905378648E-02  0.88934253183E+00  0.88000000000E+00 0. -1.
        -11    1    4    4    0    0 -0.61061763133E-01  0.63277392800E-01  0.49509168298E-02  0.88075763153E-01  0.51100000000E-03 0.  1.
         11    1    4    4    0    0 -0.18546808305E-01  0.37186084895E-01  0.73998957766E-02  0.42211474585E-01  0.51100000000E-03 0. -1.
</event>
<event>
 8    1  0.1091347E+005  0.1043930E+01  0.7957747E-01            NaN
         13   -1    0    0    0    0  0.00000000000E+00  0.00000000000E+00  0.74505805969E-08  0.10566000000E+00  0.10566000000E+00 0.  1.
     999900   -1    0    0    0    0 -0.00000000000E+00 -0.00000000000E+00 -0.74505805969E-08  0.93827000000E+00  0.93827000000E+00 0. -1.
     999902    2    1    2    0    0  0.72455206342E-03  0.51679959825E-02 -0.24334942375E-01  0.10190417984E+01  0.10187378290E+01 0.  0.
     999903    2    3    3    0    0 -0.61773928678E-01 -0.11184552731E+00 -0.98886831132E-02  0.12898173350E+00  0.14596618816E-01 0.  0.
         14    1    1    2    0    0 -0.72455206342E-03 -0.51679959825E-02  0.24334942375E-01  0.24888201593E-01  0.00000000000E+00 0.  1.
     999901    1    3    3    0    0  0.62498480742E-01  0.11701352329E+00 -0.14446259261E-01  0.89006006490E+00  0.88000000000E+00 0. -1.
        -11    1    4    4    0    0 -0.20546375109E-01 -0.50888104273E-01 -0.13762637139E-02  0.54899070205E-01  0.51100000000E-03 0. -1.
         11    1    4    4    0    0 -0.41227553570E-01 -0.60957423035E-01 -0.85124193992E-02  0.74082663299E-01  0.51100000000E-03 0.  1.
</event>
<event>
 8    1  0.1091347E+005  0.1043930E+01  0.7957747E-01            NaN
         13   -1    0    0    0    0  0.00000000000E+00  0.00000000000E+00  0.74505805969E-08  0.10566000000E+00  0.10566000000E+00 0.  1.
     999900   -1    0    0    0    0 -0.00000000000E+00 -0.00000000000E+00 -0.74505805969E-08  0.93827000000E+00  0.93827000000E+00 0.  1.
     999902    2    1    2    0    0  0.13017543694E-01  0.12205090732E-01  0.14443004241E-01  0.10209730609E+01  0.10207149308E+01 0.  0.
     999903    2    3    3    0    0  0.58556562429E-01  0.11382662010E+00 -0.30341760658E-01  0.13282531828E+00  0.18345906616E-01 0.  0.
         14    1    1    2    0    0 -0.13017543694E-01 -0.12205090732E-01 -0.14443004241E-01  0.22956939149E-01  0.00000000000E+00 0. -1.
     999901    1    3    3    0    0 -0.45539018735E-01 -0.10162152937E+00  0.44784764899E-01  0.88814774257E+00  0.88000000000E+00 0. -1.
        -11    1    4    4    0    0  0.23790938664E-01  0.52126423208E-01 -0.22537558619E-01  0.61574145780E-01  0.51100000000E-03 0.  1.
         11    1    4    4    0    0  0.34765623765E-01  0.61700196896E-01 -0.78042020390E-02  0.71251172504E-01  0.51100000000E-03 0. -1.
</event>
<event>
 8    1  0.1091347E+005  0.1043930E+01  0.7957747E-01            NaN
         13   -1    0    0    0    0  0.00000000000E+00  0.00000000000E+00  0.74505805969E-08  0.10566000000E+00  0.10566000000E+00 0.  1.
     999900   -1    0    0    0    0 -0.00000000000E+00 -0.00000000000E+00 -0.74505805969E-08  0.93827000000E+00  0.93827000000E+00 0. -1.
     999902    2    1    2    0    0  0.18028391936E-01 -0.16014040245E-01 -0.21067355007E-02  0.10197244069E+01  0.10194370777E+01 0.  0.
     999903    2    3    3    0    0 -0.72637957425E-01 -0.10125984846E+00  0.32644939636E-01  0.13028924143E+00  0.19487549335E-01 0.  0.
         14    1    1    2    0    0 -0.18028391936E-01  0.16014040245E-01  0.21067355007E-02  0.24205593057E-01  0.00000000000E+00 0. -1.
     999901    1    3    3    0    0  0.90666349361E-01  0.85245808218E-01 -0.34751675137E-01  0.88943516551E+00  0.88000000000E+00 0.  1.
        -11    1    4    4    0    0 -0.45823127869E-01 -0.63245540193E-01  0.30082687227E-01  0.83695797946E-01  0.51100000000E-03 0. -1.
         11    1    4    4    0    0 -0.26814829556E-01 -0.38014308270E-01  0.25622524099E-02  0.46593443485E-01  0.51100000000E-03 0.  1.
</event>
<event>
 8    1  0.1091347E+005  0.1043930E+01  0.7957747E-01            NaN
         13   -1    0    0    0    0  0.00000000000E+00  0.00000000000E+00  0.74505805969E-08  0.10566000000E+00  0.10566000000E+00 0. -1.
     999900   -1    0    0    0    0 -0.00000000000E+00 -0.00000000000E+00 -0.74505805969E-08  0.93827000000E+00  0.93827000000E+00 0. -1.
     999902    2    1    2    0    0  0.17130216210E-01 -0.13153920168E-01 -0.99478505006E-02  0.10201512353E+01  0.10198740673E+01 0.  0.
     999903    2    3    3    0    0  0.42596000152E-01 -0.54916661833E-01  0.10887585604E+00  0.13081906673E+00  0.20722384385E-01 0.  0.
         14    1    1    2    0    0 -0.17130216210E-01  0.13153920168E-01  0.99478505006E-02  0.23778764745E-01  0.00000000000E+00 0.  1.
     999901    1    3    3    0    0 -0.25465783942E-01  0.41762741665E-01 -0.11882370654E+00  0.88933216853E+00  0.88000000000E+00 0. -1.
        -11    1    4    4    0    0  0.22677956443E-01 -0.13133113066E-01  0.40896858870E-01  0.48575534518E-01  0.51100000000E-03 0.  1.
         11    1    4    4    0    0  0.19918043709E-01 -0.41783548767E-01  0.67978997172E-01  0.82243532209E-01  0.51100000000E-03 0. -1.
</event>
<event>
 8    1  0.1091347E+005  0.1043930E+01  0.7957747E-01            NaN
         13   -1    0    0    0    0  0.00000000000E+00  0.00000000000E+00  0.74505805969E-08  0.10566000000E+00  0.10566000000E+00 0. -1.
     999900   -1    0    0    0    0 -0.00000000000E+00 -0.00000000000E+00 -0.74505805969E-08  0.93827000000E+00  0.93827000000E+00 0.  1.
     999902    2    1    2    0    0  0.11461887358E-01 -0.21193521951E-02 -0.20718140629E-01  0.10201580025E+01  0.10198809941E+01 0.  0.
     999903    2    3    3    0    0 -0.80605765703E-01 -0.37495946781E-01 -0.94919420304E-01  0.13154459604E+00  0.19774956533E-01 0.  0.
         14    1    1    2    0    0 -0.11461887358E-01  0.21193521951E-02  0.20718140629E-01  0.23771997532E-01  0.00000000000E+00 0. -1.
     999901    1    3    3    0    0  0.92067653061E-01  0.35376594586E-01  0.74201279675E-01  0.88861340643E+00  0.88000000000E+00 0. -1.
        -11    1    4    4    0    0 -0.75279048737E-01 -0.37594235176E-01 -0.81702757273E-01  0.11728539280E+00  0.51100000000E-03 0. -1.
         11    1    4    4    0    0 -0.53267169657E-02  0.98288395843E-04 -0.13216663031E-01  0.14259203236E-01  0.51100000000E-03 0.  1.
</event>
<event>
 8    1  0.1091347E+005  0.1043930E+01  0.7957747E-01            NaN
         13   -1    0    0    0    0  0.00000000000E+00  0.00000000000E+00  0.74505805969E-08  0.10566000000E+00  0.10566000000E+00 0. -1.
     999900   -1    0    0    0    0 -0.00000000000E+00 -0.00000000000E+00 -0.74505805969E-08  0.93827000000E+00  0.93827000000E+00 0.  1.
     999902    2    1    2    0    0  0.21447609252E-01 -0.50056939696E-02  0.94384959431E-02  0.10199687371E+01  0.10196872474E+01 0.  0.
     999903    2    3    3    0    0 -0.18572811774E-01  0.85640422957E-01  0.94416704999E-01  0.13033979836E+00  0.19867497854E-01 0.  0.
         14    1    1    2    0    0 -0.21447609252E-01  0.50056939696E-02 -0.94384959431E-02  0.23961262914E-01  0.00000000000E+00 0.  1.
     999901    1    3    3    0    0  0.40020421026E-01 -0.90646116927E-01 -0.84978209056E-01  0.88962893873E+00  0.88000000000E+00 0.  1.
        -11    1    4    4    0    0  0.23633438881E-02  0.34601566710E-01  0.36722020286E-01  0.50513579442E-01  0.51100000000E-03 0. -1.
         11    1    4    4    0    0 -0.20936155662E-01  0.51038856247E-01  0.57694684713E-01  0.79826218914E-01  0.51100000000E-03 0.  1.
</event>
<event>
 8    1  0.1091347E+005  0.1043930E+01  0.7957747E-01            NaN
         13   -1    0    0    0    0  0.00000000000E+00  0.00000000000E+00  0.74505805969E-08  0.10566000000E+00  0.10566000000E+00 0. -1.
     999900   -1    0    0    0    0 -0.00000000000E+00 -0.00000000000E+00 -0.74505805969E-08  0.93827000000E+00  0.93827000000E+00 0. -1.
     999902    2    1    2    0    0  0.20428310933E-01  0.77857398356E-02  0.60465915992E-02  0.10212475199E+01  0.10209955936E+01 0.  0.
     999903    2    3    3    0    0 -0.15644578956E-01  0.10478471724E+00 -0.75208901120E-01  0.13146523751E+00  0.20053429843E-01 0.  0.
         14    1    1    2    0    0 -0.20428310933E-01 -0.77857398356E-02 -0.60465915992E-02  0.22682480074E-01  0.00000000000E+00 0. -1.
     999901    1    3    3    0    0  0.36072889889E-01 -0.96998977404E-01  0.81255492720E-01  0.88978228241E+00  0.88000000000E+00 0.  1.
        -11    1    4    4    0    0  0.40432320313E-02  0.14224507635E-01 -0.68546872333E-02  0.16307427779E-01  0.51100000000E-03 0.  1.
         11    1    4    4    0    0 -0.19687810988E-01  0.90560209604E-01 -0.68354213887E-01  0.11515780973E+00  0.51100000000E-03 0. -1.
</event>
<event>
 8    1  0.1091347E+005  0.1043930E+01  0.7957747E-01            NaN
         13   -1    0    0    0    0  0.00000000000E+00  0.00000000000E+00  0.74505805969E-08  0.10566000000E+00  0.10566000000E+00 0.  1.
     999900   -1    0    0    0    0 -0.00000000000E+00 -0.00000000000E+00 -0.74505805969E-08  0.93827000000E+00  0.93827000000E+00 0. -1.
     999902    2    1    2    0    0 -0.92128193624E-02  0.13103131923E-01  0.16744901950E-01  0.10207576059E+01  0.10204945518E+01 0.  0.
     999903    2    3    3    0    0  0.79604008524E-01  0.89444270886E-01  0.52406129082E-01  0.13228243938E+00  0.20375613733E-01 0.  0.
         14    1    1    2    0    0  0.92128193624E-02 -0.13103131923E-01 -0.16744901950E-01  0.23172394095E-01  0.00000000000E+00 0. -1.
     999901    1    3    3    0    0 -0.88816827887E-01 -0.76341138963E-01 -0.35661227132E-01  0.88847516653E+00  0.88000000000E+00 0.  1.
        -11    1    4    4    0    0  0.59687835077E-01  0.66755048779E-01  0.29165589798E-01  0.94179440129E-01  0.51100000000E-03 0.  1.
         11    1    4    4    0    0  0.19916173447E-01  0.22689222107E-01  0.23240539283E-01  0.38102999249E-01  0.51100000000E-03 0. -1.
</event>
<event>
 8    1  0.1091347E+005  0.1043930E+01  0.7957747E-01            NaN
         13   -1    0    0    0    0  0.00000000000E+00  0.00000000000E+00  0.74505805969E-08  0.10566000000E+00  0.10566000000E+00 0.  1.
     999900   -1    0    0    0    0 -0.00000000000E+00 -0.00000000000E+00 -0.74505805969E-08  0.93827000000E+00  0.93827000000E+00 0.  1.
     999902    2    1    2    0    0 -0.14838342416E-01 -0.20404783862E-01  0.55422747027E-02  0.10180988479E+01  0.10177711018E+01 0.  0.
     999903    2    3    3    0    0 -0.70659243896E-01  0.85530408667E-01 -0.59766070759E-01  0.12759145430E+00  0.19985405739E-01 0.  0.
         14    1    1    2    0    0  0.14838342416E-01  0.20404783862E-01 -0.55422747027E-02  0.25831152103E-01  0.00000000000E+00 0. -1.
     999901    1    3    3    0    0  0.55820901480E-01 -0.10593519253E+00  0.65308345462E-01  0.89050739359E+00  0.88000000000E+00 0.  1.
        -11    1    4    4    0    0 -0.63132125746E-01  0.83550567478E-01 -0.53558325502E-01  0.11762277832E+00  0.51100000000E-03 0. -1.
         11    1    4    4    0    0 -0.75271181496E-02  0.19798411895E-02 -0.62077452574E-02  0.99686759881E-02  0.51100000000E-03 0.  1.
</event>
<event>
 8    1  0.1091347E+005  0.1043930E+01  0.7957747E-01            NaN
         13   -1    0    0    0    0  0.00000000000E+00  0.00000000000E+00  0.74505805969E-08  0.10566000000E+00  0.10566000000E+00 0. -1.
     999900   -1    0    0    0    0 -0.00000000000E+00 -0.00000000000E+00 -0.74505805969E-08  0.93827000000E+00  0.93827000000E+00 0.  1.
     999902    2    1    2    0    0 -0.15546087599E-01  0.17432161354E-01  0.45845963731E-02  0.10201270671E+01  0.10198493288E+01 0.  0.
     999903    2    3    3    0    0 -0.10051654034E+00  0.68245319501E-01  0.52021481601E-01  0.13330565729E+00  0.17411639823E-01 0.  0.
         14    1    1    2    0    0  0.15546087599E-01 -0.17432161354E-01 -0.45845963731E-02  0.23802932866E-01  0.00000000000E+00 0.  1.
     999901    1    3    3    0    0  0.84970452741E-01 -0.50813158147E-01 -0.47436885228E-01  0.88682140985E+00  0.88000000000E+00 0. -1.
        -11    1    4    4    0    0 -0.29280102457E-01  0.23782883220E-01  0.24295744356E-01  0.44871976209E-01  0.51100000000E-03 0.  1.
         11    1    4    4    0    0 -0.71236437884E-01  0.44462436281E-01  0.27725737246E-01  0.88433681079E-01  0.51100000000E-03 0. -1.
</event>
<event>
 8    1  0.1091347E+005  0.1043930E+01  0.7957747E-01            NaN
         13   -1    0    0    0    0  0.00000000000E+00  0.00000000000E+00  0.74505805969E-08  0.10566000000E+00  0.10566000000E+00 0. -1.
     999900   -1    0    0    0    0 -0.00000000000E+00 -0.00000000000E+00 -0.74505805969E-08  0.93827000000E+00  0.93827000000E+00 0.  1.
     999902    2    1    2    0    0 -0.19177678158E-01 -0.29273933667E-02 -0.14237227127E-01  0.10198665088E+01  0.10195825833E+01 0.  0.
     999903    2    3    3    0    0 -0.53937630951E-01 -0.19180384360E-02  0.11605918917E+00  0.12959327592E+00  0.20291251067E-01 0.  0.
         14    1    1    2    0    0  0.19177678158E-01  0.29273933667E-02  0.14237227127E-01  0.24063491179E-01  0.00000000000E+00 0. -1.
     999901    1    3    3    0    0  0.34759952793E-01 -0.10093549307E-02 -0.13029641630E+00  0.89027323290E+00  0.88000000000E+00 0.  1.
        -11    1    4    4    0    0 -0.23502932315E-01 -0.10666665939E-01  0.47156505709E-01  0.53760233829E-01  0.51100000000E-03 0. -1.
         11    1    4    4    0    0 -0.30434698636E-01  0.87486275034E-02  0.68902683460E-01  0.75833042094E-01  0.51100000000E-03 0.  1.
</event>
<event>
 8    1  0.1091347E+005  0.1043930E+01  0.7957747E-01            NaN
         13   -1    0    0    0    0  0.00000000000E+00  0.00000000000E+00  0.74505805969E-08  0.10566000000E+00  0.10566000000E+00 0.  1.
     999900   -1    0    0    0    0 -0.00000000000E+00 -0.00000000000E+00 -0.74505805969E-08  0.93827000000E+00  0.93827000000E+00 0.  1.
     999902    2    1    2    0    0 -0.14099309022E-01  0.23388800161E-02  0.20228622229E-01  0.10191619151E+01  0.10188609086E+01 0.  0.
     999903    2    3    3    0    0 -0.81701855239E-01  0.43233910538E-01  0.93723652813E-01  0.13257067480E+00  0.15700208597E-01 0.  0.
         14    1    1    2    0    0  0.14099309022E-01 -0.23388800161E-02 -0.20228622229E-01  0.24768084947E-01  0.00000000000E+00 0. -1.
     999901    1    3    3    0    0  0.67602546217E-01 -0.40895030522E-01 -0.73495030584E-01  0.88659124026E+00  0.88000000000E+00 0.  1.
        -11    1    4    4    0    0 -0.32818806369E-01  0.88771176509E-02  0.33249487130E-01  0.47556984605E-01  0.51100000000E-03 0.  1.
         11    1    4    4    0    0 -0.48883048870E-01  0.34356792887E-01  0.60474165683E-01  0.85013690194E-01  0.51100000000E-03 0. -1.
</event>
<event>
 8    1  0.1091347E+005  0.1043930E+01  0.7957747E-01            NaN
         13   -1    0    0    0    0  0.00000000000E+00  0.00000000000E+00  0.74505805969E-08  0.10566000000E+00  0.10566000000E+00 0.  1.
     999900   -1    0    0    0    0 -0.00000000000E+00 -0.00000000000E+00 -0.74505805969E-08  0.93827000000E+00  0.93827000000E+00 0. -1.
     999902    2    1    2    0    0  0.19818120283E-01 -0.14536807119E-01 -0.26066795709E-02  0.10192141866E+01  0.10189144649E+01 0.  0.
     999903    2    3    3    0    0 -0.10294167973E+00  0.69674345938E-01  0.13801351166E-01  0.12656044060E+00  0.19379471699E-01 0.  0.
         14    1    1    2    0    0 -0.19818120283E-01  0.14536807119E-01  0.26066795709E-02  0.24715813383E-01  0.00000000000E+00 0.  1.
     999901    1    3    3    0    0  0.12275980002E+00 -0.84211153058E-01 -0.16408030737E-01  0.89265374601E+00  0.88000000000E+00 0.  1.
        -11    1    4    4    0    0 -0.66214807960E-01  0.53690563793E-01  0.14626829094E-01  0.86494408397E-01  0.51100000000E-03 0.  1.
         11    1    4    4    0    0 -0.36726871774E-01  0.15983782145E-01 -0.82547792762E-03  0.40066032207E-01  0.51100000000E-03 0. -1.
</event>
<event>
 8    1  0.1091347E+005  0.1043930E+01  0.7957747E-01            NaN
         13   -1    0    0    0    0  0.00000000000E+00  0.00000000000E+00  0.74505805969E-08  0.10566000000E+00  0.10566000000E+00 0.  1.
     999900   -1    0    0    0    0 -0.00000000000E+00 -0.00000000000E+00 -0.74505805969E-08  0.93827000000E+00  0.93827000000E+00 0.  1.
     999902    2    1    2    0    0 -0.21393791741E-01  0.10096961617E-01  0.14412653875E-02  0.10202293628E+01  0.10199540345E+01 0.  0.
     999903    2    3    3    0    0 -0.97536353282E-01 -0.66714273980E-02 -0.86971309201E-01  0.13236920943E+00  0.19993769690E-01 0.  0.
         14    1    1    2    0    0  0.21393791741E-01 -0.10096961617E-01 -0.14412653875E-02  0.23700637225E-01  0.00000000000E+00 0. -1.
     999901    1    3    3    0    0  0.76142561541E-01  0.16768389015E-01  0.88412574589E-01  0.88786015334E+00  0.88000000000E+00 0. -1.
        -11    1    4    4    0    0 -0.69708549468E-01  0.39397358229E-02 -0.64534988835E-01  0.95078016871E-01  0.51100000000E-03 0.  1.
         11    1    4    4    0    0 -0.27827803814E-01 -0.10611163221E-01 -0.22436320367E-01  0.37291192561E-01  0.51100000000E-03 0. -1.
</event>
<event>
 8    1  0.1091347E+005  0.1043930E+01  0.7957747E-01            NaN
         13   -1    0    0    0    0  0.00000000000E+00  0.00000000000E+00  0.74505805969E-08  0.10566000000E+00  0.10566000000E+00 0.  1.
     999900   -1    0    0    0    0 -0.00000000000E+00 -0.00000000000E+00 -0.74505805969E-08  0.93827000000E+00  0.93827000000E+00 0. -1.
     999902    2    1    2    0    0 -0.20010282037E-01  0.92825995859E-02 -0.27042266704E-02  0.10217063440E+01  0.10214646164E+01 0.  0.
     999903    2    3    3    0    0 -0.85477904654E-01 -0.65489674214E-01 -0.75682259930E-01  0.13311043145E+00  0.19879961755E-01 0.  0.
         14    1    1    2    0    0  0.20010282037E-01 -0.92825995859E-02  0.27042266704E-02  0.22223655959E-01  0.00000000000E+00 0. -1.
     999901    1    3    3    0    0  0.65467622617E-01  0.74772273800E-01  0.72978033259E-01  0.88859591259E+00  0.88000000000E+00 0.  1.
        -11    1    4    4    0    0 -0.41172966033E-01 -0.21939386124E-01 -0.24997992767E-01  0.52931187016E-01  0.51100000000E-03 0. -1.
         11    1    4    4    0    0 -0.44304938620E-01 -0.43550288090E-01 -0.50684267162E-01  0.80179244432E-01  0.51100000000E-03 0.  1.
</event>
<event>
 8    1  0.1091347E+005  0.1043930E+01  0.7957747E-01            NaN
         13   -1    0    0    0    0  0.00000000000E+00  0.00000000000E+00  0.74505805969E-08  0.10566000000E+00  0.10566000000E+00 0.  1.
     999900   -1    0    0    0    0 -0.00000000000E+00 -0.00000000000E+00 -0.74505805969E-08  0.93827000000E+00  0.93827000000E+00 0. -1.
     999902    2    1    2    0    0  0.79084163724E-02  0.22065030580E-01  0.30889751144E-02  0.10202878683E+01  0.10200139135E+01 0.  0.
     999903    2    3    3    0    0  0.70543866658E-01  0.98578222849E-01 -0.51208458170E-01  0.13308683162E+00  0.19892094406E-01 0.  0.
         14    1    1    2    0    0 -0.79084163724E-02 -0.22065030580E-01 -0.30889751144E-02  0.23642131699E-01  0.00000000000E+00 0.  1.
     999901    1    3    3    0    0 -0.62635450285E-01 -0.76513192270E-01  0.54297433285E-01  0.88720103668E+00  0.88000000000E+00 0.  1.
        -11    1    4    4    0    0  0.49182450781E-01  0.78371666851E-01 -0.31748479399E-01  0.97822587857E-01  0.51100000000E-03 0. -1.
         11    1    4    4    0    0  0.21361415877E-01  0.20206555998E-01 -0.19459978771E-01  0.35264243765E-01  0.51100000000E-03 0.  1.
</event>
<event>
 8    1  0.1091347E+005  0.1043930E+01  0.7957747E-01            NaN
         13   -1    0    0    0    0  0.00000000000E+00  0.00000000000E+00  0.74505805969E-08  0.10566000000E+00  0.10566000000E+00 0. -1.
     999900   -1    0    0    0    0 -0.00000000000E+00 -0.00000000000E+00 -0.74505805969E-08  0.93827000000E+00  0.93827000000E+00 0. -1.
     999902    2    1    2    0    0 -0.12607934748E-02 -0.18946741569E-01 -0.65269286343E-02  0.10238509210E+01  0.10236540133E+01 0.  0.
     999903    2    3    3    0    0 -0.13548108116E-01  0.12596727897E+00 -0.29953657833E-01  0.13160663657E+00  0.19281560305E-01 0.  0.
         14    1    1    2    0    0  0.12607934748E-02  0.18946741569E-01  0.65269286343E-02  0.20079079004E-01  0.00000000000E+00 0. -1.
     999901    1    3    3    0    0  0.12287314641E-01 -0.14491402054E+00  0.23426729198E-01  0.89224428443E+00  0.88000000000E+00 0.  1.
        -11    1    4    4    0    0 -0.70618869628E-02  0.66914270496E-01 -0.60200026412E-02  0.67556579223E-01  0.51100000000E-03 0. -1.
         11    1    4    4    0    0 -0.64862211532E-02  0.59053008471E-01 -0.23933655191E-01  0.64050057347E-01  0.51100000000E-03 0.  1.
</event>
<event>
 8    1  0.1091347E+005  0.1043930E+01  0.7957747E-01            NaN
         13   -1    0    0    0    0  0.00000000000E+00  0.00000000000E+00  0.74505805969E-08  0.10566000000E+00  0.10566000000E+00 0.  1.
     999900   -1    0    0    0    0 -0.00000000000E+00 -0.00000000000E+00 -0.74505805969E-08  0.93827000000E+00  0.93827000000E+00 0. -1.
     999902    2    1    2    0    0 -0.20668188444E-02  0.21809887078E-01 -0.96933854949E-02  0.10199736932E+01  0.10196923213E+01 0.  0.
     999903    2    3    3    0    0  0.45901958938E-02  0.12181133821E+00 -0.50106848051E-01  0.13336337627E+00  0.20396614777E-01 0.  0.
         14    1    1    2    0    0  0.20668188444E-02 -0.21809887078E-01  0.96933854949E-02  0.23956306828E-01  0.00000000000E+00 0. -1.
     999901    1    3    3    0    0 -0.66570147382E-02 -0.10000145113E+00  0.40413462556E-01  0.88661031690E+00  0.88000000000E+00 0.  1.
        -11    1    4    4    0    0  0.92373990617E-02  0.75014149915E-01 -0.22642246845E-01  0.78901107040E-01  0.51100000000E-03 0.  1.
         11    1    4    4    0    0 -0.46472031679E-02  0.46797188296E-01 -0.27464601206E-01  0.54462269234E-01  0.51100000000E-03 0. -1.
</event>
<event>
 8    1  0.1091347E+005  0.1043930E+01  0.7957747E-01            NaN
         13   -1    0    0    0    0  0.00000000000E+00  0.00000000000E+00  0.74505805969E-08  0.10566000000E+00  0.10566000000E+00 0.  1.
     999900   -1    0    0    0    0 -0.00000000000E+00 -0.00000000000E+00 -0.74505805969E-08  0.93827000000E+00  0.93827000000E+00 0.  1.
     999902    2    1    2    0    0  0.12051357707E-01 -0.49156756597E-02  0.17297839734E-01  0.10222824979E+01  0.10220532721E+01 0.  0.
     999903    2    3    3    0    0  0.60716477967E-01 -0.97516341994E-01 -0.61695483465E-01  0.13257292589E+00  0.23944108791E-01 0.  0.
         14    1    1    2    0    0 -0.12051357707E-01  0.49156756597E-02 -0.17297839734E-01  0.21647502148E-01  0.00000000000E+00 0. -1.
     999901    1    3    3    0    0 -0.48665120260E-01  0.92600666335E-01  0.78993323199E-01  0.88970957196E+00  0.88000000000E+00 0. -1.
        -11    1    4    4    0    0  0.17897915192E-01 -0.50849638484E-01 -0.31048212233E-01  0.62211523900E-01  0.51100000000E-03 0.  1.
         11    1    4    4    0    0  0.42818562775E-01 -0.46666703511E-01 -0.30647271232E-01  0.70361401987E-01  0.51100000000E-03 0. -1.
</event>
<event>
 8    1  0.1091347E+005  0.1043930E+01  0.7957747E-01            NaN
         13   -1    0    0    0    0  0.00000000000E+00  0.00000000000E+00  0.74505805969E-08  0.10566000000E+00  0.10566000000E+00 0.  1.
     999900   -1    0    0    0    0 -0.00000000000E+00 -0.00000000000E+00 -0.74505805969E-08  0.93827000000E+00  0.93827000000E+00 0. -1.
     999902    2    1    2    0    0 -0.34229290993E-02  0.57660049355E-02 -0.23658268717E-01  0.10193398203E+01  0.10190431750E+01 0.  0.
     999903    2    3    3    0    0 -0.43088494525E-01 -0.62659100295E-01  0.10001249353E+00  0.12717962759E+00  0.19732653225E-01 0.  0.
         14    1    1    2    0    0  0.34229290993E-02 -0.57660049355E-02  0.23658268717E-01  0.24590179650E-01  0.00000000000E+00 0.  1.
     999901    1    3    3    0    0  0.39665565426E-01  0.68425105231E-01 -0.12367076224E+00  0.89216019276E+00  0.88000000000E+00 0. -1.
        -11    1    4    4    0    0 -0.33039259125E-01 -0.42931711124E-01  0.56038697575E-01  0.77944346879E-01  0.51100000000E-03 0. -1.
         11    1    4    4    0    0 -0.10049235400E-01 -0.19727389171E-01  0.43973795951E-01  0.49235280714E-01  0.51100000000E-03 0.  1.
</event>
<event>
 8    1  0.1091347E+005  0.1043930E+01  0.7957747E-01            NaN
         13   -1    0    0    0    0  0.00000000000E+00  0.00000000000E+00  0.74505805969E-08  0.10566000000E+00  0.10566000000E+00 0. -1.
     999900   -1    0    0    0    0 -0.00000000000E+00 -0.00000000000E+00 -0.74505805969E-08  0.93827000000E+00  0.93827000000E+00 0. -1.
     999902    2    1    2    0    0 -0.93467314676E-02 -0.20853585727E-01 -0.75494828180E-02  0.10198628415E+01  0.10195788284E+01 0.  0.
     999903    2    3    3    0    0  0.20136398230E-01  0.11902883625E+00  0.35238489284E-01  0.12730071064E+00  0.19758071970E-01 0.  0.
         14    1    1    2    0    0  0.93467314676E-02  0.20853585727E-01  0.75494828180E-02  0.24067158487E-01  0.00000000000E+00 0.  1.
     999901    1    3    3    0    0 -0.29483129698E-01 -0.13988242198E+00 -0.42787972102E-01  0.89256213088E+00  0.88000000000E+00 0. -1.
        -11    1    4    4    0    0 -0.95861948551E-03  0.51855350087E-01  0.13154974711E-01  0.53508978355E-01  0.51100000000E-03 0.  1.
         11    1    4    4    0    0  0.21095017716E-01  0.67173486168E-01  0.22083514573E-01  0.73791732282E-01  0.51100000000E-03 0. -1.
</event>
<event>
 8    1  0.1091347E+005  0.1043930E+01  0.7957747E-01            NaN
         13   -1    0    0    0    0  0.00000000000E+00  0.00000000000E+00  0.74505805969E-08  0.10566000000E+00  0.10566000000E+00 0.  1.
     999900   -1    0    0    0    0 -0.00000000000E+00 -0.00000000000E+00 -0.74505805969E-08  0.93827000000E+00  0.93827000000E+00 0. -1.
     999902    2    1    2    0    0  0.11065798116E-02 -0.42134347563E-02  0.22984450882E-01  0.10205363570E+01  0.10202681968E+01 0.  0.
     999903    2    3    3    0    0  0.41034242661E-01  0.39652623898E-01  0.11828481354E+00  0.13340580938E+00  0.23445110600E-01 0.  0.
         14    1    1    2    0    0 -0.11065798116E-02  0.42134347563E-02 -0.22984450882E-01  0.23393643018E-01  0.00000000000E+00 0. -1.
     999901    1    3    3    0    0 -0.39927662850E-01 -0.43866058655E-01 -0.95300362654E-01  0.88713054760E+00  0.88000000000E+00 0.  1.
        -11    1    4    4    0    0  0.21208615752E-01  0.95134052334E-02  0.65196158705E-01  0.69217848075E-01  0.51100000000E-03 0. -1.
         11    1    4    4    0    0  0.19825626909E-01  0.30139218665E-01  0.53088654830E-01  0.64187961307E-01  0.51100000000E-03 0.  1.
</event>
<event>
 8    1  0.1091347E+005  0.1043930E+01  0.7957747E-01            NaN
         13   -1    0    0    0    0  0.00000000000E+00  0.00000000000E+00  0.74505805969E-08  0.10566000000E+00  0.10566000000E+00 0. -1.
     999900   -1    0    0    0    0 -0.00000000000E+00 -0.00000000000E+00 -0.74505805969E-08  0.93827000000E+00  0.93827000000E+00 0.  1.
     999902    2    1    2    0    0  0.19507456422E-01  0.71810886825E-02 -0.11721533689E-01  0.10200657329E+01  0.10197865445E+01 0.  0.
     999903    2    3    3    0    0  0.10645265166E+00  0.59398292984E-01  0.47279035206E-01  0.13227793704E+00  0.20045478357E-01 0.  0.
         14    1    1    2    0    0 -0.19507456422E-01 -0.71810886825E-02  0.11721533689E-01  0.23864267069E-01  0.00000000000E+00 0. -1.
     999901    1    3    3    0    0 -0.86945195241E-01 -0.52217204301E-01 -0.59000568895E-01  0.88778779589E+00  0.88000000000E+00 0.  1.
        -11    1    4    4    0    0  0.19441869797E-01  0.20375699852E-01  0.11505208342E-01  0.30426738005E-01  0.51100000000E-03 0. -1.
         11    1    4    4    0    0  0.87010781866E-01  0.39022593132E-01  0.35773826864E-01  0.10185119904E+00  0.51100000000E-03 0.  1.
</event>
<event>
 8    1  0.1091347E+005  0.1043930E+01  0.7957747E-01            NaN
         13   -1    0    0    0    0  0.00000000000E+00  0.00000000000E+00  0.74505805969E-08  0.10566000000E+00  0.10566000000E+00 0.  1.
     999900   -1    0    0    0    0 -0.00000000000E+00 -0.00000000000E+00 -0.74505805969E-08  0.93827000000E+00  0.93827000000E+00 0. -1.
     999902    2    1    2    0    0  0.65225292680E-02 -0.21252390741E-01 -0.90081320551E-02  0.10199434633E+01  0.10196613724E+01 0.  0.
     999903    2    3    3    0    0 -0.23231025886E-01  0.30464524632E-01  0.12087335701E+00  0.12841157122E+00  0.20282883492E-01 0.  0.
         14    1    1    2    0    0 -0.65225292680E-02  0.21252390741E-01  0.90081320551E-02  0.23986536711E-01  0.00000000000E+00 0. -1.
     999901    1    3    3    0    0  0.29753555154E-01 -0.51716915373E-01 -0.12988148907E+00  0.89153189207E+00  0.88000000000E+00 0.  1.
        -11    1    4    4    0    0 -0.21559497239E-01  0.31751669944E-01  0.95196799252E-01  0.10264342246E+00  0.51100000000E-03 0. -1.
         11    1    4    4    0    0 -0.16715286467E-02 -0.12871453117E-02  0.25676557758E-01  0.25768148757E-01  0.51100000000E-03 0.  1.
</event>
<event>
 8    1  0.1091347E+005  0.1043930E+01  0.7957747E-01            NaN
         13   -1    0    0    0    0  0.00000000000E+00  0.00000000000E+00  0.74505805969E-08  0.10566000000E+00  0.10566000000E+00 0.  1.
     999900   -1    0    0    0    0 -0.00000000000E+00 -0.00000000000E+00 -0.74505805969E-08  0.93827000000E+00  0.93827000000E+00 0.  1.
     999902    2    1    2    0    0  0.56557950872E-02  0.46799099839E-02 -0.22204166645E-01  0.10205437948E+01  0.10202758071E+01 0.  0.
     999903    2    3    3    0    0  0.12577629116E+00  0.25195346766E-01 -0.24898016742E-01  0.13214238019E+00  0.19677817125E-01 0.  0.
         14    1    1    2    0    0 -0.56557950872E-02 -0.46799099839E-02  0.22204166645E-01  0.23386205163E-01  0.00000000000E+00 0.  1.
     999901    1    3    3    0    0 -0.12012049607E+00 -0.20515436782E-01  0.26938500975E-02  0.88840141465E+00  0.88000000000E+00 0. -1.
        -11    1    4    4    0    0  0.72316622278E-01  0.19330958597E-01 -0.23057580728E-01  0.78328110969E-01  0.51100000000E-03 0.  1.
         11    1    4    4    0    0  0.53459668884E-01  0.58643881690E-02 -0.18404360142E-02  0.53814269218E-01  0.51100000000E-03 0. -1.
</event>
<event>
 8    1  0.1091347E+005  0.1043930E+01  0.7957747E-01            NaN
         13   -1    0    0    0    0  0.00000000000E+00  0.00000000000E+00  0.74505805969E-08  0.10566000000E+00  0.10566000000E+00 0. -1.
     999900   -1    0    0    0    0 -0.00000000000E+00 -0.00000000000E+00 -0.74505805969E-08  0.93827000000E+00  0.93827000000E+00 0.  1.
     999902    2    1    2    0    0 -0.24798151738E-01  0.63479869680E-04 -0.20407585571E-02  0.10190479371E+01  0.10187441195E+01 0.  0.
     999903    2    3    3    0    0  0.61558124248E-02  0.50012523115E-01  0.11711160646E+00  0.12907583589E+00  0.20156799033E-01 0.  0.
         14    1    1    2    0    0  0.24798151738E-01 -0.63479869680E-04  0.20407585571E-02  0.24882062913E-01  0.00000000000E+00 0. -1.
     999901    1    3    3    0    0 -0.30953964163E-01 -0.49949043246E-01 -0.11915236502E+00  0.88997210120E+00  0.88000000000E+00 0.  1.
        -11    1    4    4    0    0  0.39611234511E-02  0.73360691172E-02  0.67848621295E-02  0.10761221316E-01  0.51100000000E-03 0. -1.
         11    1    4    4    0    0  0.21946889738E-02  0.42676453998E-01  0.11032674433E+00  0.11831461457E+00  0.51100000000E-03 0.  1.
</event>
<event>
 8    1  0.1091347E+005  0.1043930E+01  0.7957747E-01            NaN
         13   -1    0    0    0    0  0.00000000000E+00  0.00000000000E+00  0.74505805969E-08  0.10566000000E+00  0.10566000000E+00 0. -1.
     999900   -1    0    0    0    0 -0.00000000000E+00 -0.00000000000E+00 -0.74505805969E-08  0.93827000000E+00  0.93827000000E+00 0.  1.
     999902    2    1    2    0    0 -0.79540945276E-02 -0.34663620860E-02  0.21929856864E-01  0.10203460667E+01  0.10200734748E+01 0.  0.
     999903    2    3    3    0    0  0.10503317196E+00  0.72951233639E-01 -0.36262731153E-02  0.12947071794E+00  0.19891386238E-01 0.  0.
         14    1    1    2    0    0  0.79540945276E-02  0.34663620860E-02 -0.21929856864E-01  0.23583933259E-01  0.00000000000E+00 0.  1.
     999901    1    3    3    0    0 -0.11298726648E+00 -0.76417595725E-01  0.25556129980E-01  0.89087534880E+00  0.88000000000E+00 0. -1.
        -11    1    4    4    0    0  0.51876685631E-01  0.45137610700E-01  0.45674732748E-02  0.68918193134E-01  0.51100000000E-03 0.  1.
         11    1    4    4    0    0  0.53156486324E-01  0.27813622940E-01 -0.81937463900E-02  0.60552524805E-01  0.51100000000E-03 0. -1.
</event>
<event>
 8    1  0.1091347E+005  0.1043930E+01  0.7957747E-01            NaN
         13   -1    0    0    0    0  0.00000000000E+00  0.00000000000E+00  0.74505805969E-08  0.10566000000E+00  0.10566000000E+00 0.  1.
     999900   -1    0    0    0    0 -0.00000000000E+00 -0.00000000000E+00 -0.74505805969E-08  0.93827000000E+00  0.93827000000E+00 0.  1.
     999902    2    1    2    0    0  0.38257154276E-02 -0.21676240218E-01  0.79536159296E-02  0.10205258231E+01  0.10202574186E+01 0.  0.
     999903    2    3    3    0    0  0.93735037326E-02 -0.83583812376E-01 -0.99492192335E-01  0.13181443738E+00  0.20055754871E-01 0.  0.
         14    1    1    2    0    0 -0.38257154276E-02  0.21676240218E-01 -0.79536159296E-02  0.23404176868E-01  0.00000000000E+00 0. -1.
     999901    1    3    3    0    0 -0.55477883050E-02  0.61907572158E-01  0.10744580827E+00  0.88871138575E+00  0.88000000000E+00 0. -1.
        -11    1    4    4    0    0  0.82919500513E-02 -0.13852133541E-01 -0.25055738757E-01  0.29810890710E-01  0.51100000000E-03 0.  1.
         11    1    4    4    0    0  0.10815536813E-02 -0.69731678835E-01 -0.74436453578E-01  0.10200354667E+00  0.51100000000E-03 0. -1.
</event>
<event>
 8    1  0.1091347E+005  0.1043930E+01  0.7957747E-01            NaN
         13   -1    0    0    0    0  0.00000000000E+00  0.00000000000E+00  0.74505805969E-08  0.10566000000E+00  0.10566000000E+00 0.  1.
     999900   -1    0    0    0    0 -0.00000000000E+00 -0.00000000000E+00 -0.74505805969E-08  0.93827000000E+00  0.93827000000E+00 0.  1.
     999902    2    1    2    0    0  0.21431343423E-01  0.11585060963E-01 -0.13081291834E-02  0.10195327190E+01  0.10192407654E+01 0.  0.
     999903    2    3    3    0    0  0.76995554689E-01  0.54582027993E-01  0.90015435757E-01  0.13202152793E+00  0.20479061056E-01 0.  0.
         14    1    1    2    0    0 -0.21431343423E-01 -0.11585060963E-01  0.13081291834E-02  0.24397281004E-01  0.00000000000E+00 0. -1.
     999901    1    3    3    0    0 -0.55564211266E-01 -0.42996967030E-01 -0.91323564940E-01  0.88751119106E+00  0.88000000000E+00 0.  1.
        -11    1    4    4    0    0  0.74301770301E-01  0.55188892306E-01  0.82461855267E-01  0.12396283959E+00  0.51100000000E-03 0. -1.
         11    1    4    4    0    0  0.26937843881E-02 -0.60686431325E-03  0.75535804896E-02  0.80586883447E-02  0.51100000000E-03 0.  1.
</event>
<event>
 8    1  0.1091347E+005  0.1043930E+01  0.7957747E-01            NaN
         13   -1    0    0    0    0  0.00000000000E+00  0.00000000000E+00  0.74505805969E-08  0.10566000000E+00  0.10566000000E+00 0.  1.
     999900   -1    0    0    0    0 -0.00000000000E+00 -0.00000000000E+00 -0.74505805969E-08  0.93827000000E+00  0.93827000000E+00 0.  1.
     999902    2    1    2    0    0  0.10016681777E-01 -0.20760139102E-01  0.49385807157E-02  0.10203565643E+01  0.10200842179E+01 0.  0.
     999903    2    3    3    0    0 -0.94342805417E-01 -0.21962736352E-01 -0.83632076415E-01  0.12977410880E+00  0.21542246577E-01 0.  0.
         14    1    1    2    0    0 -0.10016681777E-01  0.20760139102E-01 -0.49385807157E-02  0.23573435661E-01  0.00000000000E+00 0.  1.
     999901    1    3    3    0    0  0.10435948719E+00  0.12025972495E-02  0.88570657131E-01  0.89058245554E+00  0.88000000000E+00 0. -1.
        -11    1    4    4    0    0 -0.66512090220E-01 -0.89510487929E-02 -0.67010077626E-01  0.94839817822E-01  0.51100000000E-03 0. -1.
         11    1    4    4    0    0 -0.27830715197E-01 -0.13011687559E-01 -0.16621998789E-01  0.34934290980E-01  0.51100000000E-03 0.  1.
</event>
<event>
 8    1  0.1224379E+005  0.1043930E+01  0.7957747E-01            NaN
         13   -1    0    0    0    0  0.00000000000E+00  0.00000000000E+00  0.74505805969E-08  0.10566000000E+00  0.10566000000E+00 0. -1.
     999900   -1    0    0    0    0 -0.00000000000E+00 -0.00000000000E+00 -0.74505805969E-08  0.93827000000E+00  0.93827000000E+00 0.  1.
     999902    2    1    2    0    0  0.16294111814E-01 -0.11420212122E-01  0.14664233129E-01  0.10192124140E+01  0.10189126487E+01 0.  0.
     999903    2    3    3    0    0  0.44902248162E-01 -0.74603032633E-01 -0.94095519946E-01  0.12980858099E+00  0.20358694869E-01 0.  0.
         14    1    1    2    0    0 -0.16294111814E-01  0.11420212122E-01 -0.14664233129E-01  0.24717586006E-01  0.00000000000E+00 0.  1.
     999901    1    3    3    0    0 -0.28608136348E-01  0.63182820511E-01  0.10875975307E+00  0.88940383300E+00  0.88000000000E+00 0. -1.
        -11    1    4    4    0    0  0.20989642756E-01 -0.53622380070E-01 -0.59300655106E-01  0.82660471596E-01  0.51100000000E-03 0. -1.
         11    1    4    4    0    0  0.23912605406E-01 -0.20980652563E-01 -0.34794864839E-01  0.47148109394E-01  0.51100000000E-03 0.  1.
</event>
<event>
 8    1  0.1091347E+005  0.1043930E+01  0.7957747E-01            NaN
         13   -1    0    0    0    0  0.00000000000E+00  0.00000000000E+00  0.74505805969E-08  0.10566000000E+00  0.10566000000E+00 0.  1.
     999900   -1    0    0    0    0 -0.00000000000E+00 -0.00000000000E+00 -0.74505805969E-08  0.93827000000E+00  0.93827000000E+00 0.  1.
     999902    2    1    2    0    0  0.14586457367E-01 -0.17626770729E-01  0.47605482376E-02  0.10205605626E+01  0.10202929635E+01 0.  0.
     999903    2    3    3    0    0  0.33470597814E-01 -0.15649874707E-01  0.12526558094E+00  0.13214512949E+00  0.20141250829E-01 0.  0.
         14    1    1    2    0    0 -0.14586457367E-01  0.17626770729E-01 -0.47605482376E-02  0.23369437400E-01  0.00000000000E+00 0. -1.
     999901    1    3    3    0    0 -0.18884140447E-01 -0.19768960228E-02 -0.12050503270E+00  0.88841543311E+00  0.88000000000E+00 0.  1.
        -11    1    4    4    0    0  0.33484699727E-01 -0.80693596566E-02  0.10468928866E+00  0.11021092487E+00  0.51100000000E-03 0. -1.
         11    1    4    4    0    0 -0.14101913160E-04 -0.75805150500E-02  0.20576292278E-01  0.21934204618E-01  0.51100000000E-03 0.  1.
</event>
<event>
 8    1  0.1091347E+005  0.1043930E+01  0.7957747E-01            NaN
         13   -1    0    0    0    0  0.00000000000E+00  0.00000000000E+00  0.74505805969E-08  0.10566000000E+00  0.10566000000E+00 0. -1.
     999900   -1    0    0    0    0 -0.00000000000E+00 -0.00000000000E+00 -0.74505805969E-08  0.93827000000E+00  0.93827000000E+00 0.  1.
     999902    2    1    2    0    0  0.35878136098E-02  0.24019225577E-01 -0.61313874370E-02  0.10188822553E+01  0.10185743275E+01 0.  0.
     999903    2    3    3    0    0  0.51229882833E-01 -0.67670988633E-01  0.92921595030E-01  0.12731713961E+00  0.19270900796E-01 0.  0.
         14    1    1    2    0    0 -0.35878136098E-02 -0.24019225577E-01  0.61313874370E-02  0.25047744723E-01  0.00000000000E+00 0. -1.
     999901    1    3    3    0    0 -0.47642069223E-01  0.91690214210E-01 -0.99052982467E-01  0.89156511567E+00  0.88000000000E+00 0.  1.
        -11    1    4    4    0    0  0.12187679089E-01 -0.16629528984E-01  0.35903118407E-01  0.41405021292E-01  0.51100000000E-03 0.  1.
         11    1    4    4    0    0  0.39042203744E-01 -0.51041459649E-01  0.57018476622E-01  0.85912118317E-01  0.51100000000E-03 0. -1.
</event>
<event>
 8    1  0.1091347E+005  0.1043930E+01  0.7957747E-01            NaN
         13   -1    0    0    0    0  0.00000000000E+00  0.00000000000E+00  0.74505805969E-08  0.10566000000E+00  0.10566000000E+00 0.  1.
     999900   -1    0    0    0    0 -0.00000000000E+00 -0.00000000000E+00 -0.74505805969E-08  0.93827000000E+00  0.93827000000E+00 0. -1.
     999902    2    1    2    0    0 -0.82064901041E-02  0.11194795778E-01 -0.20470242135E-01  0.10191974153E+01  0.10188972817E+01 0.  0.
     999903    2    3    3    0    0  0.11888654308E+00  0.14304315338E-01 -0.45654781621E-01  0.12970510549E+00  0.20010790670E-01 0.  0.
         14    1    1    2    0    0  0.82064901041E-02 -0.11194795778E-01  0.20470242135E-01  0.24732584689E-01  0.00000000000E+00 0.  1.
     999901    1    3    3    0    0 -0.12709303318E+00 -0.31095195608E-02  0.25184539486E-01  0.88949230982E+00  0.88000000000E+00 0. -1.
        -11    1    4    4    0    0  0.79201650226E-01  0.19745681735E-02 -0.23664790710E-01  0.82686660099E-01  0.51100000000E-03 0. -1.
         11    1    4    4    0    0  0.39684892854E-01  0.12329747165E-01 -0.21989990911E-01  0.47018445394E-01  0.51100000000E-03 0.  1.
</event>
<event>
 8    1  0.1091347E+005  0.1043930E+01  0.7957747E-01            NaN
         13   -1    0    0    0    0  0.00000000000E+00  0.00000000000E+00  0.74505805969E-08  0.10566000000E+00  0.10566000000E+00 0.  1.
     999900   -1    0    0    0    0 -0.00000000000E+00 -0.00000000000E+00 -0.74505805969E-08  0.93827000000E+00  0.93827000000E+00 0. -1.
     999902    2    1    2    0    0 -0.12622053397E-02  0.34228804436E-02 -0.23567129737E-01  0.10200821725E+01  0.10198033731E+01 0.  0.
     999903    2    3    3    0    0  0.79296321386E-01  0.89243868315E-01  0.46376639708E-01  0.12949413694E+00  0.19119732563E-01 0.  0.
         14    1    1    2    0    0  0.12622053397E-02 -0.34228804436E-02  0.23567129737E-01  0.23847827509E-01  0.00000000000E+00 0.  1.
     999901    1    3    3    0    0 -0.80558526726E-01 -0.85820987871E-01 -0.69943769445E-01  0.89058803555E+00  0.88000000000E+00 0. -1.
        -11    1    4    4    0    0  0.19511516983E-01  0.11128482949E-01  0.10324995259E-01  0.24726687522E-01  0.51100000000E-03 0. -1.
         11    1    4    4    0    0  0.59784804403E-01  0.78115385366E-01  0.36051644448E-01  0.10476744941E+00  0.51100000000E-03 0.  1.
</event>
<event>
 8    1  0.1091347E+005  0.1043930E+01  0.7957747E-01            NaN
         13   -1    0    0    0    0  0.00000000000E+00  0.00000000000E+00  0.74505805969E-08  0.10566000000E+00  0.10566000000E+00 0. -1.
     999900   -1    0    0    0    0 -0.00000000000E+00 -0.00000000000E+00 -0.74505805969E-08  0.93827000000E+00  0.93827000000E+00 0.  1.
     999902    2    1    2    0    0 -0.43208848338E-02 -0.69793642889E-02 -0.28710377067E-01  0.10140692009E+01  0.10136294574E+01 0.  0.
     999903    2    3    3    0    0  0.19356443875E-01 -0.12028445465E+00 -0.27465161169E-01  0.12648810040E+00  0.20047007671E-01 0.  0.
         14    1    1    2    0    0  0.43208848338E-02  0.69793642889E-02  0.28710377067E-01  0.29860799101E-01  0.00000000000E+00 0. -1.
     999901    1    3    3    0    0 -0.23677328709E-01  0.11330509036E+00 -0.12452158976E-02  0.88758110050E+00  0.88000000000E+00 0. -1.
        -11    1    4    4    0    0  0.14058625840E-01 -0.31621074227E-01 -0.91151658319E-02  0.35789449073E-01  0.51100000000E-03 0. -1.
         11    1    4    4    0    0  0.52978180344E-02 -0.88663380419E-01 -0.18349995337E-01  0.90698651330E-01  0.51100000000E-03 0.  1.
</event>
<event>
 8    1  0.1091347E+005  0.1043930E+01  0.7957747E-01            NaN
         13   -1    0    0    0    0  0.00000000000E+00  0.00000000000E+00  0.74505805969E-08  0.10566000000E+00  0.10566000000E+00 0. -1.
     999900   -1    0    0    0    0 -0.00000000000E+00 -0.00000000000E+00 -0.74505805969E-08  0.93827000000E+00  0.93827000000E+00 0. -1.
     999902    2    1    2    0    0  0.88689541182E-02  0.99276002567E-02 -0.19730161893E-01  0.10201288470E+01  0.10198511507E+01 0.  0.
     999903    2    3    3    0    0 -0.58942323710E-01 -0.11237417655E+00  0.72218876348E-02  0.12867918105E+00  0.20100320793E-01 0.  0.
         14    1    1    2    0    0 -0.88689541182E-02 -0.99276002567E-02  0.19730161893E-01  0.23801152962E-01  0.00000000000E+00 0. -1.
     999901    1    3    3    0    0  0.67811277829E-01  0.12230177681E+00 -0.26952049528E-01  0.89144966598E+00  0.88000000000E+00 0. -1.
        -11    1    4    4    0    0 -0.13278078259E-01 -0.34304009019E-01 -0.59945638431E-02  0.37272889795E-01  0.51100000000E-03 0. -1.
         11    1    4    4    0    0 -0.45664245451E-01 -0.78070167530E-01  0.13216451478E-01  0.91406291258E-01  0.51100000000E-03 0.  1.
</event>
<event>
 8    1  0.1091347E+005  0.1043930E+01  0.7957747E-01            NaN
         13   -1    0    0    0    0  0.00000000000E+00  0.00000000000E+00  0.74505805969E-08  0.10566000000E+00  0.10566000000E+00 0.  1.
     999900   -1    0    0    0    0 -0.00000000000E+00 -0.00000000000E+00 -0.74505805969E-08  0.93827000000E+00  0.93827000000E+00 0. -1.
     999902    2    1    2    0    0 -0.53667616118E-02 -0.20145208153E-01 -0.95009341386E-03  0.10230605434E+01  0.10228476628E+01 0.  0.
     999903    2    3    3    0    0 -0.17337414703E-01 -0.13228868123E+00 -0.14816110989E-01  0.13575466517E+00  0.20222038481E-01 0.  0.
         14    1    1    2    0    0  0.53667616118E-02  0.20145208153E-01  0.95009341386E-03  0.20869456610E-01  0.00000000000E+00 0. -1.
     999901    1    3    3    0    0  0.11970653092E-01  0.11214347307E+00  0.13866017575E-01  0.88730587822E+00  0.88000000000E+00 0.  1.
        -11    1    4    4    0    0 -0.16843087758E-01 -0.98663782921E-01 -0.18945663477E-01  0.10186967631E+00  0.51100000000E-03 0.  1.
         11    1    4    4    0    0 -0.49432694533E-03 -0.33624898304E-01  0.41295524876E-02  0.33884988857E-01  0.51100000000E-03 0. -1.
</event>
<event>
 8    1  0.1091347E+005  0.1043930E+01  0.7957747E-01            NaN
         13   -1    0    0    0    0  0.00000000000E+00  0.00000000000E+00  0.74505805969E-08  0.10566000000E+00  0.10566000000E+00 0. -1.
     999900   -1    0    0    0    0 -0.00000000000E+00 -0.00000000000E+00 -0.74505805969E-08  0.93827000000E+00  0.93827000000E+00 0. -1.
     999902    2    1    2    0    0  0.20201427005E-01  0.28840664719E-02  0.12292925194E-01  0.10201070803E+01  0.10198288699E+01 0.  0.
     999903    2    3    3    0    0 -0.13969817669E-01  0.33398577710E-01 -0.12187039995E+00  0.12876056679E+00  0.20402656129E-01 0.  0.
         14    1    1    2    0    0 -0.20201427005E-01 -0.28840664719E-02 -0.12292925194E-01  0.23822919684E-01  0.00000000000E+00 0. -1.
     999901    1    3    3    0    0  0.34171244674E-01 -0.30514511238E-01  0.13416332515E+00  0.89134651352E+00  0.88000000000E+00 0.  1.
        -11    1    4    4    0    0 -0.54232963155E-02  0.11078916681E-01 -0.15915988803E-01  0.20142848814E-01  0.51100000000E-03 0. -1.
         11    1    4    4    0    0 -0.85465213538E-02  0.22319661029E-01 -0.10595441115E+00  0.10861771798E+00  0.51100000000E-03 0.  1.
</event>
<event>
 8    1  0.1091347E+005  0.1043930E+01  0.7957747E-01            NaN
         13   -1    0    0    0    0  0.00000000000E+00  0.00000000000E+00  0.74505805969E-08  0.10566000000E+00  0.10566000000E+00 0.  1.
     999900   -1    0    0    0    0 -0.00000000000E+00 -0.00000000000E+00 -0.74505805969E-08  0.93827000000E+00  0.93827000000E+00 0. -1.
     999902    2    1    2    0    0  0.14005918158E-01  0.12882451399E-01  0.13180197487E-01  0.10207817624E+01  0.10205192627E+01 0.  0.
     999903    2    3    3    0    0 -0.99696829725E-01 -0.31450838934E-01 -0.72962846761E-01  0.12819317881E+00  0.13464804470E-01 0.  0.
         14    1    1    2    0    0 -0.14005918158E-01 -0.12882451399E-01 -0.13180197487E-01  0.23148237584E-01  0.00000000000E+00 0. -1.
     999901    1    3    3    0    0  0.11370274788E+00  0.44333290333E-01  0.86143044247E-01  0.89258858360E+00  0.88000000000E+00 0.  1.
        -11    1    4    4    0    0 -0.43859150143E-01 -0.82001138713E-02 -0.26273716318E-01  0.51782585963E-01  0.51100000000E-03 0.  1.
         11    1    4    4    0    0 -0.55837679582E-01 -0.23250725063E-01 -0.46689130442E-01  0.76410592849E-01  0.51100000000E-03 0. -1.
</event>
<event>
 8    1  0.1091347E+005  0.1043930E+01  0.7957747E-01            NaN
         13   -1    0    0    0    0  0.00000000000E+00  0.00000000000E+00  0.74505805969E-08  0.10566000000E+00  0.10566000000E+00 0. -1.
     999900   -1    0    0    0    0 -0.00000000000E+00 -0.00000000000E+00 -0.74505805969E-08  0.93827000000E+00  0.93827000000E+00 0. -1.
     999902    2    1    2    0    0  0.97206369578E-02 -0.21102690307E-01  0.27448494036E-02  0.10205345193E+01  0.10202663164E+01 0.  0.
     999903    2    3    3    0    0 -0.59057743217E-01 -0.95798198301E-01 -0.66525562259E-01  0.13199173783E+00  0.18194960549E-01 0.  0.
         14    1    1    2    0    0 -0.97206369578E-02  0.21102690307E-01 -0.27448494036E-02  0.23395480745E-01  0.00000000000E+00 0.  1.
     999901    1    3    3    0    0  0.68778380175E-01  0.74695507994E-01  0.69270411662E-01  0.88854278143E+00  0.88000000000E+00 0.  1.
        -11    1    4    4    0    0 -0.73139475860E-02 -0.16279257704E-01 -0.18293339394E-01  0.25561992251E-01  0.51100000000E-03 0.  1.
         11    1    4    4    0    0 -0.51743795631E-01 -0.79518940597E-01 -0.48232222865E-01  0.10642974558E+00  0.51100000000E-03 0. -1.
</event>
<event>
 8    1  0.1091347E+005  0.1043930E+01  0.7957747E-01            NaN
         13   -1    0    0    0    0  0.00000000000E+00  0.00000000000E+00  0.74505805969E-08  0.10566000000E+00  0.10566000000E+00 0.  1.
     999900   -1    0    0    0    0 -0.00000000000E+00 -0.00000000000E+00 -0.74505805969E-08  0.93827000000E+00  0.93827000000E+00 0.  1.
     999902    2    1    2    0    0 -0.20133169727E-01 -0.12316463666E-01 -0.53055849778E-02  0.10197393193E+01  0.10194523482E+01 0.  0.
     999903    2    3    3    0    0  0.36783772008E-02  0.34700680141E-01  0.12255773398E+00  0.12893820238E+00  0.19672168540E-01 0.  0.
         14    1    1    2    0    0  0.20133169727E-01  0.12316463666E-01  0.53055849778E-02  0.24190680694E-01  0.00000000000E+00 0. -1.
     999901    1    3    3    0    0 -0.23811546928E-01 -0.47017143807E-01 -0.12786331895E+00  0.89080111692E+00  0.88000000000E+00 0.  1.
        -11    1    4    4    0    0  0.83623060400E-03  0.18524626546E-01  0.32743490578E-01  0.37633208294E-01  0.51100000000E-03 0. -1.
         11    1    4    4    0    0  0.28421465968E-02  0.16176053595E-01  0.89814243398E-01  0.91304994088E-01  0.51100000000E-03 0.  1.
</event>
<event>
 8    1  0.1091347E+005  0.1043930E+01  0.7957747E-01            NaN
         13   -1    0    0    0    0  0.00000000000E+00  0.00000000000E+00  0.74505805969E-08  0.10566000000E+00  0.10566000000E+00 0. -1.
     999900   -1    0    0    0    0 -0.00000000000E+00 -0.00000000000E+00 -0.74505805969E-08  0.93827000000E+00  0.93827000000E+00 0. -1.
     999902    2    1    2    0    0  0.22491745394E-01  0.11986530798E-02 -0.99006075193E-02  0.10193263944E+01  0.10190294210E+01 0.  0.
     999903    2    3    3    0    0  0.74804956415E-01 -0.10493643673E+00  0.14363637191E-01  0.13107525709E+00  0.19156505158E-01 0.  0.
         14    1    1    2    0    0 -0.22491745394E-01 -0.11986530798E-02  0.99006075193E-02  0.24603605616E-01  0.00000000000E+00 0. -1.
     999901    1    3    3    0    0 -0.52313211022E-01  0.10613508981E+00 -0.24264244710E-01  0.88825113730E+00  0.88000000000E+00 0. -1.
        -11    1    4    4    0    0  0.68475110733E-01 -0.86534832799E-01  0.16150914258E-01  0.11152681843E+00  0.51100000000E-03 0. -1.
         11    1    4    4    0    0  0.63298456823E-02 -0.18401603930E-01 -0.17872770672E-02  0.19548438655E-01  0.51100000000E-03 0.  1.
</event>
<event>
 8    1  0.1091347E+005  0.1043930E+01  0.7957747E-01            NaN
         13   -1    0    0    0    0  0.00000000000E+00  0.00000000000E+00  0.74505805969E-08  0.10566000000E+00  0.10566000000E+00 0. -1.
     999900   -1    0    0    0    0 -0.00000000000E+00 -0.00000000000E+00 -0.74505805969E-08  0.93827000000E+00  0.93827000000E+00 0. -1.
     999902    2    1    2    0    0  0.86106416086E-02  0.19057905511E-01 -0.91202058378E-02  0.10211149816E+01  0.10208600690E+01 0.  0.
     999903    2    3    3    0    0  0.10844026905E+00 -0.27627215755E-01 -0.67793199199E-01  0.13230230434E+00  0.19632291581E-01 0.  0.
         14    1    1    2    0    0 -0.86106416086E-02 -0.19057905511E-01  0.91202058378E-02  0.22815018429E-01  0.00000000000E+00 0.  1.
     999901    1    3    3    0    0 -0.99829627443E-01  0.46685121266E-01  0.58672993362E-01  0.88881267723E+00  0.88000000000E+00 0.  1.
        -11    1    4    4    0    0  0.76452510818E-01 -0.26345972545E-01 -0.41619795078E-01  0.90948145352E-01  0.51100000000E-03 0.  1.
         11    1    4    4    0    0  0.31987758234E-01 -0.12812432104E-02 -0.26173404122E-01  0.41354158984E-01  0.51100000000E-03 0. -1.
</event>
<event>
 8    1  0.1091347E+005  0.1043930E+01  0.7957747E-01            NaN
         13   -1    0    0    0    0  0.00000000000E+00  0.00000000000E+00  0.74505805969E-08  0.10566000000E+00  0.10566000000E+00 0.  1.
     999900   -1    0    0    0    0 -0.00000000000E+00 -0.00000000000E+00 -0.74505805969E-08  0.93827000000E+00  0.93827000000E+00 0.  1.
     999902    2    1    2    0    0  0.20120706276E-01  0.71170251922E-02  0.99516392395E-02  0.10203815395E+01  0.10201097765E+01 0.  0.
     999903    2    3    3    0    0 -0.75704026142E-01 -0.96752716448E-01  0.33030291761E-01  0.12880769131E+00  0.20204787833E-01 0.  0.
         14    1    1    2    0    0 -0.20120706276E-01 -0.71170251922E-02 -0.99516392395E-02  0.23548460506E-01  0.00000000000E+00 0.  1.
     999901    1    3    3    0    0  0.95824732418E-01  0.10386974164E+00 -0.23078652522E-01  0.89157384819E+00  0.88000000000E+00 0.  1.
        -11    1    4    4    0    0 -0.73630643287E-01 -0.95915745380E-01  0.34892525167E-01  0.12585329267E+00  0.51100000000E-03 0.  1.
         11    1    4    4    0    0 -0.20733828556E-02 -0.83697106829E-03 -0.18622334057E-02  0.29543986346E-02  0.51100000000E-03 0. -1.
</event>
<event>
 8    1  0.1091347E+005  0.1043930E+01  0.7957747E-01            NaN
         13   -1    0    0    0    0  0.00000000000E+00  0.00000000000E+00  0.74505805969E-08  0.10566000000E+00  0.10566000000E+00 0.  1.
     999900   -1    0    0    0    0 -0.00000000000E+00 -0.00000000000E+00 -0.74505805969E-08  0.93827000000E+00  0.93827000000E+00 0.  1.
     999902    2    1    2    0    0  0.19150197866E-01  0.27936818302E-02  0.81416327893E-02  0.10229342642E+01  0.10227187727E+01 0.  0.
     999903    2    3    3    0    0 -0.27654943062E-01  0.95963369476E-01 -0.83991607447E-01  0.13200225454E+00  0.19905801309E-01 0.  0.
         14    1    1    2    0    0 -0.19150197866E-01 -0.27936818302E-02 -0.81416327893E-02  0.20995735780E-01  0.00000000000E+00 0.  1.
     999901    1    3    3    0    0  0.46805140927E-01 -0.93169687645E-01  0.92133240236E-01  0.89093200968E+00  0.88000000000E+00 0. -1.
        -11    1    4    4    0    0 -0.22057928265E-01  0.63502177027E-01 -0.67088660768E-01  0.94974882001E-01  0.51100000000E-03 0. -1.
         11    1    4    4    0    0 -0.55970147964E-02  0.32461192449E-01 -0.16902946679E-01  0.37027372541E-01  0.51100000000E-03 0.  1.
</event>
<event>
 8    1  0.1091347E+005  0.1043930E+01  0.7957747E-01            NaN
         13   -1    0    0    0    0  0.00000000000E+00  0.00000000000E+00  0.74505805969E-08  0.10566000000E+00  0.10566000000E+00 0. -1.
     999900   -1    0    0    0    0 -0.00000000000E+00 -0.00000000000E+00 -0.74505805969E-08  0.93827000000E+00  0.93827000000E+00 0. -1.
     999902    2    1    2    0    0  0.21475268169E-01  0.14257356101E-01 -0.10954415157E-01  0.10159218127E+01  0.10155356571E+01 0.  0.
     999903    2    3    3    0    0  0.10318746521E+00 -0.58096187904E-02  0.72709737811E-01  0.12795826775E+00  0.20129770589E-01 0.  0.
         14    1    1    2    0    0 -0.21475268169E-01 -0.14257356101E-01  0.10954415157E-01  0.28008187327E-01  0.00000000000E+00 0.  1.
     999901    1    3    3    0    0 -0.81712197046E-01  0.20066974891E-01 -0.83664152968E-01  0.88796354493E+00  0.88000000000E+00 0. -1.
        -11    1    4    4    0    0  0.21502398456E-01  0.67737492095E-02  0.13415833854E-01  0.26238950755E-01  0.51100000000E-03 0. -1.
         11    1    4    4    0    0  0.81685066759E-01 -0.12583368000E-01  0.59293903957E-01  0.10171931699E+00  0.51100000000E-03 0.  1.
</event>
<event>
 8    1  0.1091347E+005  0.1043930E+01  0.7957747E-01            NaN
         13   -1    0    0    0    0  0.00000000000E+00  0.00000000000E+00  0.74505805969E-08  0.10566000000E+00  0.10566000000E+00 0.  1.
     999900   -1    0    0    0    0 -0.00000000000E+00 -0.00000000000E+00 -0.74505805969E-08  0.93827000000E+00  0.93827000000E+00 0.  1.
     999902    2    1    2    0    0  0.26438291872E-01 -0.75801150271E-02 -0.94308481679E-04  0.10164263582E+01  0.10160541773E+01 0.  0.
     999903    2    3    3    0    0  0.45198522209E-01 -0.93844752340E-01 -0.72990605423E-01  0.12901021901E+00  0.21593151187E-01 0.  0.
         14    1    1    2    0    0 -0.26438291872E-01  0.75801150271E-02  0.94308481679E-04  0.27503641850E-01  0.00000000000E+00 0. -1.
     999901    1    3    3    0    0 -0.18760230338E-01  0.86264637313E-01  0.72896296942E-01  0.88741613914E+00  0.88000000000E+00 0. -1.
        -11    1    4    4    0    0 -0.15263603142E-02 -0.12176657991E-01 -0.81227047271E-02  0.14725495873E-01  0.51100000000E-03 0.  1.
         11    1    4    4    0    0  0.46724882523E-01 -0.81668094349E-01 -0.64867900696E-01  0.11428472314E+00  0.51100000000E-03 0. -1.
</event>
<event>
 8    1  0.1091347E+005  0.1043930E+01  0.7957747E-01            NaN
         13   -1    0    0    0    0  0.00000000000E+00  0.00000000000E+00  0.74505805969E-08  0.10566000000E+00  0.10566000000E+00 0.  1.
     999900   -1    0    0    0    0 -0.00000000000E+00 -0.00000000000E+00 -0.74505805969E-08  0.93827000000E+00  0.93827000000E+00 0. -1.
     999902    2    1    2    0    0 -0.10922771359E-02 -0.21266982472E-01  0.12331814244E-01  0.10193220489E+01  0.10190249694E+01 0.  0.
     999903    2    3    3    0    0  0.12801609925E-01 -0.17479976580E-02  0.12903864343E+00  0.13129360635E+00  0.20496410856E-01 0.  0.
         14    1    1    2    0    0  0.10922771359E-02  0.21266982472E-01 -0.12331814244E-01  0.24607951060E-01  0.00000000000E+00 0. -1.
     999901    1    3    3    0    0 -0.13893887060E-01 -0.19518984814E-01 -0.11670682919E+00  0.88802844259E+00  0.88000000000E+00 0. -1.
        -11    1    4    4    0    0  0.15127815202E-01 -0.53693859089E-02  0.59791641137E-01  0.61911085992E-01  0.51100000000E-03 0.  1.
         11    1    4    4    0    0 -0.23262052775E-02  0.36213882509E-02  0.69247002294E-01  0.69382520361E-01  0.51100000000E-03 0. -1.
</event>
<event>
 8    1  0.1091347E+005  0.1043930E+01  0.7957747E-01            NaN
         13   -1    0    0    0    0  0.00000000000E+00  0.00000000000E+00  0.74505805969E-08  0.10566000000E+00  0.10566000000E+00 0. -1.
     999900   -1    0    0    0    0 -0.00000000000E+00 -0.00000000000E+00 -0.74505805969E-08  0.93827000000E+00  0.93827000000E+00 0. -1.
     999902    2    1    2    0    0  0.23065356647E-01 -0.21735508308E-02 -0.58716745230E-02  0.10200299673E+01  0.10197499314E+01 0.  0.
     999903    2    3    3    0    0  0.47216704776E-01 -0.43296140292E-01 -0.11371315380E+00  0.13216503410E+00  0.20807256395E-01 0.  0.
         14    1    1    2    0    0 -0.23065356647E-01  0.21735508308E-02  0.58716745230E-02  0.23900032681E-01  0.00000000000E+00 0.  1.
     999901    1    3    3    0    0 -0.24151348129E-01  0.41122589462E-01  0.10784147928E+00  0.88786493321E+00  0.88000000000E+00 0. -1.
        -11    1    4    4    0    0  0.15437604942E-01 -0.24132811619E-01 -0.35720341705E-01  0.45792097305E-01  0.51100000000E-03 0. -1.
         11    1    4    4    0    0  0.31779099834E-01 -0.19163328673E-01 -0.77992812093E-01  0.86372936799E-01  0.51100000000E-03 0.  1.
</event>
<event>
 8    1  0.1091347E+005  0.1043930E+01  0.7957747E-01            NaN
         13   -1    0    0    0    0  0.00000000000E+00  0.00000000000E+00  0.74505805969E-08  0.10566000000E+00  0.10566000000E+00 0. -1.
     999900   -1    0    0    0    0 -0.00000000000E+00 -0.00000000000E+00 -0.74505805969E-08  0.93827000000E+00  0.93827000000E+00 0.  1.
     999902    2    1    2    0    0  0.96351164919E-02  0.61310793907E-03 -0.20769961853E-01  0.10210257933E+01  0.10207688611E+01 0.  0.
     999903    2    3    3    0    0  0.32882023633E-01 -0.11165506721E+00  0.55154843070E-01  0.13034676137E+00  0.20003499007E-01 0.  0.
         14    1    1    2    0    0 -0.96351164919E-02 -0.61310793907E-03  0.20769961853E-01  0.22904206743E-01  0.00000000000E+00 0. -1.
     999901    1    3    3    0    0 -0.23246907141E-01  0.11226817515E+00 -0.75924804923E-01  0.89067903189E+00  0.88000000000E+00 0.  1.
        -11    1    4    4    0    0  0.13345709580E-01 -0.63678039009E-01  0.39979854798E-01  0.76365244233E-01  0.51100000000E-03 0.  1.
         11    1    4    4    0    0  0.19536314052E-01 -0.47977028205E-01  0.15174988272E-01  0.53981517135E-01  0.51100000000E-03 0. -1.
</event>
<event>
 8    1  0.1091347E+005  0.1043930E+01  0.7957747E-01            NaN
         13   -1    0    0    0    0  0.00000000000E+00  0.00000000000E+00  0.74505805969E-08  0.10566000000E+00  0.10566000000E+00 0. -1.
     999900   -1    0    0    0    0 -0.00000000000E+00 -0.00000000000E+00 -0.74505805969E-08  0.93827000000E+00  0.93827000000E+00 0. -1.
     999902    2    1    2    0    0 -0.49733016374E-02  0.35740041932E-02 -0.23288962894E-01  0.10198492395E+01  0.10195649014E+01 0.  0.
     999903    2    3    3    0    0  0.11260614701E+00  0.42436864607E-01  0.35420797770E-01  0.12924153421E+00  0.31108028344E-01 0.  0.
         14    1    1    2    0    0  0.49733016374E-02 -0.35740041932E-02  0.23288962894E-01  0.24080760533E-01  0.00000000000E+00 0. -1.
     999901    1    3    3    0    0 -0.11757944865E+00 -0.38862860414E-01 -0.58709760664E-01  0.89060770526E+00  0.88000000000E+00 0. -1.
        -11    1    4    4    0    0  0.64338830790E-01  0.40376102756E-01  0.22739518963E-01  0.79290993593E-01  0.51100000000E-03 0. -1.
         11    1    4    4    0    0  0.48267316224E-01  0.20607618509E-02  0.12681278807E-01  0.49950540619E-01  0.51100000000E-03 0.  1.
</event>
<event>
 8    1  0.1091347E+005  0.1043930E+01  0.7957747E-01            NaN
         13   -1    0    0    0    0  0.00000000000E+00  0.00000000000E+00  0.74505805969E-08  0.10566000000E+00  0.10566000000E+00 0. -1.
     999900   -1    0    0    0    0 -0.00000000000E+00 -0.00000000000E+00 -0.74505805969E-08  0.93827000000E+00  0.93827000000E+00 0. -1.
     999902    2    1    2    0    0  0.22979011247E-01 -0.46484086246E-02 -0.54808879404E-02  0.10198533974E+01  0.10195691587E+01 0.  0.
     999903    2    3    3    0    0  0.11796588681E+00  0.51509833356E-01  0.22774759728E-01  0.13251206718E+00  0.21715084295E-01 0.  0.
         14    1    1    2    0    0 -0.22979011247E-01  0.46484086246E-02  0.54808879404E-02  0.24076602610E-01  0.00000000000E+00 0.  1.
     999901    1    3    3    0    0 -0.94986875559E-01 -0.56158241980E-01 -0.28255647668E-01  0.88734133021E+00  0.88000000000E+00 0.  1.
        -11    1    4    4    0    0  0.32817481431E-01  0.23623698219E-01  0.17424008234E-02  0.40476700541E-01  0.51100000000E-03 0.  1.
         11    1    4    4    0    0  0.85148405374E-01  0.27886135137E-01  0.21032358904E-01  0.92035366641E-01  0.51100000000E-03 0. -1.
</event>
<event>
 8    1  0.1091347E+005  0.1043930E+01  0.7957747E-01            NaN
         13   -1    0    0    0    0  0.00000000000E+00  0.00000000000E+00  0.74505805969E-08  0.10566000000E+00  0.10566000000E+00 0. -1.
     999900   -1    0    0    0    0 -0.00000000000E+00 -0.00000000000E+00 -0.74505805969E-08  0.93827000000E+00  0.93827000000E+00 0.  1.
     999902    2    1    2    0    0 -0.21823074876E-01 -0.35165350947E-02  0.54804468669E-02  0.10211561572E+01  0.10209021743E+01 0.  0.
     999903    2    3    3    0    0  0.88941861362E-01 -0.87695763889E-01 -0.27908763123E-01  0.12960141803E+00  0.20406537941E-01 0.  0.
         14    1    1    2    0    0  0.21823074876E-01  0.35165350947E-02 -0.54804468669E-02  0.22773842758E-01  0.00000000000E+00 0.  1.
     999901    1    3    3    0    0 -0.11076493624E+00  0.84179228794E-01  0.33389209990E-01  0.89155473921E+00  0.88000000000E+00 0.  1.
        -11    1    4    4    0    0  0.52096311482E-01 -0.64923893011E-01 -0.18456764932E-01  0.85264593159E-01  0.51100000000E-03 0. -1.
         11    1    4    4    0    0  0.36845549880E-01 -0.22771870878E-01 -0.94519981918E-02  0.44336824876E-01  0.51100000000E-03 0.  1.
</event>
<event>
 8    1  0.1091347E+005  0.1043930E+01  0.7957747E-01            NaN
         13   -1    0    0    0    0  0.00000000000E+00  0.00000000000E+00  0.74505805969E-08  0.10566000000E+00  0.10566000000E+00 0. -1.
     999900   -1    0    0    0    0 -0.00000000000E+00 -0.00000000000E+00 -0.74505805969E-08  0.93827000000E+00  0.93827000000E+00 0. -1.
     999902    2    1    2    0    0  0.19405465580E-01  0.75403276407E-02 -0.12366933290E-01  0.10197149288E+01  0.10194273718E+01 0.  0.
     999903    2    3    3    0    0  0.25196981141E-01 -0.90013234577E-01 -0.89220329406E-01  0.13097611245E+00  0.21382343075E-01 0.  0.
         14    1    1    2    0    0 -0.19405465580E-01 -0.75403276407E-02  0.12366933290E-01  0.24215071222E-01  0.00000000000E+00 0.  1.
     999901    1    3    3    0    0 -0.57915155615E-02  0.97553562218E-01  0.76853396117E-01  0.88873881633E+00  0.88000000000E+00 0. -1.
        -11    1    4    4    0    0 -0.37115233732E-03 -0.36045539558E-01 -0.36739889600E-01  0.51473287100E-01  0.51100000000E-03 0. -1.
         11    1    4    4    0    0  0.25568133479E-01 -0.53967695019E-01 -0.52480439807E-01  0.79502825349E-01  0.51100000000E-03 0.  1.
</event>
<event>
 8    1  0.1091347E+005  0.1043930E+01  0.7957747E-01            NaN
         13   -1    0    0    0    0  0.00000000000E+00  0.00000000000E+00  0.74505805969E-08  0.10566000000E+00  0.10566000000E+00 0. -1.
     999900   -1    0    0    0    0 -0.00000000000E+00 -0.00000000000E+00 -0.74505805969E-08  0.93827000000E+00  0.93827000000E+00 0. -1.
     999902    2    1    2    0    0  0.59342485122E-02 -0.13472794826E-01 -0.14405515697E-01  0.10233326606E+01  0.10231253511E+01 0.  0.
     999903    2    3    3    0    0 -0.10887134926E+00  0.20318938741E-03  0.70977985782E-01  0.13167257959E+00  0.21137213044E-01 0.  0.
         14    1    1    2    0    0 -0.59342485122E-02  0.13472794826E-01  0.14405515697E-01  0.20597339351E-01  0.00000000000E+00 0. -1.
     999901    1    3    3    0    0  0.11480559777E+00 -0.13675984213E-01 -0.85383501479E-01  0.89166008106E+00  0.88000000000E+00 0. -1.
        -11    1    4    4    0    0 -0.33427393843E-01 -0.85129610725E-02  0.27828925468E-01  0.44323485638E-01  0.51100000000E-03 0. -1.
         11    1    4    4    0    0 -0.75443955417E-01  0.87161504599E-02  0.43149060315E-01  0.87349093956E-01  0.51100000000E-03 0.  1.
</event>
<event>
 8    1  0.1091347E+005  0.1043930E+01  0.7957747E-01            NaN
         13   -1    0    0    0    0  0.00000000000E+00  0.00000000000E+00  0.74505805969E-08  0.10566000000E+00  0.10566000000E+00 0. -1.
     999900   -1    0    0    0    0 -0.00000000000E+00 -0.00000000000E+00 -0.74505805969E-08  0.93827000000E+00  0.93827000000E+00 0.  1.
     999902    2    1    2    0    0 -0.88127324899E-02 -0.18090253595E-01 -0.11711019222E-01  0.10206476139E+01  0.10203820277E+01 0.  0.
     999903    2    3    3    0    0 -0.43770593114E-02  0.24036210280E-01  0.12463740489E+00  0.12914034706E+00  0.23363400617E-01 0.  0.
         14    1    1    2    0    0  0.88127324899E-02  0.18090253595E-01  0.11711019222E-01  0.23282386053E-01  0.00000000000E+00 0. -1.
     999901    1    3    3    0    0 -0.44356731785E-02 -0.42126463875E-01 -0.13634842411E+00  0.89150726689E+00  0.88000000000E+00 0.  1.
        -11    1    4    4    0    0  0.91235437545E-02  0.14234797437E-01  0.55751366414E-01  0.58261003139E-01  0.51100000000E-03 0. -1.
         11    1    4    4    0    0 -0.13500603066E-01  0.98014128429E-02  0.68886038475E-01  0.70879343921E-01  0.51100000000E-03 0.  1.
</event>
<event>
 8    1  0.1091347E+005  0.1043930E+01  0.7957747E-01            NaN
         13   -1    0    0    0    0  0.00000000000E+00  0.00000000000E+00  0.74505805969E-08  0.10566000000E+00  0.10566000000E+00 0. -1.
     999900   -1    0    0    0    0 -0.00000000000E+00 -0.00000000000E+00 -0.74505805969E-08  0.93827000000E+00  0.93827000000E+00 0. -1.
     999902    2    1    2    0    0 -0.92061542132E-02 -0.20799186828E-01 -0.15885630105E-02  0.10211290575E+01  0.10208744629E+01 0.  0.
     999903    2    3    3    0    0  0.33786350577E-01 -0.87713340067E-01 -0.91592094959E-01  0.13297000913E+00  0.21372036831E-01 0.  0.
         14    1    1    2    0    0  0.92061542132E-02  0.20799186828E-01  0.15885630105E-02  0.22800942536E-01  0.00000000000E+00 0. -1.
     999901    1    3    3    0    0 -0.42992504790E-01  0.66914153239E-01  0.90003531949E-01  0.88815904833E+00  0.88000000000E+00 0.  1.
        -11    1    4    4    0    0  0.30132644690E-01 -0.70799458113E-01 -0.62564289518E-01  0.99172027250E-01  0.51100000000E-03 0.  1.
         11    1    4    4    0    0  0.36537058870E-02 -0.16913881954E-01 -0.29027805441E-01  0.33797981881E-01  0.51100000000E-03 0. -1.
</event>
<event>
 8    1  0.1091347E+005  0.1043930E+01  0.7957747E-01            NaN
         13   -1    0    0    0    0  0.00000000000E+00  0.00000000000E+00  0.74505805969E-08  0.10566000000E+00  0.10566000000E+00 0.  1.
     999900   -1    0    0    0    0 -0.00000000000E+00 -0.00000000000E+00 -0.74505805969E-08  0.93827000000E+00  0.93827000000E+00 0. -1.
     999902    2    1    2    0    0  0.53261829484E-02 -0.76921305965E-02  0.21212315977E-01  0.10207459657E+01  0.10204826442E+01 0.  0.
     999903    2    3    3    0    0 -0.12568748822E+00 -0.25776884153E-01 -0.52144162684E-02  0.13047072032E+00  0.23100352158E-01 0.  0.
         14    1    1    2    0    0 -0.53261829484E-02  0.76921305965E-02 -0.21212315977E-01  0.23184034313E-01  0.00000000000E+00 0. -1.
     999901    1    3    3    0    0  0.13101367117E+00  0.18084753557E-01  0.26426732245E-01  0.89027524537E+00  0.88000000000E+00 0.  1.
        -11    1    4    4    0    0 -0.99545351173E-01 -0.12051344771E-01 -0.90996079261E-02  0.10068552943E+00  0.51100000000E-03 0. -1.
         11    1    4    4    0    0 -0.26142137051E-01 -0.13725539382E-01  0.38851916577E-02  0.29785190886E-01  0.51100000000E-03 0.  1.
</event>
<event>
 8    1  0.1091347E+005  0.1043930E+01  0.7957747E-01            NaN
         13   -1    0    0    0    0  0.00000000000E+00  0.00000000000E+00  0.74505805969E-08  0.10566000000E+00  0.10566000000E+00 0. -1.
     999900   -1    0    0    0    0 -0.00000000000E+00 -0.00000000000E+00 -0.74505805969E-08  0.93827000000E+00  0.93827000000E+00 0.  1.
     999902    2    1    2    0    0  0.29866030977E-02  0.23790883080E-01  0.44342440403E-02  0.10195458159E+01  0.10192541794E+01 0.  0.
     999903    2    3    3    0    0 -0.59537236230E-01 -0.10698323796E+00  0.29353484402E-01  0.12733952259E+00  0.19069118097E-01 0.  0.
         14    1    1    2    0    0 -0.29866030977E-02 -0.23790883080E-01 -0.44342440403E-02  0.24384184137E-01  0.00000000000E+00 0.  1.
     999901    1    3    3    0    0  0.62523839328E-01  0.13077412104E+00 -0.24919240362E-01  0.89220629327E+00  0.88000000000E+00 0.  1.
        -11    1    4    4    0    0 -0.31466107254E-01 -0.42814409602E-01  0.19531794609E-01  0.56612204488E-01  0.51100000000E-03 0. -1.
         11    1    4    4    0    0 -0.28071128976E-01 -0.64168828355E-01  0.98216897927E-02  0.70727318102E-01  0.51100000000E-03 0.  1.
</event>
<event>
 8    1  0.1091347E+005  0.1043930E+01  0.7957747E-01            NaN
         13   -1    0    0    0    0  0.00000000000E+00  0.00000000000E+00  0.74505805969E-08  0.10566000000E+00  0.10566000000E+00 0. -1.
     999900   -1    0    0    0    0 -0.00000000000E+00 -0.00000000000E+00 -0.74505805969E-08  0.93827000000E+00  0.93827000000E+00 0. -1.
     999902    2    1    2    0    0 -0.16073635838E-01  0.14402168488E-02 -0.17101488037E-01  0.10204162405E+01  0.10201452872E+01 0.  0.
     999903    2    3    3    0    0 -0.69782344957E-01  0.10420693371E+00 -0.37817004394E-01  0.13256785469E+00  0.20382580196E-01 0.  0.
         14    1    1    2    0    0  0.16073635838E-01 -0.14402168488E-02  0.17101488037E-01  0.23513759519E-01  0.00000000000E+00 0. -1.
     999901    1    3    3    0    0  0.53708709119E-01 -0.10276671686E+00  0.20715516357E-01  0.88784838579E+00  0.88000000000E+00 0.  1.
        -11    1    4    4    0    0 -0.37058991781E-01  0.66060778291E-01 -0.14335842947E-01  0.77091976328E-01  0.51100000000E-03 0. -1.
         11    1    4    4    0    0 -0.32723353176E-01  0.38146155419E-01 -0.23481161447E-01  0.55475878364E-01  0.51100000000E-03 0.  1.
</event>
<event>
 8    1  0.1091347E+005  0.1043930E+01  0.7957747E-01            NaN
         13   -1    0    0    0    0  0.00000000000E+00  0.00000000000E+00  0.74505805969E-08  0.10566000000E+00  0.10566000000E+00 0. -1.
     999900   -1    0    0    0    0 -0.00000000000E+00 -0.00000000000E+00 -0.74505805969E-08  0.93827000000E+00  0.93827000000E+00 0.  1.
     999902    2    1    2    0    0  0.79944982003E-02  0.56533556750E-02  0.22593366240E-01  0.10193061776E+01  0.10190087100E+01 0.  0.
     999903    2    3    3    0    0 -0.38676838797E-01  0.97995191568E-01 -0.70735589086E-01  0.12834292231E+00  0.19220476455E-01 0.  0.
         14    1    1    2    0    0 -0.79944982003E-02 -0.56533556750E-02 -0.22593366240E-01  0.24623822407E-01  0.00000000000E+00 0.  1.
     999901    1    3    3    0    0  0.46671336997E-01 -0.92341835893E-01  0.93328955327E-01  0.89096325528E+00  0.88000000000E+00 0.  1.
        -11    1    4    4    0    0  0.14877952617E-02  0.89575080998E-02 -0.34258685546E-02  0.97184454751E-02  0.51100000000E-03 0. -1.
         11    1    4    4    0    0 -0.40164634059E-01  0.89037683468E-01 -0.67309720532E-01  0.11862447684E+00  0.51100000000E-03 0.  1.
</event>
<event>
 8    1  0.1091347E+005  0.1043930E+01  0.7957747E-01            NaN
         13   -1    0    0    0    0  0.00000000000E+00  0.00000000000E+00  0.74505805969E-08  0.10566000000E+00  0.10566000000E+00 0.  1.
     999900   -1    0    0    0    0 -0.00000000000E+00 -0.00000000000E+00 -0.74505805969E-08  0.93827000000E+00  0.93827000000E+00 0.  1.
     999902    2    1    2    0    0  0.17857569888E-01 -0.15352090803E-01 -0.48876144379E-02  0.10198786327E+01  0.10195949966E+01 0.  0.
     999903    2    3    3    0    0 -0.43910462847E-01 -0.57016944272E-01  0.10615619704E+00  0.12977640376E+00  0.19842281200E-01 0.  0.
         14    1    1    2    0    0 -0.17857569888E-01  0.15352090803E-01  0.48876144379E-02  0.24051367304E-01  0.00000000000E+00 0.  1.
     999901    1    3    3    0    0  0.61768032735E-01  0.41664853469E-01 -0.11104381147E+00  0.89010222893E+00  0.88000000000E+00 0.  1.
        -11    1    4    4    0    0 -0.22694991954E-01 -0.16769630302E-01  0.50872052449E-01  0.58176541678E-01  0.51100000000E-03 0.  1.
         11    1    4    4    0    0 -0.21215470893E-01 -0.40247313969E-01  0.55284144587E-01  0.71599862086E-01  0.51100000000E-03 0. -1.
</event>
<event>
 7    1  0.1091347E+005  0.1043930E+01  0.7957747E-01            NaN
         13   -1    0    0    0    0  0.00000000000E+00  0.00000000000E+00  0.74505805969E-08  0.10566000000E+00  0.10566000000E+00 0. -1.
     999900   -1    0    0    0    0 -0.00000000000E+00 -0.00000000000E+00 -0.74505805969E-08  0.93827000000E+00  0.93827000000E+00 0. -1.
     999903    2    1    2    0    0 -0.21485134247E-01  0.44481319732E-01  0.13790734503E-01  0.58070168029E-01  0.27235294345E-01 0.  0.
         14    1    1    2    0    0 -0.92433208158E-01  0.21423438077E-01  0.12382769984E-01  0.95688006886E-01  0.00000000000E+00 0.  1.
     999901    1    1    2    0    0  0.11391834240E+00 -0.65904757809E-01 -0.26173504487E-01  0.89017182509E+00  0.88000000000E+00 0.  1.
        -11    1    3    3    0    0 -0.26023678890E-02  0.33656594181E-01  0.33560535736E-02  0.33927317417E-01  0.51100000000E-03 0.  1.
         11    1    3    3    0    0 -0.18882766358E-01  0.10824725551E-01  0.10434680930E-01  0.24142850612E-01  0.51100000000E-03 0. -1.
</event>
<event>
 8    1  0.1091347E+005  0.1043930E+01  0.7957747E-01            NaN
         13   -1    0    0    0    0  0.00000000000E+00  0.00000000000E+00  0.74505805969E-08  0.10566000000E+00  0.10566000000E+00 0. -1.
     999900   -1    0    0    0    0 -0.00000000000E+00 -0.00000000000E+00 -0.74505805969E-08  0.93827000000E+00  0.93827000000E+00 0.  1.
     999902    2    1    2    0    0  0.20658695309E-01 -0.30409914868E-02 -0.31885422695E-02  0.10228066451E+01  0.10225884984E+01 0.  0.
     999903    2    3    3    0    0  0.98849877046E-01  0.87012569299E-01 -0.20329073783E-01  0.13459647709E+00  0.18985652355E-01 0.  0.
         14    1    1    2    0    0 -0.20658695309E-01  0.30409914868E-02  0.31885422695E-02  0.21123354916E-01  0.00000000000E+00 0.  1.
     999901    1    3    3    0    0 -0.78191181737E-01 -0.90053560786E-01  0.17140531513E-01  0.88821016800E+00  0.88000000000E+00 0.  1.
        -11    1    4    4    0    0  0.16965702208E-01  0.21450243083E-01  0.17135889049E-02  0.27407033544E-01  0.51100000000E-03 0.  1.
         11    1    4    4    0    0  0.81884174838E-01  0.65562326216E-01 -0.22042662687E-01  0.10718944354E+00  0.51100000000E-03 0. -1.
</event>
<event>
 8    1  0.1091347E+005  0.1043930E+01  0.7957747E-01            NaN
         13   -1    0    0    0    0  0.00000000000E+00  0.00000000000E+00  0.74505805969E-08  0.10566000000E+00  0.10566000000E+00 0. -1.
     999900   -1    0    0    0    0 -0.00000000000E+00 -0.00000000000E+00 -0.74505805969E-08  0.93827000000E+00  0.93827000000E+00 0. -1.
     999902    2    1    2    0    0 -0.10935491081E-01 -0.69171378810E-02  0.19503768014E-01  0.10205242586E+01  0.10202558178E+01 0.  0.
     999903    2    3    3    0    0 -0.32213005488E-01  0.10522767425E+00 -0.64860227682E-01  0.12915089396E+00  0.19041090394E-01 0.  0.
         14    1    1    2    0    0  0.10935491081E-01  0.69171378810E-02 -0.19503768014E-01  0.23405741355E-01  0.00000000000E+00 0. -1.
     999901    1    3    3    0    0  0.21277514407E-01 -0.11214481213E+00  0.84363995697E-01  0.89137336469E+00  0.88000000000E+00 0.  1.
        -11    1    4    4    0    0 -0.64422857691E-03  0.23874851646E-01 -0.19285213599E-01  0.30701859164E-01  0.51100000000E-03 0. -1.
         11    1    4    4    0    0 -0.31568776911E-01  0.81352822606E-01 -0.45575014084E-01  0.98449034791E-01  0.51100000000E-03 0.  1.
</event>
<event>
 8    1  0.1091347E+005  0.1043930E+01  0.7957747E-01            NaN
         13   -1    0    0    0    0  0.00000000000E+00  0.00000000000E+00  0.74505805969E-08  0.10566000000E+00  0.10566000000E+00 0.  1.
     999900   -1    0    0    0    0 -0.00000000000E+00 -0.00000000000E+00 -0.74505805969E-08  0.93827000000E+00  0.93827000000E+00 0. -1.
     999902    2    1    2    0    0 -0.10476342620E-01 -0.25453311979E-01  0.24986077177E-02  0.10162918400E+01  0.10159159592E+01 0.  0.
     999903    2    3    3    0    0 -0.81980625543E-01 -0.57040441998E-01  0.79663619005E-01  0.12946319356E+00  0.20975969704E-01 0.  0.
         14    1    1    2    0    0  0.10476342620E-01  0.25453311979E-01 -0.24986077177E-02  0.27638159959E-01  0.00000000000E+00 0. -1.
     999901    1    3    3    0    0  0.71504282923E-01  0.31587130019E-01 -0.77165011287E-01  0.88682864648E+00  0.88000000000E+00 0.  1.
        -11    1    4    4    0    0 -0.67303655342E-01 -0.38827279809E-01  0.53359060949E-01  0.94259164997E-01  0.51100000000E-03 0.  1.
         11    1    4    4    0    0 -0.14676970201E-01 -0.18213162189E-01  0.26304558057E-01  0.35204028559E-01  0.51100000000E-03 0. -1.
</event>
<event>
 8    1  0.1091347E+005  0.1043930E+01  0.7957747E-01            NaN
         13   -1    0    0    0    0  0.00000000000E+00  0.00000000000E+00  0.74505805969E-08  0.10566000000E+00  0.10566000000E+00 0.  1.
     999900   -1    0    0    0    0 -0.00000000000E+00 -0.00000000000E+00 -0.74505805969E-08  0.93827000000E+00  0.93827000000E+00 0.  1.
     999902    2    1    2    0    0  0.88277179449E-02  0.75775980309E-02  0.19726563494E-01  0.10210283428E+01  0.10207714685E+01 0.  0.
     999903    2    3    3    0    0 -0.95158558774E-01 -0.65484239519E-01  0.58480158582E-01  0.13105473700E+00  0.20299709597E-01 0.  0.
         14    1    1    2    0    0 -0.88277179449E-02 -0.75775980309E-02 -0.19726563494E-01  0.22901657217E-01  0.00000000000E+00 0. -1.
     999901    1    3    3    0    0  0.10398627672E+00  0.73061837549E-01 -0.38753595089E-01  0.88997360578E+00  0.88000000000E+00 0.  1.
        -11    1    4    4    0    0 -0.44124199311E-01 -0.41412121071E-01  0.25283404356E-01  0.65585214746E-01  0.51100000000E-03 0.  1.
         11    1    4    4    0    0 -0.51034359464E-01 -0.24072118447E-01  0.33196754226E-01  0.65469522257E-01  0.51100000000E-03 0. -1.
</event>
<event>
 8    1  0.1091347E+005  0.1043930E+01  0.7957747E-01            NaN
         13   -1    0    0    0    0  0.00000000000E+00  0.00000000000E+00  0.74505805969E-08  0.10566000000E+00  0.10566000000E+00 0. -1.
     999900   -1    0    0    0    0 -0.00000000000E+00 -0.00000000000E+00 -0.74505805969E-08  0.93827000000E+00  0.93827000000E+00 0.  1.
     999902    2    1    2    0    0 -0.18875856550E-02  0.21462952899E-01  0.10852309446E-01  0.10198054493E+01  0.10195200638E+01 0.  0.
     999903    2    3    3    0    0 -0.10826501913E+00 -0.85460480180E-02  0.70123593529E-01  0.13091300157E+00  0.20652997529E-01 0.  0.
         14    1    1    2    0    0  0.18875856550E-02 -0.21462952899E-01 -0.10852309446E-01  0.24124550712E-01  0.00000000000E+00 0.  1.
     999901    1    3    3    0    0  0.10637743348E+00  0.30009000917E-01 -0.59271284083E-01  0.88889244772E+00  0.88000000000E+00 0. -1.
        -11    1    4    4    0    0 -0.82656513371E-01 -0.14150438595E-01  0.58400144140E-01  0.10219183955E+00  0.51100000000E-03 0. -1.
         11    1    4    4    0    0 -0.25608505761E-01  0.56043905773E-02  0.11723449389E-01  0.28721162017E-01  0.51100000000E-03 0.  1.
</event>
<event>
 8    1  0.1091347E+005  0.1043930E+01  0.7957747E-01            NaN
         13   -1    0    0    0    0  0.00000000000E+00  0.00000000000E+00  0.74505805969E-08  0.10566000000E+00  0.10566000000E+00 0.  1.
     999900   -1    0    0    0    0 -0.00000000000E+00 -0.00000000000E+00 -0.74505805969E-08  0.93827000000E+00  0.93827000000E+00 0.  1.
     999902    2    1    2    0    0  0.17271249928E-01 -0.13325480598E-01  0.27104567285E-02  0.10219479372E+01  0.10217114932E+01 0.  0.
     999903    2    3    3    0    0 -0.73141055357E-01  0.20799794991E-01 -0.10434304129E+00  0.13020841764E+00  0.16867611242E-01 0.  0.
         14    1    1    2    0    0 -0.17271249928E-01  0.13325480598E-01 -0.27104567285E-02  0.21982062754E-01  0.00000000000E+00 0. -1.
     999901    1    3    3    0    0  0.90412305285E-01 -0.34125275589E-01  0.10705349802E+00  0.89173951960E+00  0.88000000000E+00 0. -1.
        -11    1    4    4    0    0 -0.39347949302E-01  0.19539088034E-01 -0.55152946267E-01  0.70513443246E-01  0.51100000000E-03 0. -1.
         11    1    4    4    0    0 -0.33793106055E-01  0.12607069572E-02 -0.49190095025E-01  0.59694974398E-01  0.51100000000E-03 0.  1.
</event>
<event>
 8    1  0.1091347E+005  0.1043930E+01  0.7957747E-01            NaN
         13   -1    0    0    0    0  0.00000000000E+00  0.00000000000E+00  0.74505805969E-08  0.10566000000E+00  0.10566000000E+00 0. -1.
     999900   -1    0    0    0    0 -0.00000000000E+00 -0.00000000000E+00 -0.74505805969E-08  0.93827000000E+00  0.93827000000E+00 0. -1.
     999902    2    1    2    0    0 -0.76961171126E-02  0.17407792042E-01  0.14453187322E-01  0.10200311284E+01  0.10197511200E+01 0.  0.
     999903    2    3    3    0    0  0.53707918917E-01  0.11898606743E+00  0.45857485837E-03  0.13195204919E+00  0.19206983044E-01 0.  0.
         14    1    1    2    0    0  0.76961171126E-02 -0.17407792042E-01 -0.14453187322E-01  0.23898871650E-01  0.00000000000E+00 0. -1.
     999901    1    3    3    0    0 -0.61404036029E-01 -0.10157827538E+00  0.13994612464E-01  0.88807907916E+00  0.88000000000E+00 0.  1.
        -11    1    4    4    0    0  0.47588532014E-01  0.86739013781E-01  0.33863876050E-02  0.98995220254E-01  0.51100000000E-03 0. -1.
         11    1    4    4    0    0  0.61193869026E-02  0.32247053644E-01 -0.29278127467E-02  0.32956828933E-01  0.51100000000E-03 0.  1.
</event>
<event>
 8    1  0.1091347E+005  0.1043930E+01  0.7957747E-01            NaN
         13   -1    0    0    0    0  0.00000000000E+00  0.00000000000E+00  0.74505805969E-08  0.10566000000E+00  0.10566000000E+00 0. -1.
     999900   -1    0    0    0    0 -0.00000000000E+00 -0.00000000000E+00 -0.74505805969E-08  0.93827000000E+00  0.93827000000E+00 0.  1.
     999902    2    1    2    0    0 -0.14469696762E-01 -0.23669432689E-02 -0.15473577421E-01  0.10226131958E+01  0.10223909927E+01 0.  0.
     999903    2    3    3    0    0  0.48617410203E-01 -0.81486113400E-01 -0.91828991883E-01  0.13352941148E+00  0.19846932474E-01 0.  0.
         14    1    1    2    0    0  0.14469696762E-01  0.23669432689E-02  0.15473577421E-01  0.21316804241E-01  0.00000000000E+00 0. -1.
     999901    1    3    3    0    0 -0.63087106965E-01  0.79119170131E-01  0.76355414461E-01  0.88908378428E+00  0.88000000000E+00 0. -1.
        -11    1    4    4    0    0  0.34150767763E-01 -0.45238711508E-01 -0.43762590263E-01  0.71611740555E-01  0.51100000000E-03 0. -1.
         11    1    4    4    0    0  0.14466642440E-01 -0.36247401892E-01 -0.48066401619E-01  0.61917670927E-01  0.51100000000E-03 0.  1.
</event>
<event>
 8    1  0.1091347E+005  0.1043930E+01  0.7957747E-01            NaN
         13   -1    0    0    0    0  0.00000000000E+00  0.00000000000E+00  0.74505805969E-08  0.10566000000E+00  0.10566000000E+00 0. -1.
     999900   -1    0    0    0    0 -0.00000000000E+00 -0.00000000000E+00 -0.74505805969E-08  0.93827000000E+00  0.93827000000E+00 0. -1.
     999902    2    1    2    0    0 -0.88098275134E-02 -0.10405309276E-01  0.16332724520E-01  0.10226546290E+01  0.10224332979E+01 0.  0.
     999903    2    3    3    0    0 -0.11228022738E+00  0.63491330291E-01  0.30159971723E-01  0.13340886444E+00  0.15820958650E-01 0.  0.
         14    1    1    2    0    0  0.88098275134E-02  0.10405309276E-01 -0.16332724520E-01  0.21275371024E-01  0.00000000000E+00 0.  1.
     999901    1    3    3    0    0  0.10347039987E+00 -0.73896639567E-01 -0.13827247203E-01  0.88924576454E+00  0.88000000000E+00 0. -1.
        -11    1    4    4    0    0 -0.64655320393E-01  0.34147844176E-01  0.93223549004E-02  0.73712638935E-01  0.51100000000E-03 0.  1.
         11    1    4    4    0    0 -0.47624906990E-01  0.29343486114E-01  0.20837616822E-01  0.59696225500E-01  0.51100000000E-03 0. -1.
</event>
<event>
 8    1  0.1091347E+005  0.1043930E+01  0.7957747E-01            NaN
         13   -1    0    0    0    0  0.00000000000E+00  0.00000000000E+00  0.74505805969E-08  0.10566000000E+00  0.10566000000E+00 0. -1.
     999900   -1    0    0    0    0 -0.00000000000E+00 -0.00000000000E+00 -0.74505805969E-08  0.93827000000E+00  0.93827000000E+00 0. -1.
     999902    2    1    2    0    0 -0.62265193307E-03 -0.56766034146E-02 -0.22610272162E-01  0.10206097099E+01  0.10203432482E+01 0.  0.
     999903    2    3    3    0    0 -0.48165886531E-01 -0.11736481004E+00 -0.31316716255E-01  0.13223455448E+00  0.20267940673E-01 0.  0.
         14    1    1    2    0    0  0.62265193307E-03  0.56766034146E-02  0.22610272162E-01  0.23320290071E-01  0.00000000000E+00 0. -1.
     999901    1    3    3    0    0  0.47543234597E-01  0.11168820663E+00  0.87064440932E-02  0.88837515545E+00  0.88000000000E+00 0.  1.
        -11    1    4    4    0    0 -0.18704603757E-01 -0.31807625622E-01 -0.14051200537E-02  0.36929970658E-01  0.51100000000E-03 0. -1.
         11    1    4    4    0    0 -0.29461282773E-01 -0.85557184420E-01 -0.29911596201E-01  0.95304583819E-01  0.51100000000E-03 0.  1.
</event>
<event>
 8    1  0.1091347E+005  0.1043930E+01  0.7957747E-01            NaN
         13   -1    0    0    0    0  0.00000000000E+00  0.00000000000E+00  0.74505805969E-08  0.10566000000E+00  0.10566000000E+00 0.  1.
     999900   -1    0    0    0    0 -0.00000000000E+00 -0.00000000000E+00 -0.74505805969E-08  0.93827000000E+00  0.93827000000E+00 0.  1.
     999902    2    1    2    0    0 -0.10263101433E-01  0.10363209617E-01 -0.17776123688E-01  0.10209361326E+01  0.10206771619E+01 0.  0.
     999903    2    3    3    0    0 -0.97779739612E-02  0.12950934603E+00 -0.20799624258E-01  0.13290168579E+00  0.19025094781E-01 0.  0.
         14    1    1    2    0    0  0.10263101433E-01 -0.10363209617E-01  0.17776123688E-01  0.22993867399E-01  0.00000000000E+00 0.  1.
     999901    1    3    3    0    0 -0.48512747141E-03 -0.11914613642E+00  0.30235005700E-02  0.88803444681E+00  0.88000000000E+00 0.  1.
        -11    1    4    4    0    0 -0.82973872391E-02  0.99086394325E-01 -0.76713231847E-02  0.99729987946E-01  0.51100000000E-03 0.  1.
         11    1    4    4    0    0 -0.14805867221E-02  0.30422951708E-01 -0.13128301073E-01  0.33171697842E-01  0.51100000000E-03 0. -1.
</event>
<event>
 8    1  0.1091347E+005  0.1043930E+01  0.7957747E-01            NaN
         13   -1    0    0    0    0  0.00000000000E+00  0.00000000000E+00  0.74505805969E-08  0.10566000000E+00  0.10566000000E+00 0. -1.
     999900   -1    0    0    0    0 -0.00000000000E+00 -0.00000000000E+00 -0.74505805969E-08  0.93827000000E+00  0.93827000000E+00 0.  1.
     999902    2    1    2    0    0  0.44857200413E-02 -0.25555232282E-01  0.78719887623E-03  0.10179721252E+01  0.10176411138E+01 0.  0.
     999903    2    3    3    0    0  0.11275722686E+00 -0.29795901212E-01  0.53223421679E-01  0.12977718044E+00  0.20184053336E-01 0.  0.
         14    1    1    2    0    0 -0.44857200413E-02  0.25555232282E-01 -0.78719887623E-03  0.25957874785E-01  0.00000000000E+00 0.  1.
     999901    1    3    3    0    0 -0.10827150682E+00  0.42406689303E-02 -0.52436222803E-01  0.88819494478E+00  0.88000000000E+00 0.  1.
        -11    1    4    4    0    0  0.84546660074E-01 -0.16200751465E-01  0.31532559449E-01  0.91679689704E-01  0.51100000000E-03 0. -1.
         11    1    4    4    0    0  0.28210566788E-01 -0.13595149747E-01  0.21690862230E-01  0.38097490736E-01  0.51100000000E-03 0.  1.
</event>
<event>
 8    1  0.1091347E+005  0.1043930E+01  0.7957747E-01            NaN
         13   -1    0    0    0    0  0.00000000000E+00  0.00000000000E+00  0.74505805969E-08  0.10566000000E+00  0.10566000000E+00 0. -1.
     999900   -1    0    0    0    0 -0.00000000000E+00 -0.00000000000E+00 -0.74505805969E-08  0.93827000000E+00  0.93827000000E+00 0. -1.
     999902    2    1    2    0    0  0.60227051295E-02  0.20568727143E-01 -0.11724697851E-01  0.10195002220E+01  0.10192074806E+01 0.  0.
     999903    2    3    3    0    0 -0.24282555831E-01 -0.60610785965E-01  0.10735522654E+00  0.12726227695E+00  0.20180004387E-01 0.  0.
         14    1    1    2    0    0 -0.60227051295E-02 -0.20568727143E-01  0.11724697851E-01  0.24429777998E-01  0.00000000000E+00 0. -1.
     999901    1    3    3    0    0  0.30305260960E-01  0.81179513108E-01 -0.11907992439E+00  0.89223794505E+00  0.88000000000E+00 0. -1.
        -11    1    4    4    0    0  0.32824764449E-02 -0.99478787847E-02  0.19997548529E-01  0.22580921418E-01  0.51100000000E-03 0.  1.
         11    1    4    4    0    0 -0.27565032276E-01 -0.50662907181E-01  0.87357678011E-01  0.10468135554E+00  0.51100000000E-03 0. -1.
</event>
<event>
 8    1  0.1091347E+005  0.1043930E+01  0.7957747E-01            NaN
         13   -1    0    0    0    0  0.00000000000E+00  0.00000000000E+00  0.74505805969E-08  0.10566000000E+00  0.10566000000E+00 0. -1.
     999900   -1    0    0    0    0 -0.00000000000E+00 -0.00000000000E+00 -0.74505805969E-08  0.93827000000E+00  0.93827000000E+00 0.  1.
     999902    2    1    2    0    0 -0.18922108068E-01  0.77491161393E-02  0.12161473698E-01  0.10201393208E+01  0.10198618717E+01 0.  0.
     999903    2    3    3    0    0  0.83576676046E-01 -0.60784652516E-01 -0.72245106014E-01  0.12754347222E+00  0.19187162440E-01 0.  0.
         14    1    1    2    0    0  0.18922108068E-01 -0.77491161393E-02 -0.12161473698E-01  0.23790679208E-01  0.00000000000E+00 0.  1.
     999901    1    3    3    0    0 -0.10249878411E+00  0.68533768655E-01  0.84406579712E-01  0.89259584857E+00  0.88000000000E+00 0.  1.
        -11    1    4    4    0    0  0.83064837128E-01 -0.60400219067E-01 -0.73321155764E-01  0.12619115117E+00  0.51100000000E-03 0.  1.
         11    1    4    4    0    0  0.51183891816E-03 -0.38443344887E-03  0.10760497495E-02  0.13523210485E-02  0.51100000000E-03 0. -1.
</event>
<event>
 8    1  0.1091347E+005  0.1043930E+01  0.7957747E-01            NaN
         13   -1    0    0    0    0  0.00000000000E+00  0.00000000000E+00  0.74505805969E-08  0.10566000000E+00  0.10566000000E+00 0. -1.
     999900   -1    0    0    0    0 -0.00000000000E+00 -0.00000000000E+00 -0.74505805969E-08  0.93827000000E+00  0.93827000000E+00 0. -1.
     999902    2    1    2    0    0  0.12323674807E-02 -0.23066915577E-01  0.82468176478E-02  0.10194022336E+01  0.10191071104E+01 0.  0.
     999903    2    3    3    0    0  0.17007679456E-01 -0.15932734316E-01  0.12756912075E+00  0.13118065705E+00  0.19783099635E-01 0.  0.
         14    1    1    2    0    0 -0.12323674807E-02  0.23066915577E-01 -0.82468176478E-02  0.24527766412E-01  0.00000000000E+00 0.  1.
     999901    1    3    3    0    0 -0.15775311976E-01 -0.71341812611E-02 -0.11932230310E+00  0.88822157654E+00  0.88000000000E+00 0. -1.
        -11    1    4    4    0    0  0.20728431846E-01 -0.10287655676E-01  0.85918101995E-01  0.88981375116E-01  0.51100000000E-03 0. -1.
         11    1    4    4    0    0 -0.37207523894E-02 -0.56450786395E-02  0.41651018758E-01  0.42199281934E-01  0.51100000000E-03 0.  1.
</event>
<event>
 8    1  0.1091347E+005  0.1043930E+01  0.7957747E-01            NaN
         13   -1    0    0    0    0  0.00000000000E+00  0.00000000000E+00  0.74505805969E-08  0.10566000000E+00  0.10566000000E+00 0.  1.
     999900   -1    0    0    0    0 -0.00000000000E+00 -0.00000000000E+00 -0.74505805969E-08  0.93827000000E+00  0.93827000000E+00 0.  1.
     999902    2    1    2    0    0  0.11582654832E-01  0.50425764173E-02  0.19580511664E-01  0.10206280278E+01  0.10203619893E+01 0.  0.
     999903    2    3    3    0    0  0.28933458771E-01 -0.92432884120E-01  0.88210922476E-01  0.13242047940E+00  0.19314073032E-01 0.  0.
         14    1    1    2    0    0 -0.11582654832E-01 -0.50425764173E-02 -0.19580511664E-01  0.23301972168E-01  0.00000000000E+00 0. -1.
     999901    1    3    3    0    0 -0.17350803939E-01  0.97475460537E-01 -0.68630410812E-01  0.88820754843E+00  0.88000000000E+00 0.  1.
        -11    1    4    4    0    0  0.11348235775E-01 -0.61430356845E-01  0.63273712352E-01  0.88917349225E-01  0.51100000000E-03 0. -1.
         11    1    4    4    0    0  0.17585222995E-01 -0.31002527275E-01  0.24937210124E-01  0.43503130175E-01  0.51100000000E-03 0.  1.
</event>
<event>
 8    1  0.1091347E+005  0.1043930E+01  0.7957747E-01            NaN
         13   -1    0    0    0    0  0.00000000000E+00  0.00000000000E+00  0.74505805969E-08  0.10566000000E+00  0.10566000000E+00 0.  1.
     999900   -1    0    0    0    0 -0.00000000000E+00 -0.00000000000E+00 -0.74505805969E-08  0.93827000000E+00  0.93827000000E+00 0.  1.
     999902    2    1    2    0    0  0.10550934090E-01  0.83213414481E-02 -0.21406878180E-01  0.10186550842E+01  0.10183414748E+01 0.  0.
     999903    2    3    3    0    0  0.92396575567E-01 -0.82971703137E-01 -0.33931370118E-01  0.13006632000E+00  0.18560146086E-01 0.  0.
         14    1    1    2    0    0 -0.10550934090E-01 -0.83213414481E-02  0.21406878180E-01  0.25274915768E-01  0.00000000000E+00 0.  1.
     999901    1    3    3    0    0 -0.81845641477E-01  0.91293044585E-01  0.12524491938E-01  0.88858876423E+00  0.88000000000E+00 0. -1.
        -11    1    4    4    0    0  0.29169299647E-01 -0.19722844146E-01 -0.16756748176E-01  0.38998568608E-01  0.51100000000E-03 0. -1.
         11    1    4    4    0    0  0.63227275921E-01 -0.63248858991E-01 -0.17174621942E-01  0.91067751394E-01  0.51100000000E-03 0.  1.
</event>
<event>
 8    1  0.1091347E+005  0.1043930E+01  0.7957747E-01            NaN
         13   -1    0    0    0    0  0.00000000000E+00  0.00000000000E+00  0.74505805969E-08  0.10566000000E+00  0.10566000000E+00 0. -1.
     999900   -1    0    0    0    0 -0.00000000000E+00 -0.00000000000E+00 -0.74505805969E-08  0.93827000000E+00  0.93827000000E+00 0. -1.
     999902    2    1    2    0    0  0.73836097213E-03  0.17569304745E-01 -0.16373507405E-01  0.10199025700E+01  0.10196195050E+01 0.  0.
     999903    2    3    3    0    0 -0.12343520756E+00  0.14763379072E-01 -0.35973536658E-01  0.13096437787E+00  0.20083951359E-01 0.  0.
         14    1    1    2    0    0 -0.73836097213E-03 -0.17569304745E-01  0.16373507405E-01  0.24027429969E-01  0.00000000000E+00 0. -1.
     999901    1    3    3    0    0  0.12417356854E+00  0.28059256731E-02  0.19600029253E-01  0.88893819216E+00  0.88000000000E+00 0. -1.
        -11    1    4    4    0    0 -0.11425297577E-01  0.72888908384E-02 -0.55590985900E-02  0.14657081992E-01  0.51100000000E-03 0.  1.
         11    1    4    4    0    0 -0.11200990999E+00  0.74744882335E-02 -0.30414438068E-01  0.11630729588E+00  0.51100000000E-03 0. -1.
</event>
<event>
 8    1  0.1091347E+005  0.1043930E+01  0.7957747E-01            NaN
         13   -1    0    0    0    0  0.00000000000E+00  0.00000000000E+00  0.74505805969E-08  0.10566000000E+00  0.10566000000E+00 0. -1.
     999900   -1    0    0    0    0 -0.00000000000E+00 -0.00000000000E+00 -0.74505805969E-08  0.93827000000E+00  0.93827000000E+00 0.  1.
     999902    2    1    2    0    0 -0.21061403783E-01 -0.23584849488E-02  0.10728847116E-01  0.10201759826E+01  0.10198993981E+01 0.  0.
     999903    2    3    3    0    0  0.40896944718E-01 -0.10785463386E+00  0.57786785588E-01  0.13046663461E+00  0.19417724515E-01 0.  0.
         14    1    1    2    0    0  0.21061403783E-01  0.23584849488E-02 -0.10728847116E-01  0.23754017366E-01  0.00000000000E+00 0.  1.
     999901    1    3    3    0    0 -0.61958348502E-01  0.10549614891E+00 -0.47057938472E-01  0.88970934802E+00  0.88000000000E+00 0.  1.
        -11    1    4    4    0    0  0.21091515387E-01 -0.34830280673E-01  0.14086346816E-01  0.43089288236E-01  0.51100000000E-03 0.  1.
         11    1    4    4    0    0  0.19805429331E-01 -0.73024353190E-01  0.43700438772E-01  0.87377346375E-01  0.51100000000E-03 0. -1.
</event>
<event>
 8    1  0.1091347E+005  0.1043930E+01  0.7957747E-01            NaN
         13   -1    0    0    0    0  0.00000000000E+00  0.00000000000E+00  0.74505805969E-08  0.10566000000E+00  0.10566000000E+00 0.  1.
     999900   -1    0    0    0    0 -0.00000000000E+00 -0.00000000000E+00 -0.74505805969E-08  0.93827000000E+00  0.93827000000E+00 0. -1.
     999902    2    1    2    0    0 -0.21129428041E-01  0.41588068382E-02 -0.10244723172E-01  0.10200825105E+01  0.10198037191E+01 0.  0.
     999903    2    3    3    0    0  0.56003211499E-01  0.11224776391E+00 -0.30184450221E-01  0.12989699080E+00  0.15040178955E-01 0.  0.
         14    1    1    2    0    0  0.21129428041E-01 -0.41588068382E-02  0.10244723172E-01  0.23847489522E-01  0.00000000000E+00 0.  1.
     999901    1    3    3    0    0 -0.77132639540E-01 -0.10808895707E+00  0.19939727049E-01  0.89018551967E+00  0.88000000000E+00 0.  1.
        -11    1    4    4    0    0  0.15052725701E-01  0.17379010121E-01 -0.62179661924E-02  0.23823072186E-01  0.51100000000E-03 0.  1.
         11    1    4    4    0    0  0.40950485798E-01  0.94868753791E-01 -0.23966484029E-01  0.10607391862E+00  0.51100000000E-03 0. -1.
</event>
<event>
 8    1  0.1091347E+005  0.1043930E+01  0.7957747E-01            NaN
         13   -1    0    0    0    0  0.00000000000E+00  0.00000000000E+00  0.74505805969E-08  0.10566000000E+00  0.10566000000E+00 0. -1.
     999900   -1    0    0    0    0 -0.00000000000E+00 -0.00000000000E+00 -0.74505805969E-08  0.93827000000E+00  0.93827000000E+00 0. -1.
     999902    2    1    2    0    0  0.11575097026E-01  0.20311314402E-01  0.24436401718E-02  0.10204246019E+01  0.10201538435E+01 0.  0.
     999903    2    3    3    0    0  0.10266994974E+00  0.42764011778E-01 -0.69213713992E-01  0.13254106659E+00  0.20167222050E-01 0.  0.
         14    1    1    2    0    0 -0.11575097026E-01 -0.20311314402E-01 -0.24436401718E-02  0.23505398129E-01  0.00000000000E+00 0. -1.
     999901    1    3    3    0    0 -0.91094852719E-01 -0.22452697376E-01  0.71657354164E-01  0.88788353528E+00  0.88000000000E+00 0.  1.
        -11    1    4    4    0    0  0.55652989195E-01  0.33366535203E-01 -0.35957926153E-01  0.74187697443E-01  0.51100000000E-03 0.  1.
         11    1    4    4    0    0  0.47016960550E-01  0.93974765754E-02 -0.33255787839E-01  0.58353369150E-01  0.51100000000E-03 0. -1.
</event>
<event>
 8    1  0.1091347E+005  0.1043930E+01  0.7957747E-01            NaN
         13   -1    0    0    0    0  0.00000000000E+00  0.00000000000E+00  0.74505805969E-08  0.10566000000E+00  0.10566000000E+00 0. -1.
     999900   -1    0    0    0    0 -0.00000000000E+00 -0.00000000000E+00 -0.74505805969E-08  0.93827000000E+00  0.93827000000E+00 0. -1.
     999902    2    1    2    0    0 -0.83333027823E-02 -0.53837151536E-02 -0.22044891571E-01  0.10197555182E+01  0.10194689360E+01 0.  0.
     999903    2    3    3    0    0 -0.85524183128E-01 -0.20844955118E-01 -0.97625877679E-01  0.13301431168E+00  0.20324789420E-01 0.  0.
         14    1    1    2    0    0  0.83333027823E-02  0.53837151536E-02  0.22044891571E-01  0.24174481762E-01  0.00000000000E+00 0. -1.
     999901    1    3    3    0    0  0.77190880346E-01  0.15461239965E-01  0.75580986108E-01  0.88674120656E+00  0.88000000000E+00 0.  1.
        -11    1    4    4    0    0 -0.39759197862E-01 -0.87897024332E-02 -0.60181363286E-01  0.72664367412E-01  0.51100000000E-03 0. -1.
         11    1    4    4    0    0 -0.45764985267E-01 -0.12055252685E-01 -0.37444514393E-01  0.60349944266E-01  0.51100000000E-03 0.  1.
</event>
<event>
 8    1  0.1091347E+005  0.1043930E+01  0.7957747E-01            NaN
         13   -1    0    0    0    0  0.00000000000E+00  0.00000000000E+00  0.74505805969E-08  0.10566000000E+00  0.10566000000E+00 0.  1.
     999900   -1    0    0    0    0 -0.00000000000E+00 -0.00000000000E+00 -0.74505805969E-08  0.93827000000E+00  0.93827000000E+00 0.  1.
     999902    2    1    2    0    0  0.12384754178E-01  0.15349581713E-01 -0.11688021877E-01  0.10210039962E+01  0.10207465692E+01 0.  0.
     999903    2    3    3    0    0  0.84362199876E-01 -0.63172855006E-01 -0.77128238742E-01  0.13216827024E+00  0.20295222835E-01 0.  0.
         14    1    1    2    0    0 -0.12384754178E-01 -0.15349581713E-01  0.11688021877E-01  0.22926003799E-01  0.00000000000E+00 0.  1.
     999901    1    3    3    0    0 -0.71977445698E-01  0.78522436719E-01  0.65440216865E-01  0.88883572596E+00  0.88000000000E+00 0. -1.
        -11    1    4    4    0    0  0.58206457079E-01 -0.52727775152E-01 -0.62827795233E-01  0.10057734781E+00  0.51100000000E-03 0.  1.
         11    1    4    4    0    0  0.26155742797E-01 -0.10445079855E-01 -0.14300443509E-01  0.31590922430E-01  0.51100000000E-03 0. -1.
</event>
<event>
 8    1  0.1091347E+005  0.1043930E+01  0.7957747E-01            NaN
         13   -1    0    0    0    0  0.00000000000E+00  0.00000000000E+00  0.74505805969E-08  0.10566000000E+00  0.10566000000E+00 0. -1.
     999900   -1    0    0    0    0 -0.00000000000E+00 -0.00000000000E+00 -0.74505805969E-08  0.93827000000E+00  0.93827000000E+00 0.  1.
     999902    2    1    2    0    0  0.13160863593E-01 -0.19082873925E-01 -0.25879807735E-03  0.10207474336E+01  0.10204841458E+01 0.  0.
     999903    2    3    3    0    0  0.11812479197E+00  0.31951071490E-01  0.44796270174E-01  0.13189882501E+00  0.20402371690E-01 0.  0.
         14    1    1    2    0    0 -0.13160863593E-01  0.19082873925E-01  0.25879807735E-03  0.23182566385E-01  0.00000000000E+00 0. -1.
     999901    1    3    3    0    0 -0.10496392838E+00 -0.51033945416E-01 -0.45055068251E-01  0.88884860861E+00  0.88000000000E+00 0.  1.
        -11    1    4    4    0    0  0.16106519137E-01 -0.14686741682E-02  0.10111176559E-01  0.19080722600E-01  0.51100000000E-03 0.  1.
         11    1    4    4    0    0  0.10201827283E+00  0.33419745659E-01  0.34685093615E-01  0.11281810241E+00  0.51100000000E-03 0. -1.
</event>
<event>
 8    1  0.1091347E+005  0.1043930E+01  0.7957747E-01            NaN
         13   -1    0    0    0    0  0.00000000000E+00  0.00000000000E+00  0.74505805969E-08  0.10566000000E+00  0.10566000000E+00 0.  1.
     999900   -1    0    0    0    0 -0.00000000000E+00 -0.00000000000E+00 -0.74505805969E-08  0.93827000000E+00  0.93827000000E+00 0.  1.
     999902    2    1    2    0    0  0.13272320139E-01  0.58392990228E-02  0.19276052894E-01  0.10198090939E+01  0.10195237957E+01 0.  0.
     999903    2    3    3    0    0  0.88647994688E-01 -0.87011336401E-01  0.38565559440E-01  0.13151026026E+00  0.19447533399E-01 0.  0.
         14    1    1    2    0    0 -0.13272320139E-01 -0.58392990228E-02 -0.19276052894E-01  0.24120906080E-01  0.00000000000E+00 0. -1.
     999901    1    3    3    0    0 -0.75375674549E-01  0.92850635424E-01 -0.19289506546E-01  0.88829883366E+00  0.88000000000E+00 0.  1.
        -11    1    4    4    0    0  0.36701729361E-01 -0.28166424453E-01  0.65104589647E-02  0.46722709697E-01  0.51100000000E-03 0. -1.
         11    1    4    4    0    0  0.51946265327E-01 -0.58844911948E-01  0.32055100475E-01  0.84787550567E-01  0.51100000000E-03 0.  1.
</event>
<event>
 8    1  0.1091347E+005  0.1043930E+01  0.7957747E-01            NaN
         13   -1    0    0    0    0  0.00000000000E+00  0.00000000000E+00  0.74505805969E-08  0.10566000000E+00  0.10566000000E+00 0.  1.
     999900   -1    0    0    0    0 -0.00000000000E+00 -0.00000000000E+00 -0.74505805969E-08  0.93827000000E+00  0.93827000000E+00 0.  1.
     999902    2    1    2    0    0 -0.12403699134E-01  0.14284338175E-01 -0.14453431616E-01  0.10201225273E+01  0.10198446818E+01 0.  0.
     999903    2    3    3    0    0 -0.10744891138E+00 -0.37265320279E-01  0.59901318995E-01  0.13039246232E+00  0.21910124601E-01 0.  0.
         14    1    1    2    0    0  0.12403699134E-01 -0.14284338175E-01  0.14453431616E-01  0.23807472667E-01  0.00000000000E+00 0.  1.
     999901    1    3    3    0    0  0.95045212241E-01  0.51549658455E-01 -0.74354750611E-01  0.88973006502E+00  0.88000000000E+00 0. -1.
        -11    1    4    4    0    0 -0.25283586594E-01 -0.18455644994E-01  0.12707146142E-01  0.33787620029E-01  0.51100000000E-03 0. -1.
         11    1    4    4    0    0 -0.82165324782E-01 -0.18809675286E-01  0.47194172853E-01  0.96604842286E-01  0.51100000000E-03 0.  1.
</event>
<event>
 8    1  0.1091347E+005  0.1043930E+01  0.7957747E-01            NaN
         13   -1    0    0    0    0  0.00000000000E+00  0.00000000000E+00  0.74505805969E-08  0.10566000000E+00  0.10566000000E+00 0.  1.
     999900   -1    0    0    0    0 -0.00000000000E+00 -0.00000000000E+00 -0.74505805969E-08  0.93827000000E+00  0.93827000000E+00 0.  1.
     999902    2    1    2    0    0 -0.11548994389E-01  0.12907420499E-01 -0.17947442896E-01  0.10189882382E+01  0.10186829429E+01 0.  0.
     999903    2    3    3    0    0 -0.80381091947E-05  0.12718056635E+00 -0.26592807825E-01  0.13148258308E+00  0.20139406694E-01 0.  0.
         14    1    1    2    0    0  0.11548994389E-01 -0.12907420499E-01  0.17947442896E-01  0.24941761803E-01  0.00000000000E+00 0.  1.
     999901    1    3    3    0    0 -0.11540956280E-01 -0.11427314585E+00  0.86453649293E-02  0.88750565512E+00  0.88000000000E+00 0.  1.
        -11    1    4    4    0    0 -0.87259330148E-02  0.65626869817E-01 -0.86098208991E-02  0.66763898073E-01  0.51100000000E-03 0. -1.
         11    1    4    4    0    0  0.87178949057E-02  0.61553696536E-01 -0.17982986926E-01  0.64718685004E-01  0.51100000000E-03 0.  1.
</event>
<event>
 8    1  0.1091347E+005  0.1043930E+01  0.7957747E-01            NaN
         13   -1    0    0    0    0  0.00000000000E+00  0.00000000000E+00  0.74505805969E-08  0.10566000000E+00  0.10566000000E+00 0. -1.
     999900   -1    0    0    0    0 -0.00000000000E+00 -0.00000000000E+00 -0.74505805969E-08  0.93827000000E+00  0.93827000000E+00 0.  1.
     999902    2    1    2    0    0 -0.21515514125E-01  0.10269779883E-01  0.41040423239E-02  0.10197384955E+01  0.10194515046E+01 0.  0.
     999903    2    3    3    0    0 -0.74925741573E-02 -0.11775936417E+00  0.48646834939E-01  0.12924864999E+00  0.20378725630E-01 0.  0.
         14    1    1    2    0    0  0.21515514125E-01 -0.10269779883E-01 -0.41040423239E-02  0.24191504507E-01  0.00000000000E+00 0. -1.
     999901    1    3    3    0    0 -0.14022939968E-01  0.12802914405E+00 -0.44542792615E-01  0.89048984550E+00  0.88000000000E+00 0. -1.
        -11    1    4    4    0    0  0.35053539323E-02 -0.81932863637E-01  0.29437484260E-01  0.87132704827E-01  0.51100000000E-03 0. -1.
         11    1    4    4    0    0 -0.10997928090E-01 -0.35826500529E-01  0.19209350679E-01  0.42115945162E-01  0.51100000000E-03 0.  1.
</event>
<event>
 8    1  0.1091347E+005  0.1043930E+01  0.7957747E-01            NaN
         13   -1    0    0    0    0  0.00000000000E+00  0.00000000000E+00  0.74505805969E-08  0.10566000000E+00  0.10566000000E+00 0. -1.
     999900   -1    0    0    0    0 -0.00000000000E+00 -0.00000000000E+00 -0.74505805969E-08  0.93827000000E+00  0.93827000000E+00 0.  1.
     999902    2    1    2    0    0 -0.18641888498E-01 -0.85178319023E-02  0.86340981067E-02  0.10216899209E+01  0.10214478320E+01 0.  0.
     999903    2    3    3    0    0  0.42322327038E-01 -0.29363489723E-01 -0.11824656897E+00  0.13025855469E+00  0.18211153259E-01 0.  0.
         14    1    1    2    0    0  0.18641888498E-01  0.85178319023E-02 -0.86340981067E-02  0.22240079074E-01  0.00000000000E+00 0.  1.
     999901    1    3    3    0    0 -0.60964215535E-01  0.20845657821E-01  0.12688066708E+00  0.89143136623E+00  0.88000000000E+00 0. -1.
        -11    1    4    4    0    0  0.27422740371E-01 -0.80079432204E-02 -0.60171996181E-01  0.66611291006E-01  0.51100000000E-03 0.  1.
         11    1    4    4    0    0  0.14899586666E-01 -0.21355546502E-01 -0.58074572789E-01  0.63647263687E-01  0.51100000000E-03 0. -1.
</event>
<event>
 8    1  0.1091347E+005  0.1043930E+01  0.7957747E-01            NaN
         13   -1    0    0    0    0  0.00000000000E+00  0.00000000000E+00  0.74505805969E-08  0.10566000000E+00  0.10566000000E+00 0.  1.
     999900   -1    0    0    0    0 -0.00000000000E+00 -0.00000000000E+00 -0.74505805969E-08  0.93827000000E+00  0.93827000000E+00 0. -1.
     999902    2    1    2    0    0  0.20972186810E-01 -0.61597960688E-03  0.11657220030E-01  0.10199278578E+01  0.10196453954E+01 0.  0.
     999903    2    3    3    0    0  0.70640856063E-01 -0.89564155428E-01  0.64483639902E-01  0.13247679701E+00  0.19495985460E-01 0.  0.
         14    1    1    2    0    0 -0.20972186810E-01  0.61597960688E-03 -0.11657220030E-01  0.24002142182E-01  0.00000000000E+00 0. -1.
     999901    1    3    3    0    0 -0.49668669253E-01  0.88948175821E-01 -0.52826419872E-01  0.88745106080E+00  0.88000000000E+00 0. -1.
        -11    1    4    4    0    0  0.14441841204E-01 -0.30942253990E-01  0.23960187847E-01  0.41717401429E-01  0.51100000000E-03 0.  1.
         11    1    4    4    0    0  0.56199014859E-01 -0.58621901438E-01  0.40523452055E-01  0.90759395584E-01  0.51100000000E-03 0. -1.
</event>
<event>
 8    1  0.1091347E+005  0.1043930E+01  0.7957747E-01            NaN
         13   -1    0    0    0    0  0.00000000000E+00  0.00000000000E+00  0.74505805969E-08  0.10566000000E+00  0.10566000000E+00 0.  1.
     999900   -1    0    0    0    0 -0.00000000000E+00 -0.00000000000E+00 -0.74505805969E-08  0.93827000000E+00  0.93827000000E+00 0. -1.
     999902    2    1    2    0    0 -0.11031339354E-02 -0.23052135385E-01  0.65432896878E-02  0.10199418260E+01  0.10196596962E+01 0.  0.
     999903    2    3    3    0    0  0.51002745801E-01 -0.10755803761E+00 -0.53307514541E-01  0.13233921846E+00  0.22404599993E-01 0.  0.
         14    1    1    2    0    0  0.11031339354E-02  0.23052135385E-01 -0.65432896878E-02  0.23988173966E-01  0.00000000000E+00 0.  1.
     999901    1    3    3    0    0 -0.52105879736E-01  0.84505902226E-01  0.59850804229E-01  0.88760260758E+00  0.88000000000E+00 0. -1.
        -11    1    4    4    0    0  0.80071825096E-02 -0.39142155812E-01 -0.22530181044E-01  0.45870399085E-01  0.51100000000E-03 0.  1.
         11    1    4    4    0    0  0.42995563292E-01 -0.68415881799E-01 -0.30777333497E-01  0.86468819370E-01  0.51100000000E-03 0. -1.
</event>
<event>
 8    1  0.1091347E+005  0.1043930E+01  0.7957747E-01            NaN
         13   -1    0    0    0    0  0.00000000000E+00  0.00000000000E+00  0.74505805969E-08  0.10566000000E+00  0.10566000000E+00 0.  1.
     999900   -1    0    0    0    0 -0.00000000000E+00 -0.00000000000E+00 -0.74505805969E-08  0.93827000000E+00  0.93827000000E+00 0. -1.
     999902    2    1    2    0    0  0.58702698430E-02 -0.23082928178E-01 -0.29903673288E-02  0.10199253351E+01  0.10196428126E+01 0.  0.
     999903    2    3    3    0    0  0.12663723541E+00 -0.92615621803E-02 -0.26092164119E-01  0.13126939314E+00  0.20690254201E-01 0.  0.
         14    1    1    2    0    0 -0.58702698430E-02  0.23082928178E-01  0.29903673288E-02  0.24004664923E-01  0.00000000000E+00 0.  1.
     999901    1    3    3    0    0 -0.12076696557E+00 -0.13821365998E-01  0.23101796790E-01  0.88865594194E+00  0.88000000000E+00 0.  1.
        -11    1    4    4    0    0  0.14208423254E-01 -0.77500885891E-02 -0.25737898054E-02  0.16395995836E-01  0.51100000000E-03 0. -1.
         11    1    4    4    0    0  0.11242881216E+00 -0.15114735912E-02 -0.23518374314E-01  0.11487339730E+00  0.51100000000E-03 0.  1.
</event>
<event>
 8    1  0.1091347E+005  0.1043930E+01  0.7957747E-01            NaN
         13   -1    0    0    0    0  0.00000000000E+00  0.00000000000E+00  0.74505805969E-08  0.10566000000E+00  0.10566000000E+00 0. -1.
     999900   -1    0    0    0    0 -0.00000000000E+00 -0.00000000000E+00 -0.74505805969E-08  0.93827000000E+00  0.93827000000E+00 0. -1.
     999902    2    1    2    0    0 -0.13549374710E-01 -0.15889072410E-01  0.11312024344E-01  0.10201811038E+01  0.10199046399E+01 0.  0.
     999903    2    3    3    0    0 -0.68393756728E-01 -0.72046717134E-02  0.11211866000E+00  0.13268727121E+00  0.17484414993E-01 0.  0.
         14    1    1    2    0    0  0.13549374710E-01  0.15889072410E-01 -0.11312024344E-01  0.23748896224E-01  0.00000000000E+00 0.  1.
     999901    1    3    3    0    0  0.54844382018E-01 -0.86844006966E-02 -0.10080663565E+00  0.88749383257E+00  0.88000000000E+00 0. -1.
        -11    1    4    4    0    0 -0.59264533635E-01 -0.83861418844E-02  0.10563865148E+00  0.12141827758E+00  0.51100000000E-03 0. -1.
         11    1    4    4    0    0 -0.91292230935E-02  0.11814701711E-02  0.64800085139E-02  0.11268993628E-01  0.51100000000E-03 0.  1.
</event>
<event>
 8    1  0.1091347E+005  0.1043930E+01  0.7957747E-01            NaN
         13   -1    0    0    0    0  0.00000000000E+00  0.00000000000E+00  0.74505805969E-08  0.10566000000E+00  0.10566000000E+00 0. -1.
     999900   -1    0    0    0    0 -0.00000000000E+00 -0.00000000000E+00 -0.74505805969E-08  0.93827000000E+00  0.93827000000E+00 0.  1.
     999902    2    1    2    0    0  0.10159961529E-01  0.10258134735E-01 -0.18853848064E-01  0.10201829637E+01  0.10199065436E+01 0.  0.
     999903    2    3    3    0    0  0.34824048183E-01  0.12204008712E+00 -0.33457807077E-01  0.13264885299E+00  0.19230084488E-01 0.  0.
         14    1    1    2    0    0 -0.10159961529E-01 -0.10258134735E-01  0.18853848064E-01  0.23747036306E-01  0.00000000000E+00 0. -1.
     999901    1    3    3    0    0 -0.24664086654E-01 -0.11178195238E+00  0.14603959013E-01  0.88753411071E+00  0.88000000000E+00 0. -1.
        -11    1    4    4    0    0  0.13417720974E-01  0.80522545377E-01 -0.20421536311E-01  0.84149960288E-01  0.51100000000E-03 0. -1.
         11    1    4    4    0    0  0.21406327209E-01  0.41517541739E-01 -0.13036270766E-01  0.48498892700E-01  0.51100000000E-03 0.  1.
</event>
<event>
 8    1  0.1091347E+005  0.1043930E+01  0.7957747E-01            NaN
         13   -1    0    0    0    0  0.00000000000E+00  0.00000000000E+00  0.74505805969E-08  0.10566000000E+00  0.10566000000E+00 0. -1.
     999900   -1    0    0    0    0 -0.00000000000E+00 -0.00000000000E+00 -0.74505805969E-08  0.93827000000E+00  0.93827000000E+00 0. -1.
     999902    2    1    2    0    0  0.61041789707E-02  0.19903608162E-01 -0.10747424273E-01  0.10205009209E+01  0.10202319382E+01 0.  0.
     999903    2    3    3    0    0  0.40422283240E-01 -0.90835576792E-01 -0.81317268353E-01  0.13009595559E+00  0.20673570922E-01 0.  0.
         14    1    1    2    0    0 -0.61041789707E-02 -0.19903608162E-01  0.10747424273E-01  0.23429079096E-01  0.00000000000E+00 0. -1.
     999901    1    3    3    0    0 -0.34318104270E-01  0.11073918495E+00  0.70569844080E-01  0.89040496532E+00  0.88000000000E+00 0.  1.
        -11    1    4    4    0    0  0.19307584291E-01 -0.21337283090E-01 -0.20122242899E-01  0.35117349574E-01  0.51100000000E-03 0.  1.
         11    1    4    4    0    0  0.21114698950E-01 -0.69498293702E-01 -0.61195025454E-01  0.94978606015E-01  0.51100000000E-03 0. -1.
</event>
<event>
 8    1  0.1091347E+005  0.1043930E+01  0.7957747E-01            NaN
         13   -1    0    0    0    0  0.00000000000E+00  0.00000000000E+00  0.74505805969E-08  0.10566000000E+00  0.10566000000E+00 0.  1.
     999900   -1    0    0    0    0 -0.00000000000E+00 -0.00000000000E+00 -0.74505805969E-08  0.93827000000E+00  0.93827000000E+00 0. -1.
     999902    2    1    2    0    0 -0.19112974053E-01 -0.10211065023E-01 -0.28417215068E-02  0.10220748631E+01  0.10218411711E+01 0.  0.
     999903    2    3    3    0    0  0.39345031590E-01 -0.69146366052E-01 -0.10399615790E+00  0.13239911989E+00  0.19623318792E-01 0.  0.
         14    1    1    2    0    0  0.19112974053E-01  0.10211065023E-01  0.28417215068E-02  0.21855136861E-01  0.00000000000E+00 0.  1.
     999901    1    3    3    0    0 -0.58458005644E-01  0.58935301029E-01  0.10115443639E+00  0.88967574325E+00  0.88000000000E+00 0.  1.
        -11    1    4    4    0    0  0.35517289566E-01 -0.44820633301E-01 -0.75932247781E-01  0.95059636028E-01  0.51100000000E-03 0. -1.
         11    1    4    4    0    0  0.38277420246E-02 -0.24325732751E-01 -0.28063910115E-01  0.37339483859E-01  0.51100000000E-03 0.  1.
</event>
<event>
 8    1  0.1091347E+005  0.1043930E+01  0.7957747E-01            NaN
         13   -1    0    0    0    0  0.00000000000E+00  0.00000000000E+00  0.74505805969E-08  0.10566000000E+00  0.10566000000E+00 0.  1.
     999900   -1    0    0    0    0 -0.00000000000E+00 -0.00000000000E+00 -0.74505805969E-08  0.93827000000E+00  0.93827000000E+00 0.  1.
     999902    2    1    2    0    0  0.83139095582E-02 -0.63708820219E-02  0.20877378584E-01  0.10205724709E+01  0.10203051476E+01 0.  0.
     999903    2    3    3    0    0 -0.14254658636E-01  0.12417796905E+00  0.32205597244E-01  0.13058332976E+00  0.19784898939E-01 0.  0.
         14    1    1    2    0    0 -0.83139095582E-02  0.63708820219E-02 -0.20877378584E-01  0.23357529116E-01  0.00000000000E+00 0. -1.
     999901    1    3    3    0    0  0.22568568194E-01 -0.13054885107E+00 -0.11328218660E-01  0.88998914113E+00  0.88000000000E+00 0.  1.
        -11    1    4    4    0    0 -0.16256196396E-01  0.82730108016E-01  0.28138715538E-01  0.88885224457E-01  0.51100000000E-03 0. -1.
         11    1    4    4    0    0  0.20015377603E-02  0.41447861034E-01  0.40668817057E-02  0.41698105299E-01  0.51100000000E-03 0.  1.
</event>
<event>
 8    1  0.1091347E+005  0.1043930E+01  0.7957747E-01            NaN
         13   -1    0    0    0    0  0.00000000000E+00  0.00000000000E+00  0.74505805969E-08  0.10566000000E+00  0.10566000000E+00 0. -1.
     999900   -1    0    0    0    0 -0.00000000000E+00 -0.00000000000E+00 -0.74505805969E-08  0.93827000000E+00  0.93827000000E+00 0.  1.
     999902    2    1    2    0    0 -0.54458291821E-02  0.22313605714E-01  0.59829165289E-02  0.10201950185E+01  0.10199188823E+01 0.  0.
     999903    2    3    3    0    0 -0.12939207785E-01 -0.91874288839E-01  0.87409873090E-01  0.12905789370E+00  0.20177858291E-01 0.  0.
         14    1    1    2    0    0  0.54458291821E-02 -0.22313605714E-01 -0.59829165289E-02  0.23734981475E-01  0.00000000000E+00 0.  1.
     999901    1    3    3    0    0  0.74933786034E-02  0.11418789455E+00 -0.81426956561E-01  0.89113712482E+00  0.88000000000E+00 0.  1.
        -11    1    4    4    0    0  0.44184985338E-03 -0.59218541350E-01  0.60623528412E-01  0.84749655982E-01  0.51100000000E-03 0. -1.
         11    1    4    4    0    0 -0.13381057639E-01 -0.32655747488E-01  0.26786344678E-01  0.44308237719E-01  0.51100000000E-03 0.  1.
</event>
<event>
 8    1  0.1091347E+005  0.1043930E+01  0.7957747E-01            NaN
         13   -1    0    0    0    0  0.00000000000E+00  0.00000000000E+00  0.74505805969E-08  0.10566000000E+00  0.10566000000E+00 0.  1.
     999900   -1    0    0    0    0 -0.00000000000E+00 -0.00000000000E+00 -0.74505805969E-08  0.93827000000E+00  0.93827000000E+00 0.  1.
     999902    2    1    2    0    0  0.29411581469E-02  0.19340151412E-01 -0.13234731390E-01  0.10203111520E+01  0.10200377428E+01 0.  0.
     999903    2    3    3    0    0  0.21081506811E-01 -0.11279872355E+00  0.52589335533E-01  0.12783002481E+00  0.20171640149E-01 0.  0.
         14    1    1    2    0    0 -0.29411581469E-02 -0.19340151412E-01  0.13234731390E-01  0.23618848043E-01  0.00000000000E+00 0.  1.
     999901    1    3    3    0    0 -0.18140348664E-01  0.13213887497E+00 -0.65824066923E-01  0.89248112715E+00  0.88000000000E+00 0.  1.
        -11    1    4    4    0    0  0.11622109289E-01 -0.77926682620E-01  0.26012274908E-01  0.82973133335E-01  0.51100000000E-03 0.  1.
         11    1    4    4    0    0  0.94593975226E-02 -0.34872040935E-01  0.26577060625E-01  0.44856891476E-01  0.51100000000E-03 0. -1.
</event>
<event>
 8    1  0.1091347E+005  0.1043930E+01  0.7957747E-01            NaN
         13   -1    0    0    0    0  0.00000000000E+00  0.00000000000E+00  0.74505805969E-08  0.10566000000E+00  0.10566000000E+00 0. -1.
     999900   -1    0    0    0    0 -0.00000000000E+00 -0.00000000000E+00 -0.74505805969E-08  0.93827000000E+00  0.93827000000E+00 0. -1.
     999902    2    1    2    0    0 -0.14982444312E-01 -0.19390394786E-01  0.25733419307E-02  0.10192909429E+01  0.10189931026E+01 0.  0.
     999903    2    3    3    0    0  0.37353136878E-01  0.12350926873E-01  0.12138021606E+00  0.12920016216E+00  0.20290954223E-01 0.  0.
         14    1    1    2    0    0  0.14982444312E-01  0.19390394786E-01 -0.25733419307E-02  0.24639057130E-01  0.00000000000E+00 0. -1.
     999901    1    3    3    0    0 -0.52335581190E-01 -0.31741321660E-01 -0.11880687413E+00  0.89009078071E+00  0.88000000000E+00 0. -1.
        -11    1    4    4    0    0  0.15473145124E-01 -0.49845283788E-02  0.48543937813E-01  0.51196081516E-01  0.51100000000E-03 0. -1.
         11    1    4    4    0    0  0.21879991754E-01  0.17335455252E-01  0.72836278246E-01  0.78004080648E-01  0.51100000000E-03 0.  1.
</event>
<event>
 8    1  0.1091347E+005  0.1043930E+01  0.7957747E-01            NaN
         13   -1    0    0    0    0  0.00000000000E+00  0.00000000000E+00  0.74505805969E-08  0.10566000000E+00  0.10566000000E+00 0. -1.
     999900   -1    0    0    0    0 -0.00000000000E+00 -0.00000000000E+00 -0.74505805969E-08  0.93827000000E+00  0.93827000000E+00 0. -1.
     999902    2    1    2    0    0  0.29658799498E-03 -0.11213179737E-03 -0.23692458983E-01  0.10202354194E+01  0.10199602334E+01 0.  0.
     999903    2    3    3    0    0 -0.21277221274E-01 -0.12492188811E+00 -0.27097369468E-01  0.13116033935E+00  0.20262500171E-01 0.  0.
         14    1    1    2    0    0 -0.29658799498E-03  0.11213179737E-03  0.23692458983E-01  0.23694580618E-01  0.00000000000E+00 0. -1.
     999901    1    3    3    0    0  0.21573809269E-01  0.12480975631E+00  0.34049104847E-02  0.88907508003E+00  0.88000000000E+00 0.  1.
        -11    1    4    4    0    0 -0.23355717708E-01 -0.85344512763E-01 -0.22176733190E-01  0.91220853013E-01  0.51100000000E-03 0. -1.
         11    1    4    4    0    0  0.20784964349E-02 -0.39577375344E-01 -0.49206362783E-02  0.39939486338E-01  0.51100000000E-03 0.  1.
</event>
<event>
 8    1  0.1091347E+005  0.1043930E+01  0.7957747E-01            NaN
         13   -1    0    0    0    0  0.00000000000E+00  0.00000000000E+00  0.74505805969E-08  0.10566000000E+00  0.10566000000E+00 0. -1.
     999900   -1    0    0    0    0 -0.00000000000E+00 -0.00000000000E+00 -0.74505805969E-08  0.93827000000E+00  0.93827000000E+00 0.  1.
     999902    2    1    2    0    0 -0.12241614533E-01 -0.21402021628E-01 -0.24212346213E-03  0.10192731089E+01  0.10189748320E+01 0.  0.
     999903    2    3    3    0    0  0.32723665478E-01 -0.11986824878E+00 -0.39219160372E-01  0.13178413221E+00  0.19740304305E-01 0.  0.
         14    1    1    2    0    0  0.12241614533E-01  0.21402021628E-01  0.24212346213E-03  0.24656891124E-01  0.00000000000E+00 0. -1.
     999901    1    3    3    0    0 -0.44965280010E-01  0.98466227153E-01  0.38977036910E-01  0.88748897667E+00  0.88000000000E+00 0. -1.
        -11    1    4    4    0    0  0.21681981996E-01 -0.60192570951E-01 -0.28971356152E-01  0.70234283219E-01  0.51100000000E-03 0.  1.
         11    1    4    4    0    0  0.11041683481E-01 -0.59675677830E-01 -0.10247804220E-01  0.61549848992E-01  0.51100000000E-03 0. -1.
</event>
<event>
 8    1  0.1091347E+005  0.1043930E+01  0.7957747E-01            NaN
         13   -1    0    0    0    0  0.00000000000E+00  0.00000000000E+00  0.74505805969E-08  0.10566000000E+00  0.10566000000E+00 0. -1.
     999900   -1    0    0    0    0 -0.00000000000E+00 -0.00000000000E+00 -0.74505805969E-08  0.93827000000E+00  0.93827000000E+00 0.  1.
     999902    2    1    2    0    0 -0.10951250731E-01 -0.16671424425E-02 -0.20648511700E-01  0.10204977510E+01  0.10202286947E+01 0.  0.
     999903    2    3    3    0    0 -0.89739442176E-02 -0.92903460265E-01 -0.92324405893E-01  0.13287992266E+00  0.20535172702E-01 0.  0.
         14    1    1    2    0    0  0.10951250731E-01  0.16671424425E-02  0.20648511700E-01  0.23432248973E-01  0.00000000000E+00 0. -1.
     999901    1    3    3    0    0 -0.19773065137E-02  0.91236317822E-01  0.71675894193E-01  0.88761782837E+00  0.88000000000E+00 0. -1.
        -11    1    4    4    0    0  0.24574085565E-02 -0.61821621084E-01 -0.66902798162E-01  0.91127368080E-01  0.51100000000E-03 0. -1.
         11    1    4    4    0    0 -0.11431352774E-01 -0.31081839181E-01 -0.25421607731E-01  0.41752554578E-01  0.51100000000E-03 0.  1.
</event>
<event>
 8    1  0.1091347E+005  0.1043930E+01  0.7957747E-01            NaN
         13   -1    0    0    0    0  0.00000000000E+00  0.00000000000E+00  0.74505805969E-08  0.10566000000E+00  0.10566000000E+00 0.  1.
     999900   -1    0    0    0    0 -0.00000000000E+00 -0.00000000000E+00 -0.74505805969E-08  0.93827000000E+00  0.93827000000E+00 0. -1.
     999902    2    1    2    0    0  0.18636333723E-01 -0.55369596338E-02 -0.13640425282E-01  0.10201806409E+01  0.10199041661E+01 0.  0.
     999903    2    3    3    0    0  0.12524206260E+00 -0.31898374913E-01 -0.25670294589E-01  0.13327341721E+00  0.19993977702E-01 0.  0.
         14    1    1    2    0    0 -0.18636333723E-01  0.55369596338E-02  0.13640425282E-01  0.23749359117E-01  0.00000000000E+00 0.  1.
     999901    1    3    3    0    0 -0.10660572888E+00  0.26361415279E-01  0.12029869308E-01  0.88690722367E+00  0.88000000000E+00 0.  1.
        -11    1    4    4    0    0  0.52030733976E-01 -0.55583531808E-02 -0.16812066233E-01  0.54963617605E-01  0.51100000000E-03 0. -1.
         11    1    4    4    0    0  0.73211328625E-01 -0.26340021732E-01 -0.88582283560E-02  0.78309799607E-01  0.51100000000E-03 0.  1.
</event>
<event>
 8    1  0.1091347E+005  0.1043930E+01  0.7957747E-01            NaN
         13   -1    0    0    0    0  0.00000000000E+00  0.00000000000E+00  0.74505805969E-08  0.10566000000E+00  0.10566000000E+00 0.  1.
     999900   -1    0    0    0    0 -0.00000000000E+00 -0.00000000000E+00 -0.74505805969E-08  0.93827000000E+00  0.93827000000E+00 0. -1.
     999902    2    1    2    0    0 -0.10965242389E-01  0.20548279440E-01  0.92450006601E-03  0.10206207094E+01  0.10203545018E+01 0.  0.
     999903    2    3    3    0    0  0.10859017693E-01 -0.28992256508E-03 -0.12869368504E+00  0.13061430328E+00  0.19494341065E-01 0.  0.
         14    1    1    2    0    0  0.10965242389E-01 -0.20548279440E-01 -0.92450006601E-03  0.23309290615E-01  0.00000000000E+00 0.  1.
     999901    1    3    3    0    0 -0.21824260082E-01  0.20838202005E-01  0.12961818510E+00  0.89000640610E+00  0.88000000000E+00 0.  1.
        -11    1    4    4    0    0 -0.33932562311E-02  0.44768962650E-02 -0.61525041912E-01  0.61783077710E-01  0.51100000000E-03 0. -1.
         11    1    4    4    0    0  0.14252273924E-01 -0.47668188301E-02 -0.67168643125E-01  0.68831225574E-01  0.51100000000E-03 0.  1.
</event>
<event>
 8    1  0.1091347E+005  0.1043930E+01  0.7957747E-01            NaN
         13   -1    0    0    0    0  0.00000000000E+00  0.00000000000E+00  0.74505805969E-08  0.10566000000E+00  0.10566000000E+00 0. -1.
     999900   -1    0    0    0    0 -0.00000000000E+00 -0.00000000000E+00 -0.74505805969E-08  0.93827000000E+00  0.93827000000E+00 0.  1.
     999902    2    1    2    0    0  0.90015886869E-02  0.17516851188E-01  0.12702315104E-01  0.10204946104E+01  0.10202254812E+01 0.  0.
     999903    2    3    3    0    0  0.11424175597E+00 -0.58581751195E-01  0.16874396014E-01  0.13095321380E+00  0.19519184987E-01 0.  0.
         14    1    1    2    0    0 -0.90015886869E-02 -0.17516851188E-01 -0.12702315104E-01  0.23435389552E-01  0.00000000000E+00 0.  1.
     999901    1    3    3    0    0 -0.10524016729E+00  0.76098602383E-01 -0.41720809097E-02  0.88954139665E+00  0.88000000000E+00 0.  1.
        -11    1    4    4    0    0  0.41379860257E-01 -0.26465959048E-01  0.14781931575E-01  0.51298210936E-01  0.51100000000E-03 0.  1.
         11    1    4    4    0    0  0.72861895716E-01 -0.32115792147E-01  0.20924644391E-02  0.79655002862E-01  0.51100000000E-03 0. -1.
</event>
<event>
 8    1  0.1091347E+005  0.1043930E+01  0.7957747E-01            NaN
         13   -1    0    0    0    0  0.00000000000E+00  0.00000000000E+00  0.74505805969E-08  0.10566000000E+00  0.10566000000E+00 0.  1.
     999900   -1    0    0    0    0 -0.00000000000E+00 -0.00000000000E+00 -0.74505805969E-08  0.93827000000E+00  0.93827000000E+00 0. -1.
     999902    2    1    2    0    0 -0.25408670536E-01  0.72127440046E-02 -0.99553239002E-02  0.10157035463E+01  0.10153112632E+01 0.  0.
     999903    2    3    3    0    0 -0.11841146592E+00  0.46473023706E-01  0.13764729325E-01  0.12961465096E+00  0.20723724974E-01 0.  0.
         14    1    1    2    0    0  0.25408670536E-01 -0.72127440046E-02  0.99553239002E-02  0.28226453700E-01  0.00000000000E+00 0. -1.
     999901    1    3    3    0    0  0.93002795387E-01 -0.39260279702E-01 -0.23720053225E-01  0.88608889534E+00  0.88000000000E+00 0.  1.
        -11    1    4    4    0    0 -0.16105753002E-01 -0.21635537141E-05  0.51485165695E-02  0.16916371606E-01  0.51100000000E-03 0.  1.
         11    1    4    4    0    0 -0.10230571292E+00  0.46475187260E-01  0.86162127554E-02  0.11269827936E+00  0.51100000000E-03 0. -1.
</event>
<event>
 8    1  0.1091347E+005  0.1043930E+01  0.7957747E-01            NaN
         13   -1    0    0    0    0  0.00000000000E+00  0.00000000000E+00  0.74505805969E-08  0.10566000000E+00  0.10566000000E+00 0.  1.
     999900   -1    0    0    0    0 -0.00000000000E+00 -0.00000000000E+00 -0.74505805969E-08  0.93827000000E+00  0.93827000000E+00 0. -1.
     999902    2    1    2    0    0  0.20016104954E-01 -0.10584289913E-01 -0.39152090377E-03  0.10212843616E+01  0.10210332621E+01 0.  0.
     999903    2    3    3    0    0 -0.94448601624E-01  0.55120654678E-01 -0.65802656701E-01  0.12904116297E+00  0.19047498268E-01 0.  0.
         14    1    1    2    0    0 -0.20016104954E-01  0.10584289913E-01  0.39152090377E-03  0.22645638413E-01  0.00000000000E+00 0. -1.
     999901    1    3    3    0    0  0.11446470658E+00 -0.65704944591E-01  0.65411135798E-01  0.89224319862E+00  0.88000000000E+00 0.  1.
        -11    1    4    4    0    0 -0.30497760389E-01  0.16027829147E-01 -0.31205316451E-01  0.46486961523E-01  0.51100000000E-03 0. -1.
         11    1    4    4    0    0 -0.63950841236E-01  0.39092825531E-01 -0.34597340251E-01  0.82554201445E-01  0.51100000000E-03 0.  1.
</event>
<event>
 8    1  0.1091347E+005  0.1043930E+01  0.7957747E-01            NaN
         13   -1    0    0    0    0  0.00000000000E+00  0.00000000000E+00  0.74505805969E-08  0.10566000000E+00  0.10566000000E+00 0.  1.
     999900   -1    0    0    0    0 -0.00000000000E+00 -0.00000000000E+00 -0.74505805969E-08  0.93827000000E+00  0.93827000000E+00 0. -1.
     999902    2    1    2    0    0  0.10272045063E-01  0.19929948430E-01  0.73502400257E-02  0.10203345813E+01  0.10200617207E+01 0.  0.
     999903    2    3    3    0    0 -0.22872975794E-03  0.81750438541E-01  0.10281206027E+00  0.13295360429E+00  0.20570722835E-01 0.  0.
         14    1    1    2    0    0 -0.10272045063E-01 -0.19929948430E-01 -0.73502400257E-02  0.23595418678E-01  0.00000000000E+00 0. -1.
     999901    1    3    3    0    0  0.10500774820E-01 -0.61820490111E-01 -0.95461820246E-01  0.88738097703E+00  0.88000000000E+00 0. -1.
        -11    1    4    4    0    0  0.40711206489E-02  0.54323193907E-01  0.81132040170E-01  0.97725393234E-01  0.51100000000E-03 0. -1.
         11    1    4    4    0    0 -0.42998504069E-02  0.27427244634E-01  0.21680020102E-01  0.35228211058E-01  0.51100000000E-03 0.  1.
</event>
<event>
 8    1  0.1091347E+005  0.1043930E+01  0.7957747E-01            NaN
         13   -1    0    0    0    0  0.00000000000E+00  0.00000000000E+00  0.74505805969E-08  0.10566000000E+00  0.10566000000E+00 0.  1.
     999900   -1    0    0    0    0 -0.00000000000E+00 -0.00000000000E+00 -0.74505805969E-08  0.93827000000E+00  0.93827000000E+00 0. -1.
     999902    2    1    2    0    0  0.63088300160E-02 -0.20299448163E-01 -0.11101195265E-01  0.10199486433E+01  0.10196666757E+01 0.  0.
     999903    2    3    3    0    0 -0.96764883988E-01  0.80644474021E-01 -0.12306031321E-01  0.12820018239E+00  0.20417502153E-01 0.  0.
         14    1    1    2    0    0 -0.63088300160E-02  0.20299448163E-01  0.11101195265E-01  0.23981356680E-01  0.00000000000E+00 0.  1.
     999901    1    3    3    0    0  0.10307371400E+00 -0.10094392218E+00  0.12048360554E-02  0.89174846093E+00  0.88000000000E+00 0. -1.
        -11    1    4    4    0    0 -0.30841977573E-01  0.38075946674E-01 -0.75635704890E-02  0.49583001273E-01  0.51100000000E-03 0. -1.
         11    1    4    4    0    0 -0.65922906415E-01  0.42568527347E-01 -0.47424608318E-02  0.78617181115E-01  0.51100000000E-03 0.  1.
</event>
<event>
 8    1  0.1091347E+005  0.1043930E+01  0.7957747E-01            NaN
         13   -1    0    0    0    0  0.00000000000E+00  0.00000000000E+00  0.74505805969E-08  0.10566000000E+00  0.10566000000E+00 0.  1.
     999900   -1    0    0    0    0 -0.00000000000E+00 -0.00000000000E+00 -0.74505805969E-08  0.93827000000E+00  0.93827000000E+00 0.  1.
     999902    2    1    2    0    0  0.77038626766E-02 -0.19117713652E-01 -0.12828050482E-01  0.10196525340E+01  0.10193634753E+01 0.  0.
     999903    2    3    3    0    0  0.53471668715E-01  0.10053073818E+00  0.57083700742E-01  0.12763342152E+00  0.81297431595E-02 0.  0.
         14    1    1    2    0    0 -0.77038626766E-02  0.19117713652E-01  0.12828050482E-01  0.24277465984E-01  0.00000000000E+00 0. -1.
     999901    1    3    3    0    0 -0.45767806038E-01 -0.11964845184E+00 -0.69911751224E-01  0.89201911249E+00  0.88000000000E+00 0.  1.
        -11    1    4    4    0    0  0.44760100675E-01  0.89025114633E-01  0.48337830401E-01  0.11075082219E+00  0.51100000000E-03 0. -1.
         11    1    4    4    0    0  0.87115680400E-02  0.11505623552E-01  0.87458703413E-02  0.16882599328E-01  0.51100000000E-03 0.  1.
</event>
<event>
 8    1  0.1091347E+005  0.1043930E+01  0.7957747E-01            NaN
         13   -1    0    0    0    0  0.00000000000E+00  0.00000000000E+00  0.74505805969E-08  0.10566000000E+00  0.10566000000E+00 0. -1.
     999900   -1    0    0    0    0 -0.00000000000E+00 -0.00000000000E+00 -0.74505805969E-08  0.93827000000E+00  0.93827000000E+00 0.  1.
     999902    2    1    2    0    0 -0.56246678755E-02 -0.21447814983E-01 -0.99756208860E-02  0.10196162453E+01  0.10193263113E+01 0.  0.
     999903    2    3    3    0    0 -0.74670508528E-01 -0.95469505750E-01  0.47548832061E-01  0.13194761257E+00  0.21428244474E-01 0.  0.
         14    1    1    2    0    0  0.56246678755E-02  0.21447814983E-01  0.99756208860E-02  0.24313754715E-01  0.00000000000E+00 0. -1.
     999901    1    3    3    0    0  0.69045840653E-01  0.74021690767E-01 -0.57524452947E-01  0.88766863271E+00  0.88000000000E+00 0.  1.
        -11    1    4    4    0    0 -0.60343325710E-01 -0.65790811803E-01  0.27704412342E-01  0.93474827947E-01  0.51100000000E-03 0.  1.
         11    1    4    4    0    0 -0.14327182818E-01 -0.29678693946E-01  0.19844419719E-01  0.38472784626E-01  0.51100000000E-03 0. -1.
</event>
<event>
 8    1  0.1091347E+005  0.1043930E+01  0.7957747E-01            NaN
         13   -1    0    0    0    0  0.00000000000E+00  0.00000000000E+00  0.74505805969E-08  0.10566000000E+00  0.10566000000E+00 0.  1.
     999900   -1    0    0    0    0 -0.00000000000E+00 -0.00000000000E+00 -0.74505805969E-08  0.93827000000E+00  0.93827000000E+00 0. -1.
     999902    2    1    2    0    0  0.28828624317E-02 -0.14251606689E-01 -0.23729282551E-01  0.10161001951E+01  0.10157190106E+01 0.  0.
     999903    2    3    3    0    0 -0.54502011462E-01 -0.11305112918E+00 -0.20771301944E-01  0.12870900797E+00  0.19584041605E-01 0.  0.
         14    1    1    2    0    0 -0.28828624317E-02  0.14251606689E-01  0.23729282551E-01  0.27829804875E-01  0.00000000000E+00 0.  1.
     999901    1    3    3    0    0  0.57384873893E-01  0.98799522490E-01 -0.29579806067E-02  0.88739118716E+00  0.88000000000E+00 0. -1.
        -11    1    4    4    0    0 -0.25997856454E-01 -0.69848658295E-01 -0.19010643841E-01  0.76918068788E-01  0.51100000000E-03 0.  1.
         11    1    4    4    0    0 -0.28504155007E-01 -0.43202470884E-01 -0.17606581032E-02  0.51790939180E-01  0.51100000000E-03 0. -1.
</event>
<event>
 8    1  0.1091347E+005  0.1043930E+01  0.7957747E-01            NaN
         13   -1    0    0    0    0  0.00000000000E+00  0.00000000000E+00  0.74505805969E-08  0.10566000000E+00  0.10566000000E+00 0. -1.
     999900   -1    0    0    0    0 -0.00000000000E+00 -0.00000000000E+00 -0.74505805969E-08  0.93827000000E+00  0.93827000000E+00 0. -1.
     999902    2    1    2    0    0  0.57483171121E-02  0.29789055353E-03 -0.21448567540E-01  0.10217225027E+01  0.10214811303E+01 0.  0.
     999903    2    3    3    0    0  0.72112080830E-01  0.77682420691E-01 -0.79754366634E-01  0.13392067745E+00  0.18419505049E-01 0.  0.
         14    1    1    2    0    0 -0.57483171121E-02 -0.29789055353E-03  0.21448567540E-01  0.22207497336E-01  0.00000000000E+00 0. -1.
     999901    1    3    3    0    0 -0.66363763718E-01 -0.77384530138E-01  0.58305799093E-01  0.88780182521E+00  0.88000000000E+00 0. -1.
        -11    1    4    4    0    0  0.13246990728E-01  0.20903334249E-01 -0.11057511977E-01  0.27110179604E-01  0.51100000000E-03 0. -1.
         11    1    4    4    0    0  0.58865090102E-01  0.56779086443E-01 -0.68696854656E-01  0.10681049785E+00  0.51100000000E-03 0.  1.
</event>
<event>
 8    1  0.1091347E+005  0.1043930E+01  0.7957747E-01            NaN
         13   -1    0    0    0    0  0.00000000000E+00  0.00000000000E+00  0.74505805969E-08  0.10566000000E+00  0.10566000000E+00 0.  1.
     999900   -1    0    0    0    0 -0.00000000000E+00 -0.00000000000E+00 -0.74505805969E-08  0.93827000000E+00  0.93827000000E+00 0. -1.
     999902    2    1    2    0    0  0.11478408345E-03  0.21316266333E-01  0.10706777576E-01  0.10200756194E+01  0.10197966650E+01 0.  0.
     999903    2    3    3    0    0 -0.32281960776E-01  0.21930359706E-01  0.12480099535E+00  0.13211874171E+00  0.18894650068E-01 0.  0.
         14    1    1    2    0    0 -0.11478408345E-03 -0.21316266333E-01 -0.10706777576E-01  0.23854380558E-01  0.00000000000E+00 0. -1.
     999901    1    3    3    0    0  0.32396744859E-01 -0.61409337343E-03 -0.11409421777E+00  0.88795687774E+00  0.88000000000E+00 0. -1.
        -11    1    4    4    0    0 -0.69203181934E-02  0.72120917356E-02  0.62058734173E-01  0.62860581283E-01  0.51100000000E-03 0. -1.
         11    1    4    4    0    0 -0.25361642582E-01  0.14718267970E-01  0.62742261177E-01  0.69258160423E-01  0.51100000000E-03 0.  1.
</event>
<event>
 8    1  0.1091347E+005  0.1043930E+01  0.7957747E-01            NaN
         13   -1    0    0    0    0  0.00000000000E+00  0.00000000000E+00  0.74505805969E-08  0.10566000000E+00  0.10566000000E+00 0. -1.
     999900   -1    0    0    0    0 -0.00000000000E+00 -0.00000000000E+00 -0.74505805969E-08  0.93827000000E+00  0.93827000000E+00 0.  1.
     999902    2    1    2    0    0 -0.68025755661E-03 -0.23363327248E-01  0.33425075562E-02  0.10203189821E+01  0.10200457563E+01 0.  0.
     999903    2    3    3    0    0  0.11336165420E+00  0.18757912952E-01 -0.57215998787E-01  0.12989936796E+00  0.19936181663E-01 0.  0.
         14    1    1    2    0    0  0.68025755661E-03  0.23363327248E-01 -0.33425075562E-02  0.23611017920E-01  0.00000000000E+00 0.  1.
     999901    1    3    3    0    0 -0.11404191175E+00 -0.42121240201E-01  0.60558506343E-01  0.89041961412E+00  0.88000000000E+00 0.  1.
        -11    1    4    4    0    0  0.95246690427E-01  0.11149603370E-01 -0.40507749946E-01  0.10410275990E+00  0.51100000000E-03 0.  1.
         11    1    4    4    0    0  0.18114963771E-01  0.76083095819E-02 -0.16708248841E-01  0.25796608061E-01  0.51100000000E-03 0. -1.
</event>
<event>
 8    1  0.1091347E+005  0.1043930E+01  0.7957747E-01            NaN
         13   -1    0    0    0    0  0.00000000000E+00  0.00000000000E+00  0.74505805969E-08  0.10566000000E+00  0.10566000000E+00 0.  1.
     999900   -1    0    0    0    0 -0.00000000000E+00 -0.00000000000E+00 -0.74505805969E-08  0.93827000000E+00  0.93827000000E+00 0.  1.
     999902    2    1    2    0    0  0.76107470711E-02 -0.21983154114E-01  0.43257523867E-02  0.10202679065E+01  0.10199934835E+01 0.  0.
     999903    2    3    3    0    0  0.10953617937E+00  0.31804549356E-01 -0.60229413724E-01  0.13040877142E+00  0.19213574191E-01 0.  0.
         14    1    1    2    0    0 -0.76107470711E-02  0.21983154114E-01 -0.43257523867E-02  0.23662093515E-01  0.00000000000E+00 0.  1.
     999901    1    3    3    0    0 -0.10192543230E+00 -0.53787703471E-01  0.64555166111E-01  0.88985913507E+00  0.88000000000E+00 0.  1.
        -11    1    4    4    0    0  0.87028290012E-01  0.32689383207E-01 -0.51224535081E-01  0.10614486870E+00  0.51100000000E-03 0. -1.
         11    1    4    4    0    0  0.22507889361E-01 -0.88483385084E-03 -0.90048786433E-02  0.24263902712E-01  0.51100000000E-03 0.  1.
</event>
<event>
 8    1  0.1091347E+005  0.1043930E+01  0.7957747E-01            NaN
         13   -1    0    0    0    0  0.00000000000E+00  0.00000000000E+00  0.74505805969E-08  0.10566000000E+00  0.10566000000E+00 0. -1.
     999900   -1    0    0    0    0 -0.00000000000E+00 -0.00000000000E+00 -0.74505805969E-08  0.93827000000E+00  0.93827000000E+00 0. -1.
     999902    2    1    2    0    0  0.59088841642E-02  0.20500942629E-01  0.14202879748E-02  0.10225472785E+01  0.10223236846E+01 0.  0.
     999903    2    3    3    0    0 -0.32528292831E-01  0.12899280783E+00 -0.11345522781E-01  0.13496017443E+00  0.19705163992E-01 0.  0.
         14    1    1    2    0    0 -0.59088841642E-02 -0.20500942629E-01 -0.14202879748E-02  0.21382721499E-01  0.00000000000E+00 0.  1.
     999901    1    3    3    0    0  0.38437176996E-01 -0.10849186520E+00  0.12765810756E-01  0.88758710407E+00  0.88000000000E+00 0.  1.
        -11    1    4    4    0    0 -0.30379642588E-01  0.87553928298E-01 -0.36017499136E-02  0.92746141524E-01  0.51100000000E-03 0.  1.
         11    1    4    4    0    0 -0.21486502434E-02  0.41438879535E-01 -0.77437728672E-02  0.42214032906E-01  0.51100000000E-03 0. -1.
</event>
<event>
 8    1  0.1091347E+005  0.1043930E+01  0.7957747E-01            NaN
         13   -1    0    0    0    0  0.00000000000E+00  0.00000000000E+00  0.74505805969E-08  0.10566000000E+00  0.10566000000E+00 0. -1.
     999900   -1    0    0    0    0 -0.00000000000E+00 -0.00000000000E+00 -0.74505805969E-08  0.93827000000E+00  0.93827000000E+00 0. -1.
     999902    2    1    2    0    0 -0.14593983799E-01  0.38749437403E-02 -0.18091361963E-01  0.10203652609E+01  0.10200931177E+01 0.  0.
     999903    2    3    3    0    0  0.12136496007E+00  0.89164647925E-02  0.35063718372E-01  0.12832506340E+00  0.20709917259E-01 0.  0.
         14    1    1    2    0    0  0.14593983799E-01 -0.38749437403E-02  0.18091361963E-01  0.23564739120E-01  0.00000000000E+00 0. -1.
     999901    1    3    3    0    0 -0.13595894387E+00 -0.50415210522E-02 -0.53155080335E-01  0.89204019748E+00  0.88000000000E+00 0. -1.
        -11    1    4    4    0    0  0.96535544480E-01  0.73780818974E-02  0.36330868312E-01  0.10341054373E+00  0.51100000000E-03 0.  1.
         11    1    4    4    0    0  0.24829415593E-01  0.15383828951E-02 -0.12671499404E-02  0.24914519674E-01  0.51100000000E-03 0. -1.
</event>
<event>
 8    1  0.1091347E+005  0.1043930E+01  0.7957747E-01            NaN
         13   -1    0    0    0    0  0.00000000000E+00  0.00000000000E+00  0.74505805969E-08  0.10566000000E+00  0.10566000000E+00 0. -1.
     999900   -1    0    0    0    0 -0.00000000000E+00 -0.00000000000E+00 -0.74505805969E-08  0.93827000000E+00  0.93827000000E+00 0. -1.
     999902    2    1    2    0    0  0.21889516091E-01  0.18951041723E-02  0.91110510752E-02  0.10201444248E+01  0.10198670962E+01 0.  0.
     999903    2    3    3    0    0  0.42444724359E-01 -0.10287056762E+00 -0.65407656202E-01  0.13056508587E+00  0.19625795525E-01 0.  0.
         14    1    1    2    0    0 -0.21889516091E-01 -0.18951041723E-02 -0.91110510752E-02  0.23785575171E-01  0.00000000000E+00 0. -1.
     999901    1    3    3    0    0 -0.20555208267E-01  0.10476567179E+00  0.74518707277E-01  0.88957933896E+00  0.88000000000E+00 0.  1.
        -11    1    4    4    0    0  0.23617205018E-01 -0.38691915297E-01 -0.18983686932E-01  0.49147514411E-01  0.51100000000E-03 0.  1.
         11    1    4    4    0    0  0.18827519341E-01 -0.64178652320E-01 -0.46423969270E-01  0.81417571457E-01  0.51100000000E-03 0. -1.
</event>
<event>
 8    1  0.1091347E+005  0.1043930E+01  0.7957747E-01            NaN
         13   -1    0    0    0    0  0.00000000000E+00  0.00000000000E+00  0.74505805969E-08  0.10566000000E+00  0.10566000000E+00 0. -1.
     999900   -1    0    0    0    0 -0.00000000000E+00 -0.00000000000E+00 -0.74505805969E-08  0.93827000000E+00  0.93827000000E+00 0. -1.
     999902    2    1    2    0    0 -0.81338365652E-02 -0.19851349178E-01 -0.89761860673E-02  0.10206747366E+01  0.10204097758E+01 0.  0.
     999903    2    3    3    0    0  0.88913653153E-01  0.70943108571E-02  0.91544354153E-01  0.12924405341E+00  0.19175234038E-01 0.  0.
         14    1    1    2    0    0  0.81338365652E-02  0.19851349178E-01  0.89761860673E-02  0.23255263442E-01  0.00000000000E+00 0. -1.
     999901    1    3    3    0    0 -0.97047489718E-01 -0.26945660035E-01 -0.10052054022E+00  0.89143068315E+00  0.88000000000E+00 0. -1.
        -11    1    4    4    0    0  0.39395467134E-01  0.10395559925E-02  0.27486229240E-01  0.48050363435E-01  0.51100000000E-03 0. -1.
         11    1    4    4    0    0  0.49518186019E-01  0.60547548646E-02  0.64058124913E-01  0.81193689973E-01  0.51100000000E-03 0.  1.
</event>
<event>
 8    1  0.1091347E+005  0.1043930E+01  0.7957747E-01            NaN
         13   -1    0    0    0    0  0.00000000000E+00  0.00000000000E+00  0.74505805969E-08  0.10566000000E+00  0.10566000000E+00 0.  1.
     999900   -1    0    0    0    0 -0.00000000000E+00 -0.00000000000E+00 -0.74505805969E-08  0.93827000000E+00  0.93827000000E+00 0. -1.
     999902    2    1    2    0    0  0.12903653322E-01  0.27774530303E-05 -0.19487214612E-01  0.10205578839E+01  0.10202902227E+01 0.  0.
     999903    2    3    3    0    0 -0.10772225126E+00  0.55667663165E-01  0.38049530687E-01  0.12872849137E+00  0.20500867421E-01 0.  0.
         14    1    1    2    0    0 -0.12903653322E-01 -0.27774530303E-05  0.19487214612E-01  0.23372116081E-01  0.00000000000E+00 0.  1.
     999901    1    3    3    0    0  0.12062590458E+00 -0.55664885712E-01 -0.57536745300E-01  0.89182939255E+00  0.88000000000E+00 0. -1.
        -11    1    4    4    0    0 -0.47121880414E-01  0.25397661519E-01  0.62570839852E-02  0.53897356571E-01  0.51100000000E-03 0.  1.
         11    1    4    4    0    0 -0.60600370849E-01  0.30270001645E-01  0.31792446702E-01  0.74831134796E-01  0.51100000000E-03 0. -1.
</event>
<event>
 8    1  0.1091347E+005  0.1043930E+01  0.7957747E-01            NaN
         13   -1    0    0    0    0  0.00000000000E+00  0.00000000000E+00  0.74505805969E-08  0.10566000000E+00  0.10566000000E+00 0. -1.
     999900   -1    0    0    0    0 -0.00000000000E+00 -0.00000000000E+00 -0.74505805969E-08  0.93827000000E+00  0.93827000000E+00 0. -1.
     999902    2    1    2    0    0  0.11417077256E-01  0.10197626667E-01  0.19219601923E-01  0.10193589939E+01  0.10190628166E+01 0.  0.
     999903    2    3    3    0    0 -0.56375930874E-01 -0.11227367749E+00 -0.12939159416E-01  0.12771483942E+00  0.18974565143E-01 0.  0.
         14    1    1    2    0    0 -0.11417077256E-01 -0.10197626667E-01 -0.19219601923E-01  0.24571006100E-01  0.00000000000E+00 0.  1.
     999901    1    3    3    0    0  0.67793008130E-01  0.12247130415E+00  0.32158761339E-01  0.89164415448E+00  0.88000000000E+00 0. -1.
        -11    1    4    4    0    0 -0.13666929911E-01 -0.45944024789E-01 -0.86155099293E-02  0.48704481512E-01  0.51100000000E-03 0.  1.
         11    1    4    4    0    0 -0.42709000963E-01 -0.66329652698E-01 -0.43236494870E-02  0.79010357904E-01  0.51100000000E-03 0. -1.
</event>
<event>
 8    1  0.1091347E+005  0.1043930E+01  0.7957747E-01            NaN
         13   -1    0    0    0    0  0.00000000000E+00  0.00000000000E+00  0.74505805969E-08  0.10566000000E+00  0.10566000000E+00 0. -1.
     999900   -1    0    0    0    0 -0.00000000000E+00 -0.00000000000E+00 -0.74505805969E-08  0.93827000000E+00  0.93827000000E+00 0. -1.
     999902    2    1    2    0    0  0.21394866753E-01  0.91994352600E-02 -0.56135436165E-02  0.10199741697E+01  0.10196928092E+01 0.  0.
     999903    2    3    3    0    0  0.37352675632E-01 -0.16178765258E-01 -0.12343527716E+00  0.13161575915E+00  0.20723551507E-01 0.  0.
         14    1    1    2    0    0 -0.21394866753E-01 -0.91994352600E-02  0.56135436165E-02  0.23955830280E-01  0.00000000000E+00 0.  1.
     999901    1    3    3    0    0 -0.15957808879E-01  0.25378200518E-01  0.11782173355E+00  0.88835841057E+00  0.88000000000E+00 0.  1.
        -11    1    4    4    0    0  0.10513679344E-01  0.10169591320E-02 -0.56442928711E-01  0.57425055348E-01  0.51100000000E-03 0.  1.
         11    1    4    4    0    0  0.26838996288E-01 -0.17195724390E-01 -0.66992348453E-01  0.74190703807E-01  0.51100000000E-03 0. -1.
</event>
<event>
 8    1  0.1091347E+005  0.1043930E+01  0.7957747E-01            NaN
         13   -1    0    0    0    0  0.00000000000E+00  0.00000000000E+00  0.74505805969E-08  0.10566000000E+00  0.10566000000E+00 0.  1.
     999900   -1    0    0    0    0 -0.00000000000E+00 -0.00000000000E+00 -0.74505805969E-08  0.93827000000E+00  0.93827000000E+00 0.  1.
     999902    2    1    2    0    0 -0.21186327364E-01  0.76644816966E-02 -0.84991334819E-02  0.10198501325E+01  0.10195658158E+01 0.  0.
     999903    2    3    3    0    0 -0.29693320530E-01 -0.96809746135E-02 -0.12658733850E+00  0.13175213235E+00  0.18943483225E-01 0.  0.
         14    1    1    2    0    0  0.21186327364E-01 -0.76644816966E-02  0.84991334819E-02  0.24079867458E-01  0.00000000000E+00 0. -1.
     999901    1    3    3    0    0  0.85069931662E-02  0.17345456310E-01  0.11808820502E+00  0.88809800020E+00  0.88000000000E+00 0. -1.
        -11    1    4    4    0    0 -0.77467416309E-02 -0.26734611599E-03 -0.95901798149E-02  0.12341642910E-01  0.51100000000E-03 0. -1.
         11    1    4    4    0    0 -0.21946578899E-01 -0.94136284975E-02 -0.11699715868E+00  0.11941048944E+00  0.51100000000E-03 0.  1.
</event>
<event>
 8    1  0.1091347E+005  0.1043930E+01  0.7957747E-01            NaN
         13   -1    0    0    0    0  0.00000000000E+00  0.00000000000E+00  0.74505805969E-08  0.10566000000E+00  0.10566000000E+00 0.  1.
     999900   -1    0    0    0    0 -0.00000000000E+00 -0.00000000000E+00 -0.74505805969E-08  0.93827000000E+00  0.93827000000E+00 0.  1.
     999902    2    1    2    0    0  0.10680876838E-01  0.20164270241E-01 -0.78485059556E-02  0.10197995634E+01  0.10195140370E+01 0.  0.
     999903    2    3    3    0    0 -0.20589788827E-01  0.31259075611E-01  0.12269821300E+00  0.12955049991E+00  0.18094511327E-01 0.  0.
         14    1    1    2    0    0 -0.10680876838E-01 -0.20164270241E-01  0.78485059556E-02  0.24130436592E-01  0.00000000000E+00 0. -1.
     999901    1    3    3    0    0  0.31270665665E-01 -0.11094805370E-01 -0.13054671896E+00  0.89024906350E+00  0.88000000000E+00 0.  1.
        -11    1    4    4    0    0 -0.13080956755E-01  0.26913892627E-01  0.69839345872E-01  0.75982000492E-01  0.51100000000E-03 0. -1.
         11    1    4    4    0    0 -0.75088320714E-02  0.43451829841E-02  0.52858867129E-01  0.53568499414E-01  0.51100000000E-03 0.  1.
</event>
<event>
 8    1  0.1091347E+005  0.1043930E+01  0.7957747E-01            NaN
         13   -1    0    0    0    0  0.00000000000E+00  0.00000000000E+00  0.74505805969E-08  0.10566000000E+00  0.10566000000E+00 0. -1.
     999900   -1    0    0    0    0 -0.00000000000E+00 -0.00000000000E+00 -0.74505805969E-08  0.93827000000E+00  0.93827000000E+00 0. -1.
     999902    2    1    2    0    0 -0.21738211628E-01  0.78245729953E-02 -0.44769618151E-02  0.10203966837E+01  0.10201252743E+01 0.  0.
     999903    2    3    3    0    0  0.48253100443E-01 -0.58090035684E-01 -0.10349036596E+00  0.12964016616E+00  0.19836907187E-01 0.  0.
         14    1    1    2    0    0  0.21738211628E-01 -0.78245729953E-02  0.44769618151E-02  0.23533316265E-01  0.00000000000E+00 0.  1.
     999901    1    3    3    0    0 -0.69991312071E-01  0.65914608679E-01  0.99013404147E-01  0.89075651758E+00  0.88000000000E+00 0.  1.
        -11    1    4    4    0    0  0.14540544013E-01 -0.28860910920E-01 -0.54589900756E-01  0.63440507445E-01  0.51100000000E-03 0.  1.
         11    1    4    4    0    0  0.33712556430E-01 -0.29229124763E-01 -0.48900465206E-01  0.66199658714E-01  0.51100000000E-03 0. -1.
</event>
<event>
 8    1  0.1091347E+005  0.1043930E+01  0.7957747E-01            NaN
         13   -1    0    0    0    0  0.00000000000E+00  0.00000000000E+00  0.74505805969E-08  0.10566000000E+00  0.10566000000E+00 0.  1.
     999900   -1    0    0    0    0 -0.00000000000E+00 -0.00000000000E+00 -0.74505805969E-08  0.93827000000E+00  0.93827000000E+00 0.  1.
     999902    2    1    2    0    0 -0.89527673733E-02  0.69289110363E-03  0.20667909387E-01  0.10213957013E+01  0.10211470922E+01 0.  0.
     999903    2    3    3    0    0 -0.48871727633E-02  0.11606523924E+00  0.61431935685E-01  0.13292003270E+00  0.19970682324E-01 0.  0.
         14    1    1    2    0    0  0.89527673733E-02 -0.69289110363E-03 -0.20667909387E-01  0.22534298750E-01  0.00000000000E+00 0. -1.
     999901    1    3    3    0    0 -0.40655946100E-02 -0.11537234814E+00 -0.40764026298E-01  0.88847566855E+00  0.88000000000E+00 0.  1.
        -11    1    4    4    0    0  0.60380043737E-02  0.62301140874E-01  0.27184842743E-01  0.68243435193E-01  0.51100000000E-03 0.  1.
         11    1    4    4    0    0 -0.10925177137E-01  0.53764098366E-01  0.34247092941E-01  0.64676597502E-01  0.51100000000E-03 0. -1.
</event>
<event>
 8    1  0.1091347E+005  0.1043930E+01  0.7957747E-01            NaN
         13   -1    0    0    0    0  0.00000000000E+00  0.00000000000E+00  0.74505805969E-08  0.10566000000E+00  0.10566000000E+00 0. -1.
     999900   -1    0    0    0    0 -0.00000000000E+00 -0.00000000000E+00 -0.74505805969E-08  0.93827000000E+00  0.93827000000E+00 0. -1.
     999902    2    1    2    0    0  0.14568482179E-01  0.11976187099E-01 -0.43930019740E-02  0.10245659044E+01  0.10243828993E+01 0.  0.
     999903    2    3    3    0    0 -0.25697548120E-01  0.11097689957E+00  0.69551739199E-01  0.13502089770E+00  0.20419651631E-01 0.  0.
         14    1    1    2    0    0 -0.14568482179E-01 -0.11976187099E-01  0.43930019740E-02  0.19364095557E-01  0.00000000000E+00 0. -1.
     999901    1    3    3    0    0  0.40266030299E-01 -0.99000712475E-01 -0.73944741173E-01  0.88954500674E+00  0.88000000000E+00 0. -1.
        -11    1    4    4    0    0 -0.14483850513E-01  0.56752115539E-01  0.47516340048E-01  0.75423127994E-01  0.51100000000E-03 0.  1.
         11    1    4    4    0    0 -0.11213697608E-01  0.54224784035E-01  0.22035399151E-01  0.59597769710E-01  0.51100000000E-03 0. -1.
</event>
<event>
 8    1  0.1091347E+005  0.1043930E+01  0.7957747E-01            NaN
         13   -1    0    0    0    0  0.00000000000E+00  0.00000000000E+00  0.74505805969E-08  0.10566000000E+00  0.10566000000E+00 0. -1.
     999900   -1    0    0    0    0 -0.00000000000E+00 -0.00000000000E+00 -0.74505805969E-08  0.93827000000E+00  0.93827000000E+00 0.  1.
     999902    2    1    2    0    0 -0.72015270407E-02  0.20608810395E-01  0.53826938760E-03  0.10220925370E+01  0.10218592268E+01 0.  0.
     999903    2    3    3    0    0  0.10458340116E+00  0.67816456636E-03  0.76514552759E-01  0.13155028842E+00  0.22646277736E-01 0.  0.
         14    1    1    2    0    0  0.72015270407E-02 -0.20608810395E-01 -0.53826938760E-03  0.21837463029E-01  0.00000000000E+00 0.  1.
     999901    1    3    3    0    0 -0.11178492820E+00  0.19930645828E-01 -0.75976283371E-01  0.89054224855E+00  0.88000000000E+00 0.  1.
        -11    1    4    4    0    0  0.90737403696E-01  0.61111063060E-02  0.58291081898E-01  0.10802191166E+00  0.51100000000E-03 0. -1.
         11    1    4    4    0    0  0.13845997461E-01 -0.54329417396E-02  0.18223470861E-01  0.23528376758E-01  0.51100000000E-03 0.  1.
</event>
<event>
 8    1  0.1091347E+005  0.1043930E+01  0.7957747E-01            NaN
         13   -1    0    0    0    0  0.00000000000E+00  0.00000000000E+00  0.74505805969E-08  0.10566000000E+00  0.10566000000E+00 0.  1.
     999900   -1    0    0    0    0 -0.00000000000E+00 -0.00000000000E+00 -0.74505805969E-08  0.93827000000E+00  0.93827000000E+00 0.  1.
     999902    2    1    2    0    0  0.15358589108E-01 -0.18498222355E-01 -0.23955896030E-04  0.10198868916E+01  0.10196034526E+01 0.  0.
     999903    2    3    3    0    0 -0.50567045520E-01  0.99571588773E-01 -0.58344585120E-01  0.12764927444E+00  0.20462631046E-01 0.  0.
         14    1    1    2    0    0 -0.15358589108E-01  0.18498222355E-01  0.23955896030E-04  0.24043108443E-01  0.00000000000E+00 0.  1.
     999901    1    3    3    0    0  0.65925634629E-01 -0.11806981113E+00  0.58320629224E-01  0.89223761711E+00  0.88000000000E+00 0. -1.
        -11    1    4    4    0    0 -0.25774246209E-01  0.51801397195E-01 -0.41662149493E-01  0.71300016412E-01  0.51100000000E-03 0.  1.
         11    1    4    4    0    0 -0.24792799311E-01  0.47770191579E-01 -0.16682435628E-01  0.56349258031E-01  0.51100000000E-03 0. -1.
</event>
<event>
 8    1  0.1091347E+005  0.1043930E+01  0.7957747E-01            NaN
         13   -1    0    0    0    0  0.00000000000E+00  0.00000000000E+00  0.74505805969E-08  0.10566000000E+00  0.10566000000E+00 0. -1.
     999900   -1    0    0    0    0 -0.00000000000E+00 -0.00000000000E+00 -0.74505805969E-08  0.93827000000E+00  0.93827000000E+00 0. -1.
     999902    2    1    2    0    0  0.10870034443E-01 -0.75937864635E-02 -0.19495787197E-01  0.10203522783E+01  0.10200798316E+01 0.  0.
     999903    2    3    3    0    0  0.28387841941E-01  0.10019065242E+00 -0.78132269940E-01  0.13166639682E+00  0.19681261238E-01 0.  0.
         14    1    1    2    0    0 -0.10870034443E-01  0.75937864635E-02  0.19495787197E-01  0.23577721690E-01  0.00000000000E+00 0.  1.
     999901    1    3    3    0    0 -0.17517807498E-01 -0.10778443888E+00  0.58636482743E-01  0.88868588149E+00  0.88000000000E+00 0.  1.
        -11    1    4    4    0    0  0.50009198430E-02  0.27960117942E-01 -0.32153051623E-01  0.42905212320E-01  0.51100000000E-03 0.  1.
         11    1    4    4    0    0  0.23386922098E-01  0.72230534479E-01 -0.45979218317E-01  0.88761184503E-01  0.51100000000E-03 0. -1.
</event>
<event>
 8    1  0.1091347E+005  0.1043930E+01  0.7957747E-01            NaN
         13   -1    0    0    0    0  0.00000000000E+00  0.00000000000E+00  0.74505805969E-08  0.10566000000E+00  0.10566000000E+00 0. -1.
     999900   -1    0    0    0    0 -0.00000000000E+00 -0.00000000000E+00 -0.74505805969E-08  0.93827000000E+00  0.93827000000E+00 0.  1.
     999902    2    1    2    0    0  0.83256337636E-02  0.18317370205E-01 -0.11846766693E-01  0.10205807364E+01  0.10203136045E+01 0.  0.
     999903    2    3    3    0    0  0.43393223276E-01  0.65192873654E-01 -0.10657838741E+00  0.13356262577E+00  0.18626318373E-01 0.  0.
         14    1    1    2    0    0 -0.83256337636E-02 -0.18317370205E-01  0.11846766693E-01  0.23349263583E-01  0.00000000000E+00 0. -1.
     999901    1    3    3    0    0 -0.35067589513E-01 -0.46875503449E-01  0.94731620721E-01  0.88701811065E+00  0.88000000000E+00 0.  1.
        -11    1    4    4    0    0  0.15616142671E-01  0.15760286048E-01 -0.18922761781E-01  0.29164748630E-01  0.51100000000E-03 0. -1.
         11    1    4    4    0    0  0.27777080606E-01  0.49432587606E-01 -0.87655625633E-01  0.10439787714E+00  0.51100000000E-03 0.  1.
</event>
<event>
 8    1  0.1091347E+005  0.1043930E+01  0.7957747E-01            NaN
         13   -1    0    0    0    0  0.00000000000E+00  0.00000000000E+00  0.74505805969E-08  0.10566000000E+00  0.10566000000E+00 0. -1.
     999900   -1    0    0    0    0 -0.00000000000E+00 -0.00000000000E+00 -0.74505805969E-08  0.93827000000E+00  0.93827000000E+00 0.  1.
     999902    2    1    2    0    0 -0.10260881404E-01 -0.13419426590E-01 -0.17026135900E-01  0.10199455050E+01  0.10196634627E+01 0.  0.
     999903    2    3    3    0    0 -0.32443674539E-01  0.94457284107E-01 -0.81920495513E-01  0.13070946269E+00  0.19980628426E-01 0.  0.
         14    1    1    2    0    0  0.10260881404E-01  0.13419426590E-01  0.17026135900E-01  0.23984495010E-01  0.00000000000E+00 0. -1.
     999901    1    3    3    0    0  0.22182793135E-01 -0.10787671070E+00  0.64894359613E-01  0.88923604230E+00  0.88000000000E+00 0. -1.
        -11    1    4    4    0    0 -0.19408181672E-01  0.68773057701E-01 -0.47419140119E-01  0.85762736384E-01  0.51100000000E-03 0.  1.
         11    1    4    4    0    0 -0.13035492867E-01  0.25684226406E-01 -0.34501355394E-01  0.44946726303E-01  0.51100000000E-03 0. -1.
</event>
<event>
 8    1  0.1091347E+005  0.1043930E+01  0.7957747E-01            NaN
         13   -1    0    0    0    0  0.00000000000E+00  0.00000000000E+00  0.74505805969E-08  0.10566000000E+00  0.10566000000E+00 0.  1.
     999900   -1    0    0    0    0 -0.00000000000E+00 -0.00000000000E+00 -0.74505805969E-08  0.93827000000E+00  0.93827000000E+00 0.  1.
     999902    2    1    2    0    0  0.11346214630E-02  0.74630823851E-02 -0.17012043470E-01  0.10253183212E+01  0.10251493868E+01 0.  0.
     999903    2    3    3    0    0 -0.75593312945E-01 -0.30596796485E-01  0.10336971390E+00  0.13300251511E+00  0.18811123198E-01 0.  0.
         14    1    1    2    0    0 -0.11346214630E-02 -0.74630823851E-02  0.17012043470E-01  0.18611678795E-01  0.00000000000E+00 0.  1.
     999901    1    3    3    0    0  0.76727934408E-01  0.38059878870E-01 -0.12038175737E+00  0.89231580609E+00  0.88000000000E+00 0.  1.
        -11    1    4    4    0    0 -0.60021584823E-01 -0.30576004444E-01  0.90352336674E-01  0.11269999359E+00  0.51100000000E-03 0. -1.
         11    1    4    4    0    0 -0.15571728122E-01 -0.20792040868E-04  0.13017377230E-01  0.20302521518E-01  0.51100000000E-03 0.  1.
</event>
<event>
 8    1  0.1091347E+005  0.1043930E+01  0.7957747E-01            NaN
         13   -1    0    0    0    0  0.00000000000E+00  0.00000000000E+00  0.74505805969E-08  0.10566000000E+00  0.10566000000E+00 0. -1.
     999900   -1    0    0    0    0 -0.00000000000E+00 -0.00000000000E+00 -0.74505805969E-08  0.93827000000E+00  0.93827000000E+00 0. -1.
     999902    2    1    2    0    0 -0.16922953307E-02  0.61800678507E-02  0.22845171920E-01  0.10202032433E+01  0.10199273007E+01 0.  0.
     999903    2    3    3    0    0 -0.52014312482E-01  0.11755885503E+00 -0.15137285017E-01  0.13094500936E+00  0.19796084949E-01 0.  0.
         14    1    1    2    0    0  0.16922953307E-02 -0.61800678507E-02 -0.22845171920E-01  0.23726756672E-01  0.00000000000E+00 0.  1.
     999901    1    3    3    0    0  0.50322017151E-01 -0.11137878718E+00  0.37982456936E-01  0.88925823397E+00  0.88000000000E+00 0. -1.
        -11    1    4    4    0    0 -0.45467244566E-02  0.21620538760E-01 -0.85723587756E-02  0.23703730836E-01  0.51100000000E-03 0. -1.
         11    1    4    4    0    0 -0.47467588025E-01  0.95938316272E-01 -0.65649262412E-02  0.10724127852E+00  0.51100000000E-03 0.  1.
</event>
<event>
 8    1  0.1091347E+005  0.1043930E+01  0.7957747E-01            NaN
         13   -1    0    0    0    0  0.00000000000E+00  0.00000000000E+00  0.74505805969E-08  0.10566000000E+00  0.10566000000E+00 0.  1.
     999900   -1    0    0    0    0 -0.00000000000E+00 -0.00000000000E+00 -0.74505805969E-08  0.93827000000E+00  0.93827000000E+00 0. -1.
     999902    2    1    2    0    0  0.20308115674E-01 -0.16827160803E-02  0.12600885912E-01  0.10199710054E+01  0.10196895697E+01 0.  0.
     999903    2    3    3    0    0  0.10908399825E+00  0.56497515768E-01 -0.43455907262E-01  0.13182210981E+00  0.19934011039E-01 0.  0.
         14    1    1    2    0    0 -0.20308115674E-01  0.16827160803E-02 -0.12600885912E-01  0.23958994583E-01  0.00000000000E+00 0. -1.
     999901    1    3    3    0    0 -0.88775882579E-01 -0.58180231848E-01  0.56056793174E-01  0.88814889561E+00  0.88000000000E+00 0. -1.
        -11    1    4    4    0    0  0.58206459068E-01  0.22649687728E-01 -0.29799466944E-01  0.69204548858E-01  0.51100000000E-03 0.  1.
         11    1    4    4    0    0  0.50877539185E-01  0.33847828040E-01 -0.13656440318E-01  0.62617560953E-01  0.51100000000E-03 0. -1.
</event>
<event>
 8    1  0.1091347E+005  0.1043930E+01  0.7957747E-01            NaN
         13   -1    0    0    0    0  0.00000000000E+00  0.00000000000E+00  0.74505805969E-08  0.10566000000E+00  0.10566000000E+00 0. -1.
     999900   -1    0    0    0    0 -0.00000000000E+00 -0.00000000000E+00 -0.74505805969E-08  0.93827000000E+00  0.93827000000E+00 0.  1.
     999902    2    1    2    0    0  0.15034819539E-01  0.17552407879E-01 -0.33292814076E-03  0.10208162884E+01  0.10205545802E+01 0.  0.
     999903    2    3    3    0    0  0.12656457345E+00  0.31092567270E-01  0.19765709350E-01  0.13344591641E+00  0.20779565664E-01 0.  0.
         14    1    1    2    0    0 -0.15034819539E-01 -0.17552407879E-01  0.33292814076E-03  0.23113711559E-01  0.00000000000E+00 0.  1.
     999901    1    3    3    0    0 -0.11152975391E+00 -0.13540159391E-01 -0.20098637491E-01  0.88737037203E+00  0.88000000000E+00 0. -1.
        -11    1    4    4    0    0  0.83655326881E-01  0.29403642503E-01  0.87127359023E-02  0.89100846214E-01  0.51100000000E-03 0. -1.
         11    1    4    4    0    0  0.42909246568E-01  0.16889247667E-02  0.11052973448E-01  0.44345070199E-01  0.51100000000E-03 0.  1.
</event>
<event>
 8    1  0.1091347E+005  0.1043930E+01  0.7957747E-01            NaN
         13   -1    0    0    0    0  0.00000000000E+00  0.00000000000E+00  0.74505805969E-08  0.10566000000E+00  0.10566000000E+00 0. -1.
     999900   -1    0    0    0    0 -0.00000000000E+00 -0.00000000000E+00 -0.74505805969E-08  0.93827000000E+00  0.93827000000E+00 0. -1.
     999902    2    1    2    0    0  0.41456703347E-02 -0.48211535255E-03  0.22757228990E-01  0.10207932222E+01  0.10205309853E+01 0.  0.
     999903    2    3    3    0    0 -0.33133028029E-01  0.12019038343E+00  0.37563524156E-01  0.13165274974E+00  0.19439710683E-01 0.  0.
         14    1    1    2    0    0 -0.41456703347E-02  0.48211535255E-03 -0.22757228990E-01  0.23136777845E-01  0.00000000000E+00 0.  1.
     999901    1    3    3    0    0  0.37278698364E-01 -0.12067249878E+00 -0.14806295165E-01  0.88914047242E+00  0.88000000000E+00 0. -1.
        -11    1    4    4    0    0 -0.98172217271E-02  0.64149897484E-01  0.25715158490E-01  0.69807719393E-01  0.51100000000E-03 0. -1.
         11    1    4    4    0    0 -0.23315806302E-01  0.56040485944E-01  0.11848365665E-01  0.61845030344E-01  0.51100000000E-03 0.  1.
</event>
<event>
 8    1  0.1091347E+005  0.1043930E+01  0.7957747E-01            NaN
         13   -1    0    0    0    0  0.00000000000E+00  0.00000000000E+00  0.74505805969E-08  0.10566000000E+00  0.10566000000E+00 0. -1.
     999900   -1    0    0    0    0 -0.00000000000E+00 -0.00000000000E+00 -0.74505805969E-08  0.93827000000E+00  0.93827000000E+00 0.  1.
     999902    2    1    2    0    0  0.70290490456E-02 -0.12449620916E-01 -0.20103850119E-01  0.10192608820E+01  0.10189623056E+01 0.  0.
     999903    2    3    3    0    0 -0.40689131639E-01  0.30114530999E-01 -0.11976888540E+00  0.13132966226E+00  0.18450037108E-01 0.  0.
         14    1    1    2    0    0 -0.70290490456E-02  0.12449620916E-01  0.20103850119E-01  0.24669117963E-01  0.00000000000E+00 0. -1.
     999901    1    3    3    0    0  0.47718180685E-01 -0.42564151915E-01  0.99665035279E-01  0.88793121978E+00  0.88000000000E+00 0. -1.
        -11    1    4    4    0    0 -0.32480348116E-01  0.14281818417E-01 -0.70437872439E-01  0.78871403853E-01  0.51100000000E-03 0.  1.
         11    1    4    4    0    0 -0.82087835230E-02  0.15832712581E-01 -0.49331012959E-01  0.52458258408E-01  0.51100000000E-03 0. -1.
</event>
<event>
 8    1  0.1091347E+005  0.1043930E+01  0.7957747E-01            NaN
         13   -1    0    0    0    0  0.00000000000E+00  0.00000000000E+00  0.74505805969E-08  0.10566000000E+00  0.10566000000E+00 0. -1.
     999900   -1    0    0    0    0 -0.00000000000E+00 -0.00000000000E+00 -0.74505805969E-08  0.93827000000E+00  0.93827000000E+00 0. -1.
     999902    2    1    2    0    0  0.25182636066E-01 -0.72894350393E-02 -0.58195782930E-02  0.10170754191E+01  0.10167208268E+01 0.  0.
     999903    2    3    3    0    0 -0.40290113568E-01 -0.29524031314E-01  0.11411501047E+00  0.12625256143E+00  0.20555096106E-01 0.  0.
         14    1    1    2    0    0 -0.25182636066E-01  0.72894350393E-02  0.58195782930E-02  0.26854580874E-01  0.00000000000E+00 0. -1.
     999901    1    3    3    0    0  0.65472749634E-01  0.22234596275E-01 -0.11993458876E+00  0.89082285770E+00  0.88000000000E+00 0. -1.
        -11    1    4    4    0    0 -0.10069729963E-01 -0.14551239834E-01  0.22525830571E-01  0.28649820352E-01  0.51100000000E-03 0. -1.
         11    1    4    4    0    0 -0.30220383605E-01 -0.14972791480E-01  0.91589179899E-01  0.97602741076E-01  0.51100000000E-03 0.  1.
</event>
<event>
 8    1  0.1091347E+005  0.1043930E+01  0.7957747E-01            NaN
         13   -1    0    0    0    0  0.00000000000E+00  0.00000000000E+00  0.74505805969E-08  0.10566000000E+00  0.10566000000E+00 0. -1.
     999900   -1    0    0    0    0 -0.00000000000E+00 -0.00000000000E+00 -0.74505805969E-08  0.93827000000E+00  0.93827000000E+00 0.  1.
     999902    2    1    2    0    0  0.21115238837E-01 -0.16148843873E-02  0.97838740089E-02  0.10206022193E+01  0.10203355843E+01 0.  0.
     999903    2    3    3    0    0  0.15678025996E-01 -0.12855977599E+00 -0.74213952341E-02  0.13131003440E+00  0.20342849496E-01 0.  0.
         14    1    1    2    0    0 -0.21115238837E-01  0.16148843873E-02 -0.97838740089E-02  0.23327780721E-01  0.00000000000E+00 0. -1.
     999901    1    3    3    0    0  0.54372128415E-02  0.12694489161E+00  0.17205269243E-01  0.88929218487E+00  0.88000000000E+00 0.  1.
        -11    1    4    4    0    0  0.10454765770E-01 -0.88565860486E-01 -0.14510537122E-01  0.90355025203E-01  0.51100000000E-03 0. -1.
         11    1    4    4    0    0  0.52232602257E-02 -0.39993915507E-01  0.70891418879E-02  0.40955009202E-01  0.51100000000E-03 0.  1.
</event>
<event>
 8    1  0.1091347E+005  0.1043930E+01  0.7957747E-01            NaN
         13   -1    0    0    0    0  0.00000000000E+00  0.00000000000E+00  0.74505805969E-08  0.10566000000E+00  0.10566000000E+00 0.  1.
     999900   -1    0    0    0    0 -0.00000000000E+00 -0.00000000000E+00 -0.74505805969E-08  0.93827000000E+00  0.93827000000E+00 0.  1.
     999902    2    1    2    0    0  0.10820486706E-01  0.57500777841E-02  0.20544728891E-01  0.10200086244E+01  0.10197280822E+01 0.  0.
     999903    2    3    3    0    0  0.20990014378E-01 -0.81642026559E-01 -0.94412263860E-01  0.12818133762E+00  0.20267672375E-01 0.  0.
         14    1    1    2    0    0 -0.10820486706E-01 -0.57500777841E-02 -0.20544728891E-01  0.23921375635E-01  0.00000000000E+00 0. -1.
     999901    1    3    3    0    0 -0.10169527672E-01  0.87392104343E-01  0.11495699275E+00  0.89182728674E+00  0.88000000000E+00 0. -1.
        -11    1    4    4    0    0  0.16063713320E-01 -0.29882168550E-01 -0.45809200415E-01  0.57006410574E-01  0.51100000000E-03 0.  1.
         11    1    4    4    0    0  0.49263010574E-02 -0.51759858009E-01 -0.48603063445E-01  0.71174927049E-01  0.51100000000E-03 0. -1.
</event>
<event>
 8    1  0.1091347E+005  0.1043930E+01  0.7957747E-01            NaN
         13   -1    0    0    0    0  0.00000000000E+00  0.00000000000E+00  0.74505805969E-08  0.10566000000E+00  0.10566000000E+00 0.  1.
     999900   -1    0    0    0    0 -0.00000000000E+00 -0.00000000000E+00 -0.74505805969E-08  0.93827000000E+00  0.93827000000E+00 0.  1.
     999902    2    1    2    0    0  0.11312956592E-02  0.19864114003E-01 -0.15256331185E-01  0.10188577345E+01  0.10185491960E+01 0.  0.
     999903    2    3    3    0    0 -0.22384230260E-01 -0.11446345164E+00 -0.48134079749E-01  0.12774729176E+00  0.19988631616E-01 0.  0.
         14    1    1    2    0    0 -0.11312956592E-02 -0.19864114003E-01  0.15256331185E-01  0.25072265478E-01  0.00000000000E+00 0.  1.
     999901    1    3    3    0    0  0.23515525919E-01  0.13432756564E+00  0.32877748564E-01  0.89111044276E+00  0.88000000000E+00 0.  1.
        -11    1    4    4    0    0  0.35478330264E-02 -0.97425709000E-02 -0.54551845967E-02  0.11727103944E-01  0.51100000000E-03 0. -1.
         11    1    4    4    0    0 -0.25932063286E-01 -0.10472088074E+00 -0.42678895153E-01  0.11602018782E+00  0.51100000000E-03 0.  1.
</event>
<event>
 8    1  0.1091347E+005  0.1043930E+01  0.7957747E-01            NaN
         13   -1    0    0    0    0  0.00000000000E+00  0.00000000000E+00  0.74505805969E-08  0.10566000000E+00  0.10566000000E+00 0.  1.
     999900   -1    0    0    0    0 -0.00000000000E+00 -0.00000000000E+00 -0.74505805969E-08  0.93827000000E+00  0.93827000000E+00 0.  1.
     999902    2    1    2    0    0  0.29535658833E-02  0.27465656187E-01  0.91289650519E-02  0.10148366361E+01  0.10144195257E+01 0.  0.
     999903    2    3    3    0    0 -0.99851648385E-01 -0.60256593421E-01  0.37537836424E-01  0.12406664942E+00  0.19550846525E-01 0.  0.
         14    1    1    2    0    0 -0.29535658833E-02 -0.27465656187E-01 -0.91289650519E-02  0.29093363919E-01  0.00000000000E+00 0. -1.
     999901    1    3    3    0    0  0.10280521427E+00  0.87722249608E-01 -0.28408871373E-01  0.89076998666E+00  0.88000000000E+00 0.  1.
        -11    1    4    4    0    0 -0.24807116534E-01 -0.25343368209E-01  0.10382802887E-01  0.36955961085E-01  0.51100000000E-03 0. -1.
         11    1    4    4    0    0 -0.75044531850E-01 -0.34913225212E-01  0.27155033537E-01  0.87110688338E-01  0.51100000000E-03 0.  1.
</event>
<event>
 8    1  0.1091347E+005  0.1043930E+01  0.7957747E-01            NaN
         13   -1    0    0    0    0  0.00000000000E+00  0.00000000000E+00  0.74505805969E-08  0.10566000000E+00  0.10566000000E+00 0.  1.
     999900   -1    0    0    0    0 -0.00000000000E+00 -0.00000000000E+00 -0.74505805969E-08  0.93827000000E+00  0.93827000000E+00 0.  1.
     999902    2    1    2    0    0 -0.19805985788E-01  0.96227491017E-02  0.69327202311E-02  0.10208445721E+01  0.10205835112E+01 0.  0.
     999903    2    3    3    0    0 -0.20796442534E-01 -0.11586600083E+00  0.52851457734E-01  0.13075640911E+00  0.21131487632E-01 0.  0.
         14    1    1    2    0    0  0.19805985788E-01 -0.96227491017E-02 -0.69327202311E-02  0.23085427939E-01  0.00000000000E+00 0. -1.
     999901    1    3    3    0    0  0.99045674589E-03  0.12548874993E+00 -0.45918737503E-01  0.89008816295E+00  0.88000000000E+00 0.  1.
        -11    1    4    4    0    0 -0.93919420380E-02 -0.42697752564E-01  0.88226937136E-02  0.44602776759E-01  0.51100000000E-03 0.  1.
         11    1    4    4    0    0 -0.11404500496E-01 -0.73168248266E-01  0.44028764020E-01  0.86153632355E-01  0.51100000000E-03 0. -1.
</event>
<event>
 8    1  0.1091347E+005  0.1043930E+01  0.7957747E-01            NaN
         13   -1    0    0    0    0  0.00000000000E+00  0.00000000000E+00  0.74505805969E-08  0.10566000000E+00  0.10566000000E+00 0. -1.
     999900   -1    0    0    0    0 -0.00000000000E+00 -0.00000000000E+00 -0.74505805969E-08  0.93827000000E+00  0.93827000000E+00 0. -1.
     999902    2    1    2    0    0  0.10716229928E-01 -0.20221078615E-01 -0.86862243594E-02  0.10194518445E+01  0.10191579284E+01 0.  0.
     999903    2    3    3    0    0 -0.92780785832E-01  0.71273384460E-01 -0.47562221606E-01  0.12782736511E+00  0.19735774489E-01 0.  0.
         14    1    1    2    0    0 -0.10716229928E-01  0.20221078615E-01  0.86862243594E-02  0.24478155523E-01  0.00000000000E+00 0. -1.
     999901    1    3    3    0    0  0.10349701576E+00 -0.91494463075E-01  0.38875997246E-01  0.89162447937E+00  0.88000000000E+00 0. -1.
        -11    1    4    4    0    0 -0.28984915725E-01  0.34191055291E-01 -0.19388399856E-01  0.48839786767E-01  0.51100000000E-03 0. -1.
         11    1    4    4    0    0 -0.63795870107E-01  0.37082329169E-01 -0.28173821750E-01  0.78987578342E-01  0.51100000000E-03 0.  1.
</event>
<event>
 8    1  0.1091347E+005  0.1043930E+01  0.7957747E-01            NaN
         13   -1    0    0    0    0  0.00000000000E+00  0.00000000000E+00  0.74505805969E-08  0.10566000000E+00  0.10566000000E+00 0. -1.
     999900   -1    0    0    0    0 -0.00000000000E+00 -0.00000000000E+00 -0.74505805969E-08  0.93827000000E+00  0.93827000000E+00 0.  1.
     999902    2    1    2    0    0 -0.20593779689E-01 -0.10240617867E-01  0.53593133418E-02  0.10203144065E+01  0.10200410736E+01 0.  0.
     999903    2    3    3    0    0 -0.42315541654E-01 -0.53726631817E-01 -0.11040323407E+00  0.13140280476E+00  0.20016667373E-01 0.  0.
         14    1    1    2    0    0  0.20593779689E-01  0.10240617867E-01 -0.53593133418E-02  0.23615593486E-01  0.00000000000E+00 0.  1.
     999901    1    3    3    0    0  0.21721761965E-01  0.43486013950E-01  0.11576254741E+00  0.88891160176E+00  0.88000000000E+00 0. -1.
        -11    1    4    4    0    0 -0.34906776733E-01 -0.41894285515E-01 -0.70532400999E-01  0.89155453744E-01  0.51100000000E-03 0. -1.
         11    1    4    4    0    0 -0.74087649204E-02 -0.11832346302E-01 -0.39870833074E-01  0.42247351014E-01  0.51100000000E-03 0.  1.
</event>
<event>
 8    1  0.1091347E+005  0.1043930E+01  0.7957747E-01            NaN
         13   -1    0    0    0    0  0.00000000000E+00  0.00000000000E+00  0.74505805969E-08  0.10566000000E+00  0.10566000000E+00 0. -1.
     999900   -1    0    0    0    0 -0.00000000000E+00 -0.00000000000E+00 -0.74505805969E-08  0.93827000000E+00  0.93827000000E+00 0. -1.
     999902    2    1    2    0    0 -0.35438645318E-03  0.20467007194E-01  0.12911296120E-01  0.10197282327E+01  0.10194409954E+01 0.  0.
     999903    2    3    3    0    0  0.80018942864E-02  0.12016374591E+00 -0.49353145241E-01  0.13187344288E+00  0.21248902282E-01 0.  0.
         14    1    1    2    0    0  0.35438645318E-03 -0.20467007194E-01 -0.12911296120E-01  0.24201767306E-01  0.00000000000E+00 0. -1.
     999901    1    3    3    0    0 -0.83562807396E-02 -0.99696738717E-01  0.62264441360E-01  0.88785478981E+00  0.88000000000E+00 0.  1.
        -11    1    4    4    0    0 -0.45540166904E-02  0.40885547082E-01 -0.93547832154E-02  0.42191706747E-01  0.51100000000E-03 0.  1.
         11    1    4    4    0    0  0.12555910977E-01  0.79278198829E-01 -0.39998362025E-01  0.89681736132E-01  0.51100000000E-03 0. -1.
</event>
<event>
 8    1  0.1091347E+005  0.1043930E+01  0.7957747E-01            NaN
         13   -1    0    0    0    0  0.00000000000E+00  0.00000000000E+00  0.74505805969E-08  0.10566000000E+00  0.10566000000E+00 0. -1.
     999900   -1    0    0    0    0 -0.00000000000E+00 -0.00000000000E+00 -0.74505805969E-08  0.93827000000E+00  0.93827000000E+00 0.  1.
     999902    2    1    2    0    0  0.14403944018E-01  0.10452874720E-01  0.11120087283E-01  0.10229444685E+01  0.10227291885E+01 0.  0.
     999903    2    3    3    0    0  0.53878283952E-01 -0.11822839266E+00  0.18074147826E-01  0.13268301750E+00  0.19932034529E-01 0.  0.
         14    1    1    2    0    0 -0.14403944018E-01 -0.10452874720E-01 -0.11120087283E-01  0.20985531548E-01  0.00000000000E+00 0.  1.
     999901    1    3    3    0    0 -0.39474339934E-01  0.12868126738E+00 -0.69540605430E-02  0.89026145095E+00  0.88000000000E+00 0.  1.
        -11    1    4    4    0    0  0.37373789074E-01 -0.88222337828E-01  0.21706217753E-01  0.98241549315E-01  0.51100000000E-03 0. -1.
         11    1    4    4    0    0  0.16504494878E-01 -0.30006054835E-01 -0.36320699273E-02  0.34441468187E-01  0.51100000000E-03 0.  1.
</event>
<event>
 8    1  0.1091347E+005  0.1043930E+01  0.7957747E-01            NaN
         13   -1    0    0    0    0  0.00000000000E+00  0.00000000000E+00  0.74505805969E-08  0.10566000000E+00  0.10566000000E+00 0. -1.
     999900   -1    0    0    0    0 -0.00000000000E+00 -0.00000000000E+00 -0.74505805969E-08  0.93827000000E+00  0.93827000000E+00 0.  1.
     999902    2    1    2    0    0  0.52034996289E-02  0.71141476225E-02 -0.22298849975E-01  0.10199523810E+01  0.10196705023E+01 0.  0.
     999903    2    3    3    0    0  0.65624470498E-01 -0.61343905785E-01 -0.94933156153E-01  0.13225145090E+00  0.20211289460E-01 0.  0.
         14    1    1    2    0    0 -0.52034996289E-02 -0.71141476225E-02  0.22298849975E-01  0.23977619044E-01  0.00000000000E+00 0. -1.
     999901    1    3    3    0    0 -0.60420970869E-01  0.68458053407E-01  0.72634306178E-01  0.88770093006E+00  0.88000000000E+00 0. -1.
        -11    1    4    4    0    0  0.19674515124E-01 -0.31873508214E-01 -0.40173832385E-01  0.54929090660E-01  0.51100000000E-03 0. -1.
         11    1    4    4    0    0  0.45949955373E-01 -0.29470397571E-01 -0.54759323768E-01  0.77322360236E-01  0.51100000000E-03 0.  1.
</event>
<event>
 8    1  0.1091347E+005  0.1043930E+01  0.7957747E-01            NaN
         13   -1    0    0    0    0  0.00000000000E+00  0.00000000000E+00  0.74505805969E-08  0.10566000000E+00  0.10566000000E+00 0. -1.
     999900   -1    0    0    0    0 -0.00000000000E+00 -0.00000000000E+00 -0.74505805969E-08  0.93827000000E+00  0.93827000000E+00 0. -1.
     999902    2    1    2    0    0  0.17124988004E-01 -0.16440699892E-01  0.29666248094E-02  0.10200058973E+01  0.10197252904E+01 0.  0.
     999903    2    3    3    0    0 -0.94221421147E-02  0.90279842155E-01 -0.88658805765E-01  0.12844028349E+00  0.19932283384E-01 0.  0.
         14    1    1    2    0    0 -0.17124988004E-01  0.16440699892E-01 -0.29666248094E-02  0.23924102697E-01  0.00000000000E+00 0.  1.
     999901    1    3    3    0    0  0.26547130119E-01 -0.10672054205E+00  0.91625430574E-01  0.89156561382E+00  0.88000000000E+00 0. -1.
        -11    1    4    4    0    0 -0.13768143894E-01  0.39756516382E-01 -0.36654909642E-01  0.55803099403E-01  0.51100000000E-03 0. -1.
         11    1    4    4    0    0  0.43460017792E-02  0.50523325773E-01 -0.52003896123E-01  0.72637184084E-01  0.51100000000E-03 0.  1.
</event>
<event>
 8    1  0.1091347E+005  0.1043930E+01  0.7957747E-01            NaN
         13   -1    0    0    0    0  0.00000000000E+00  0.00000000000E+00  0.74505805969E-08  0.10566000000E+00  0.10566000000E+00 0.  1.
     999900   -1    0    0    0    0 -0.00000000000E+00 -0.00000000000E+00 -0.74505805969E-08  0.93827000000E+00  0.93827000000E+00 0. -1.
     999902    2    1    2    0    0 -0.29020260825E-02  0.30220925215E-01  0.82805535689E-02  0.10124610686E+01  0.10119718977E+01 0.  0.
     999903    2    3    3    0    0  0.75188728138E-01 -0.36403392543E-03 -0.93477800106E-01  0.12263615989E+00  0.25456850534E-01 0.  0.
         14    1    1    2    0    0  0.29020260825E-02 -0.30220925215E-01 -0.82805535689E-02  0.31468931403E-01  0.00000000000E+00 0. -1.
     999901    1    3    3    0    0 -0.78090754221E-01  0.30584959140E-01  0.10175835368E+00  0.88982490871E+00  0.88000000000E+00 0.  1.
        -11    1    4    4    0    0  0.88209458624E-02 -0.51807537719E-02 -0.25635889936E-01  0.27606326619E-01  0.51100000000E-03 0. -1.
         11    1    4    4    0    0  0.66367782276E-01  0.48167198465E-02 -0.67841910170E-01  0.95029833267E-01  0.51100000000E-03 0.  1.
</event>
<event>
 8    1  0.1091347E+005  0.1043930E+01  0.7957747E-01            NaN
         13   -1    0    0    0    0  0.00000000000E+00  0.00000000000E+00  0.74505805969E-08  0.10566000000E+00  0.10566000000E+00 0. -1.
     999900   -1    0    0    0    0 -0.00000000000E+00 -0.00000000000E+00 -0.74505805969E-08  0.93827000000E+00  0.93827000000E+00 0. -1.
     999902    2    1    2    0    0  0.45757485140E-03 -0.16211392198E-01 -0.17223580755E-01  0.10202726471E+01  0.10199983353E+01 0.  0.
     999903    2    3    3    0    0  0.14469593610E-01  0.84833793973E-01  0.92143118001E-01  0.12765428459E+00  0.19977998872E-01 0.  0.
         14    1    1    2    0    0 -0.45757485140E-03  0.16211392198E-01  0.17223580755E-01  0.23657352891E-01  0.00000000000E+00 0. -1.
     999901    1    3    3    0    0 -0.14012018758E-01 -0.10104518617E+00 -0.10936669876E+00  0.89261836252E+00  0.88000000000E+00 0. -1.
        -11    1    4    4    0    0  0.92707899352E-02  0.54064594753E-01  0.44197571319E-01  0.70445825876E-01  0.51100000000E-03 0. -1.
         11    1    4    4    0    0  0.51988036745E-02  0.30769199221E-01  0.47945546682E-01  0.57208458710E-01  0.51100000000E-03 0.  1.
</event>
<event>
 8    1  0.1091347E+005  0.1043930E+01  0.7957747E-01            NaN
         13   -1    0    0    0    0  0.00000000000E+00  0.00000000000E+00  0.74505805969E-08  0.10566000000E+00  0.10566000000E+00 0.  1.
     999900   -1    0    0    0    0 -0.00000000000E+00 -0.00000000000E+00 -0.74505805969E-08  0.93827000000E+00  0.93827000000E+00 0.  1.
     999902    2    1    2    0    0  0.61563298737E-02  0.13605645232E-01  0.21428740887E-01  0.10178109473E+01  0.10174757587E+01 0.  0.
     999903    2    3    3    0    0 -0.60929751133E-02 -0.67638003947E-01  0.10861455455E+00  0.12969387046E+00  0.20281879924E-01 0.  0.
         14    1    1    2    0    0 -0.61563298737E-02 -0.13605645232E-01 -0.21428740887E-01  0.26119052733E-01  0.00000000000E+00 0. -1.
     999901    1    3    3    0    0  0.12249304987E-01  0.81243649179E-01 -0.87185813658E-01  0.88811707680E+00  0.88000000000E+00 0.  1.
        -11    1    4    4    0    0 -0.91365429247E-02 -0.66083442465E-01  0.98176702579E-01  0.11869887883E+00  0.51100000000E-03 0.  1.
         11    1    4    4    0    0  0.30435678114E-02 -0.15545614826E-02  0.10437851966E-01  0.10994991637E-01  0.51100000000E-03 0. -1.
</event>
<event>
 8    1  0.1091347E+005  0.1043930E+01  0.7957747E-01            NaN
         13   -1    0    0    0    0  0.00000000000E+00  0.00000000000E+00  0.74505805969E-08  0.10566000000E+00  0.10566000000E+00 0. -1.
     999900   -1    0    0    0    0 -0.00000000000E+00 -0.00000000000E+00 -0.74505805969E-08  0.93827000000E+00  0.93827000000E+00 0.  1.
     999902    2    1    2    0    0  0.16324537694E-01 -0.84710946009E-03 -0.17264292662E-01  0.10201547203E+01  0.10198776345E+01 0.  0.
     999903    2    3    3    0    0  0.84298246234E-01 -0.96747970337E-01 -0.21781480680E-01  0.13232714401E+00  0.23867887608E-01 0.  0.
         14    1    1    2    0    0 -0.16324537694E-01  0.84710946009E-03  0.17264292662E-01  0.23775279735E-01  0.00000000000E+00 0. -1.
     999901    1    3    3    0    0 -0.67973708540E-01  0.95900860877E-01  0.45171880181E-02  0.88782757625E+00  0.88000000000E+00 0.  1.
        -11    1    4    4    0    0  0.60677411404E-01 -0.69522682276E-01 -0.26409659638E-01  0.95983763463E-01  0.51100000000E-03 0.  1.
         11    1    4    4    0    0  0.23620834831E-01 -0.27225288062E-01  0.46281789579E-02  0.36343380547E-01  0.51100000000E-03 0. -1.
</event>
<event>
 7    1  0.1091347E+005  0.1043930E+01  0.7957747E-01            NaN
         13   -1    0    0    0    0  0.00000000000E+00  0.00000000000E+00  0.74505805969E-08  0.10566000000E+00  0.10566000000E+00 0. -1.
     999900   -1    0    0    0    0 -0.00000000000E+00 -0.00000000000E+00 -0.74505805969E-08  0.93827000000E+00  0.93827000000E+00 0. -1.
     999903    2    1    2    0    0 -0.11146923609E+00  0.13923573196E-01  0.32851367997E-02  0.11421959126E+00  0.20397706234E-01 0.  0.
         14    1    1    2    0    0 -0.44721128846E-02  0.31795929370E-01 -0.24952799094E-01  0.40664764856E-01  0.00000000000E+00 0.  1.
     999901    1    1    2    0    0  0.11594134897E+00 -0.45719502566E-01  0.21667662294E-01  0.88904564388E+00  0.88000000000E+00 0.  1.
        -11    1    3    3    0    0 -0.14210863732E-01  0.84465046419E-02 -0.20148054810E-02  0.16661712121E-01  0.51100000000E-03 0. -1.
         11    1    3    3    0    0 -0.97258372356E-01  0.54770685541E-02  0.52999422807E-02  0.97557879141E-01  0.51100000000E-03 0.  1.
</event>
<event>
 8    1  0.1091347E+005  0.1043930E+01  0.7957747E-01            NaN
         13   -1    0    0    0    0  0.00000000000E+00  0.00000000000E+00  0.74505805969E-08  0.10566000000E+00  0.10566000000E+00 0. -1.
     999900   -1    0    0    0    0 -0.00000000000E+00 -0.00000000000E+00 -0.74505805969E-08  0.93827000000E+00  0.93827000000E+00 0. -1.
     999902    2    1    2    0    0 -0.16876616082E-01 -0.12091566549E-01  0.73687220808E-02  0.10218999247E+01  0.10216624354E+01 0.  0.
     999903    2    3    3    0    0  0.91637473631E-01  0.84148344263E-01  0.26683900200E-01  0.12981780730E+00  0.25734454479E-01 0.  0.
         14    1    1    2    0    0  0.16876616082E-01  0.12091566549E-01 -0.73687220808E-02  0.22030075286E-01  0.00000000000E+00 0.  1.
     999901    1    3    3    0    0 -0.10851408971E+00 -0.96239910812E-01 -0.19315178119E-01  0.89208211741E+00  0.88000000000E+00 0. -1.
        -11    1    4    4    0    0  0.34200667622E-01  0.15580062491E-01  0.87298126956E-02  0.38586199135E-01  0.51100000000E-03 0. -1.
         11    1    4    4    0    0  0.57436806009E-01  0.68568281772E-01  0.17954087504E-01  0.91231608168E-01  0.51100000000E-03 0.  1.
</event>
<event>
 8    1  0.1091347E+005  0.1043930E+01  0.7957747E-01            NaN
         13   -1    0    0    0    0  0.00000000000E+00  0.00000000000E+00  0.74505805969E-08  0.10566000000E+00  0.10566000000E+00 0.  1.
     999900   -1    0    0    0    0 -0.00000000000E+00 -0.00000000000E+00 -0.74505805969E-08  0.93827000000E+00  0.93827000000E+00 0.  1.
     999902    2    1    2    0    0 -0.11277147323E-02  0.11789393754E-01 -0.20494411901E-01  0.10202597135E+01  0.10199850982E+01 0.  0.
     999903    2    3    3    0    0 -0.58762539000E-01 -0.34304574832E-02  0.11223560549E+00  0.12831202758E+00  0.20058445894E-01 0.  0.
         14    1    1    2    0    0  0.11277147323E-02 -0.11789393754E-01  0.20494411901E-01  0.23670286537E-01  0.00000000000E+00 0.  1.
     999901    1    3    3    0    0  0.57634824268E-01  0.15219851237E-01 -0.13273001740E+00  0.89194768589E+00  0.88000000000E+00 0.  1.
        -11    1    4    4    0    0 -0.16730959615E-01 -0.62082144935E-02  0.19394014761E-01  0.26360118861E-01  0.51100000000E-03 0.  1.
         11    1    4    4    0    0 -0.42031579385E-01  0.27777570104E-02  0.92841590734E-01  0.10195190872E+00  0.51100000000E-03 0. -1.
</event>
<event>
 8    1  0.1091347E+005  0.1043930E+01  0.7957747E-01            NaN
         13   -1    0    0    0    0  0.00000000000E+00  0.00000000000E+00  0.74505805969E-08  0.10566000000E+00  0.10566000000E+00 0. -1.
     999900   -1    0    0    0    0 -0.00000000000E+00 -0.00000000000E+00 -0.74505805969E-08  0.93827000000E+00  0.93827000000E+00 0.  1.
     999902    2    1    2    0    0 -0.75922756566E-02  0.13651138602E-01  0.18626159294E-01  0.10196209473E+01  0.10193311268E+01 0.  0.
     999903    2    3    3    0    0  0.58186423449E-01 -0.68096161466E-02  0.11619132362E+00  0.13155313396E+00  0.19333200029E-01 0.  0.
         14    1    1    2    0    0  0.75922756566E-02 -0.13651138602E-01 -0.18626159294E-01  0.24309052734E-01  0.00000000000E+00 0.  1.
     999901    1    3    3    0    0 -0.65778699106E-01  0.20460754749E-01 -0.97565164328E-01  0.88806781331E+00  0.88000000000E+00 0.  1.
        -11    1    4    4    0    0  0.35600482259E-01  0.38858431443E-02  0.79038733649E-01  0.86774861866E-01  0.51100000000E-03 0. -1.
         11    1    4    4    0    0  0.22585941190E-01 -0.10695459291E-01  0.37152589974E-01  0.44778272093E-01  0.51100000000E-03 0.  1.
</event>
<event>
 8    1  0.1091347E+005  0.1043930E+01  0.7957747E-01            NaN
         13   -1    0    0    0    0  0.00000000000E+00  0.00000000000E+00  0.74505805969E-08  0.10566000000E+00  0.10566000000E+00 0. -1.
     999900   -1    0    0    0    0 -0.00000000000E+00 -0.00000000000E+00 -0.74505805969E-08  0.93827000000E+00  0.93827000000E+00 0.  1.
     999902    2    1    2    0    0 -0.19292002381E-01 -0.12858081235E-01 -0.42322123050E-02  0.10203625812E+01  0.10200903753E+01 0.  0.
     999903    2    3    3    0    0  0.34192747362E-01  0.61073798890E-01  0.10631023022E+00  0.12876504139E+00  0.19478653742E-01 0.  0.
         14    1    1    2    0    0  0.19292002381E-01  0.12858081235E-01  0.42322123050E-02  0.23567418821E-01  0.00000000000E+00 0.  1.
     999901    1    3    3    0    0 -0.53484749743E-01 -0.73931880126E-01 -0.11054244253E+00  0.89159753979E+00  0.88000000000E+00 0.  1.
        -11    1    4    4    0    0  0.32669560978E-01  0.44071620783E-01  0.72839176786E-01  0.91188896083E-01  0.51100000000E-03 0. -1.
         11    1    4    4    0    0  0.15231863848E-02  0.17002178108E-01  0.33471053436E-01  0.37576145309E-01  0.51100000000E-03 0.  1.
</event>
<event>
 8    1  0.1091347E+005  0.1043930E+01  0.7957747E-01            NaN
         13   -1    0    0    0    0  0.00000000000E+00  0.00000000000E+00  0.74505805969E-08  0.10566000000E+00  0.10566000000E+00 0. -1.
     999900   -1    0    0    0    0 -0.00000000000E+00 -0.00000000000E+00 -0.74505805969E-08  0.93827000000E+00  0.93827000000E+00 0.  1.
     999902    2    1    2    0    0 -0.91101051667E-02  0.18537404190E-01 -0.11779407464E-01  0.10201521992E+01  0.10198750540E+01 0.  0.
     999903    2    3    3    0    0 -0.76757044164E-01 -0.74177227202E-01 -0.74295969631E-01  0.13050033934E+00  0.10795489768E-01 0.  0.
         14    1    1    2    0    0  0.91101051667E-02 -0.18537404190E-01  0.11779407464E-01  0.23777800791E-01  0.00000000000E+00 0.  1.
     999901    1    3    3    0    0  0.67646938997E-01  0.92714631392E-01  0.62516562167E-01  0.88965185987E+00  0.88000000000E+00 0.  1.
        -11    1    4    4    0    0 -0.44090801620E-01 -0.35248244779E-01 -0.38023976784E-01  0.68062629092E-01  0.51100000000E-03 0. -1.
         11    1    4    4    0    0 -0.32666242544E-01 -0.38928982422E-01 -0.36271992847E-01  0.62437710244E-01  0.51100000000E-03 0.  1.
</event>
<event>
 8    1  0.1091347E+005  0.1043930E+01  0.7957747E-01            NaN
         13   -1    0    0    0    0  0.00000000000E+00  0.00000000000E+00  0.74505805969E-08  0.10566000000E+00  0.10566000000E+00 0.  1.
     999900   -1    0    0    0    0 -0.00000000000E+00 -0.00000000000E+00 -0.74505805969E-08  0.93827000000E+00  0.93827000000E+00 0.  1.
     999902    2    1    2    0    0  0.13715726484E-01 -0.16008274890E-01 -0.15918852994E-02  0.10227895147E+01  0.10225710104E+01 0.  0.
     999903    2    3    3    0    0  0.10400955990E+00  0.18009038492E-02 -0.83010842536E-01  0.13425184543E+00  0.17650105301E-01 0.  0.
         14    1    1    2    0    0 -0.13715726484E-01  0.16008274890E-01  0.15918852994E-02  0.21140485253E-01  0.00000000000E+00 0.  1.
     999901    1    3    3    0    0 -0.90293833417E-01 -0.17809178739E-01  0.81418957236E-01  0.88853766932E+00  0.88000000000E+00 0. -1.
        -11    1    4    4    0    0  0.64204238970E-01  0.92962978409E-02 -0.54295606531E-01  0.84598341975E-01  0.51100000000E-03 0.  1.
         11    1    4    4    0    0  0.39805320930E-01 -0.74953939917E-02 -0.28715236005E-01  0.49653503454E-01  0.51100000000E-03 0. -1.
</event>
<event>
 8    1  0.1091347E+005  0.1043930E+01  0.7957747E-01            NaN
         13   -1    0    0    0    0  0.00000000000E+00  0.00000000000E+00  0.74505805969E-08  0.10566000000E+00  0.10566000000E+00 0.  1.
     999900   -1    0    0    0    0 -0.00000000000E+00 -0.00000000000E+00 -0.74505805969E-08  0.93827000000E+00  0.93827000000E+00 0. -1.
     999902    2    1    2    0    0 -0.16925933767E-01  0.13435661281E-01  0.10097253220E-01  0.10200771438E+01  0.10197982254E+01 0.  0.
     999903    2    3    3    0    0  0.10329748299E+00 -0.27058637336E-01 -0.66805493832E-01  0.12766048622E+00  0.20777051983E-01 0.  0.
         14    1    1    2    0    0  0.16925933767E-01 -0.13435661281E-01 -0.10097253220E-01  0.23852856234E-01  0.00000000000E+00 0.  1.
     999901    1    3    3    0    0 -0.12022341676E+00  0.40494298617E-01  0.76902747052E-01  0.89241665754E+00  0.88000000000E+00 0.  1.
        -11    1    4    4    0    0  0.43530742423E-01 -0.10791703408E-02 -0.24569889048E-01  0.50000307132E-01  0.51100000000E-03 0. -1.
         11    1    4    4    0    0  0.59766740571E-01 -0.25979466995E-01 -0.42235604784E-01  0.77660179090E-01  0.51100000000E-03 0.  1.
</event>
<event>
 8    1  0.1091347E+005  0.1043930E+01  0.7957747E-01            NaN
         13   -1    0    0    0    0  0.00000000000E+00  0.00000000000E+00  0.74505805969E-08  0.10566000000E+00  0.10566000000E+00 0. -1.
     999900   -1    0    0    0    0 -0.00000000000E+00 -0.00000000000E+00 -0.74505805969E-08  0.93827000000E+00  0.93827000000E+00 0. -1.
     999902    2    1    2    0    0  0.82067821774E-02 -0.15096307777E-01 -0.16679704888E-01  0.10199829263E+01  0.10197017739E+01 0.  0.
     999903    2    3    3    0    0 -0.43308337477E-01 -0.22960733604E-01  0.11694083530E+00  0.12837196548E+00  0.20034849113E-01 0.  0.
         14    1    1    2    0    0 -0.82067821774E-02  0.15096307777E-01  0.16679704888E-01  0.23947073670E-01  0.00000000000E+00 0.  1.
     999901    1    3    3    0    0  0.51515119655E-01  0.78644258276E-02 -0.13362054018E+00  0.89161096085E+00  0.88000000000E+00 0. -1.
        -11    1    4    4    0    0 -0.18946252938E-01  0.29544851179E-03  0.35588359532E-01  0.40321709356E-01  0.51100000000E-03 0. -1.
         11    1    4    4    0    0 -0.24362084540E-01 -0.23256182116E-01  0.81352475765E-01  0.88050256126E-01  0.51100000000E-03 0.  1.
</event>
<event>
 8    1  0.1091347E+005  0.1043930E+01  0.7957747E-01            NaN
         13   -1    0    0    0    0  0.00000000000E+00  0.00000000000E+00  0.74505805969E-08  0.10566000000E+00  0.10566000000E+00 0.  1.
     999900   -1    0    0    0    0 -0.00000000000E+00 -0.00000000000E+00 -0.74505805969E-08  0.93827000000E+00  0.93827000000E+00 0.  1.
     999902    2    1    2    0    0  0.58417683957E-02 -0.21521897341E-01 -0.12058144910E-01  0.10185781326E+01  0.10182625865E+01 0.  0.
     999903    2    3    3    0    0  0.11031250181E+00 -0.45492755534E-01  0.49147531069E-01  0.12996411572E+00  0.15386770409E-01 0.  0.
         14    1    1    2    0    0 -0.58417683957E-02  0.21521897341E-01  0.12058144910E-01  0.25351867422E-01  0.00000000000E+00 0.  1.
     999901    1    3    3    0    0 -0.10447073341E+00  0.23970858194E-01 -0.61205675979E-01  0.88861401686E+00  0.88000000000E+00 0.  1.
        -11    1    4    4    0    0  0.67237665487E-02 -0.71147631595E-03 -0.21905806849E-03  0.67841243051E-02  0.51100000000E-03 0.  1.
         11    1    4    4    0    0  0.10358873526E+00 -0.44781279218E-01  0.49366589137E-01  0.12317999142E+00  0.51100000000E-03 0. -1.
</event>
<event>
 8    1  0.1091347E+005  0.1043930E+01  0.7957747E-01            NaN
         13   -1    0    0    0    0  0.00000000000E+00  0.00000000000E+00  0.74505805969E-08  0.10566000000E+00  0.10566000000E+00 0.  1.
     999900   -1    0    0    0    0 -0.00000000000E+00 -0.00000000000E+00 -0.74505805969E-08  0.93827000000E+00  0.93827000000E+00 0.  1.
     999902    2    1    2    0    0  0.11872519341E-01 -0.27068303600E-01 -0.23938439864E-01  0.10058945076E+01  0.10051751399E+01 0.  0.
     999903    2    3    3    0    0 -0.32981106992E-01 -0.77028768129E-02  0.10787900217E+00  0.11473643773E+00  0.19480331223E-01 0.  0.
         14    1    1    2    0    0 -0.11872519341E-01  0.27068303600E-01  0.23938439864E-01  0.38035492351E-01  0.00000000000E+00 0. -1.
     999901    1    3    3    0    0  0.44853626333E-01 -0.19365426787E-01 -0.13181744204E+00  0.89115806992E+00  0.88000000000E+00 0.  1.
        -11    1    4    4    0    0 -0.95333834531E-02 -0.53660837367E-02  0.63977840658E-01  0.64908439135E-01  0.51100000000E-03 0.  1.
         11    1    4    4    0    0 -0.23447723539E-01 -0.23367930762E-02  0.43901161515E-01  0.49827998599E-01  0.51100000000E-03 0. -1.
</event>
<event>
 8    1  0.1091347E+005  0.1043930E+01  0.7957747E-01            NaN
         13   -1    0    0    0    0  0.00000000000E+00  0.00000000000E+00  0.74505805969E-08  0.10566000000E+00  0.10566000000E+00 0.  1.
     999900   -1    0    0    0    0 -0.00000000000E+00 -0.00000000000E+00 -0.74505805969E-08  0.93827000000E+00  0.93827000000E+00 0. -1.
     999902    2    1    2    0    0  0.22907709238E-02 -0.18757656612E-01  0.14317847035E-01  0.10202213928E+01  0.10199458771E+01 0.  0.
     999903    2    3    3    0    0 -0.21040561588E-01 -0.14487441035E-01  0.12851290248E+00  0.13252600780E+00  0.19874241095E-01 0.  0.
         14    1    1    2    0    0 -0.22907709238E-02  0.18757656612E-01 -0.14317847035E-01  0.23708607229E-01  0.00000000000E+00 0. -1.
     999901    1    3    3    0    0  0.23331332512E-01 -0.42702155770E-02 -0.11419505544E+00  0.88769538497E+00  0.88000000000E+00 0. -1.
        -11    1    4    4    0    0 -0.16417666774E-01 -0.17124817175E-01  0.73080036107E-01  0.76835876673E-01  0.51100000000E-03 0.  1.
         11    1    4    4    0    0 -0.46228948138E-02  0.26373761403E-02  0.55432866372E-01  0.55690131124E-01  0.51100000000E-03 0. -1.
</event>
<event>
 8    1  0.1583772E+005  0.1043930E+01  0.7957747E-01            NaN
         13   -1    0    0    0    0  0.00000000000E+00  0.00000000000E+00  0.74505805969E-08  0.10566000000E+00  0.10566000000E+00 0. -1.
     999900   -1    0    0    0    0 -0.00000000000E+00 -0.00000000000E+00 -0.74505805969E-08  0.93827000000E+00  0.93827000000E+00 0. -1.
     999902    2    1    2    0    0 -0.18176588720E-01  0.10928568615E-01  0.14297061043E-01  0.10183521200E+01  0.10180308504E+01 0.  0.
     999903    2    3    3    0    0 -0.70646909247E-01  0.10856815489E+00 -0.58659445877E-02  0.13116940483E+00  0.19823557096E-01 0.  0.
         14    1    1    2    0    0  0.18176588720E-01 -0.10928568615E-01 -0.14297061043E-01  0.25577879973E-01  0.00000000000E+00 0.  1.
     999901    1    3    3    0    0  0.52470320527E-01 -0.97639586274E-01  0.20163005631E-01  0.88718271519E+00  0.88000000000E+00 0.  1.
        -11    1    4    4    0    0 -0.43765820019E-01  0.49463234495E-01 -0.49037927859E-02  0.66229652523E-01  0.51100000000E-03 0. -1.
         11    1    4    4    0    0 -0.26881089228E-01  0.59104920394E-01 -0.96215180174E-03  0.64939752309E-01  0.51100000000E-03 0.  1.
</event>
<event>
 8    1  0.1091347E+005  0.1043930E+01  0.7957747E-01            NaN
         13   -1    0    0    0    0  0.00000000000E+00  0.00000000000E+00  0.74505805969E-08  0.10566000000E+00  0.10566000000E+00 0.  1.
     999900   -1    0    0    0    0 -0.00000000000E+00 -0.00000000000E+00 -0.74505805969E-08  0.93827000000E+00  0.93827000000E+00 0. -1.
     999902    2    1    2    0    0 -0.18007714461E-01 -0.78812036666E-02 -0.11434415270E-01  0.10211893535E+01  0.10209361188E+01 0.  0.
     999903    2    3    3    0    0  0.76095661494E-01  0.66216143875E-01  0.77448617593E-01  0.12863904353E+00  0.19354269406E-01 0.  0.
         14    1    1    2    0    0  0.18007714461E-01  0.78812036666E-02  0.11434415270E-01  0.22740646515E-01  0.00000000000E+00 0.  1.
     999901    1    3    3    0    0 -0.94103375954E-01 -0.74097347542E-01 -0.88883032863E-01  0.89255030996E+00  0.88000000000E+00 0. -1.
        -11    1    4    4    0    0  0.49073974851E-01  0.53935626384E-01  0.57638380072E-01  0.92950259706E-01  0.51100000000E-03 0. -1.
         11    1    4    4    0    0  0.27021686642E-01  0.12280517491E-01  0.19810237521E-01  0.35688783819E-01  0.51100000000E-03 0.  1.
</event>
<event>
 8    1  0.1091347E+005  0.1043930E+01  0.7957747E-01            NaN
         13   -1    0    0    0    0  0.00000000000E+00  0.00000000000E+00  0.74505805969E-08  0.10566000000E+00  0.10566000000E+00 0.  1.
     999900   -1    0    0    0    0 -0.00000000000E+00 -0.00000000000E+00 -0.74505805969E-08  0.93827000000E+00  0.93827000000E+00 0. -1.
     999902    2    1    2    0    0 -0.20516386741E-01 -0.65744610242E-02  0.67047564684E-02  0.10213667684E+01  0.10211175134E+01 0.  0.
     999903    2    3    3    0    0 -0.88597165609E-01 -0.93450709958E-01 -0.30676153176E-01  0.13368450117E+00  0.18655469273E-01 0.  0.
         14    1    1    2    0    0  0.20516386741E-01  0.65744610242E-02 -0.67047564684E-02  0.22563231638E-01  0.00000000000E+00 0. -1.
     999901    1    3    3    0    0  0.68080778869E-01  0.86876248934E-01  0.37380909645E-01  0.88768226719E+00  0.88000000000E+00 0.  1.
        -11    1    4    4    0    0 -0.30453523039E-01 -0.31510488982E-01 -0.14728354773E-02  0.43849268486E-01  0.51100000000E-03 0.  1.
         11    1    4    4    0    0 -0.58143642570E-01 -0.61940220976E-01 -0.29203317699E-01  0.89835232685E-01  0.51100000000E-03 0. -1.
</event>
<event>
 8    1  0.1091347E+005  0.1043930E+01  0.7957747E-01            NaN
         13   -1    0    0    0    0  0.00000000000E+00  0.00000000000E+00  0.74505805969E-08  0.10566000000E+00  0.10566000000E+00 0. -1.
     999900   -1    0    0    0    0 -0.00000000000E+00 -0.00000000000E+00 -0.74505805969E-08  0.93827000000E+00  0.93827000000E+00 0.  1.
     999902    2    1    2    0    0 -0.72698566566E-02  0.55570582821E-02  0.20908452055E-01  0.10211068740E+01  0.10208517782E+01 0.  0.
     999903    2    3    3    0    0  0.11625116728E-01  0.97730786692E-01  0.88071197342E-01  0.13354625603E+00  0.19789307545E-01 0.  0.
         14    1    1    2    0    0  0.72698566566E-02 -0.55570582821E-02 -0.20908452055E-01  0.22823125989E-01  0.00000000000E+00 0.  1.
     999901    1    3    3    0    0 -0.18894973384E-01 -0.92173728410E-01 -0.67162745287E-01  0.88756061798E+00  0.88000000000E+00 0.  1.
        -11    1    4    4    0    0  0.10210068036E-02  0.36514793907E-01  0.21075406524E-01  0.42175899636E-01  0.51100000000E-03 0. -1.
         11    1    4    4    0    0  0.10604109924E-01  0.61215992785E-01  0.66995790818E-01  0.91370356398E-01  0.51100000000E-03 0.  1.
</event>
<event>
 8    1  0.1091347E+005  0.1043930E+01  0.7957747E-01            NaN
         13   -1    0    0    0    0  0.00000000000E+00  0.00000000000E+00  0.74505805969E-08  0.10566000000E+00  0.10566000000E+00 0. -1.
     999900   -1    0    0    0    0 -0.00000000000E+00 -0.00000000000E+00 -0.74505805969E-08  0.93827000000E+00  0.93827000000E+00 0. -1.
     999902    2    1    2    0    0  0.20264272621E-01 -0.96580617240E-02  0.53428448210E-02  0.10208547992E+01  0.10205939722E+01 0.  0.
     999903    2    3    3    0    0  0.94553470715E-01  0.83696668223E-01  0.34033623830E-01  0.13234078617E+00  0.20255987670E-01 0.  0.
         14    1    1    2    0    0 -0.20264272621E-01  0.96580617240E-02 -0.53428448210E-02  0.23075200799E-01  0.00000000000E+00 0.  1.
     999901    1    3    3    0    0 -0.74289198094E-01 -0.93354729947E-01 -0.28690779009E-01  0.88851401303E+00  0.88000000000E+00 0. -1.
        -11    1    4    4    0    0  0.19253963198E-01  0.74043649589E-02  0.40161428828E-02  0.21022136997E-01  0.51100000000E-03 0.  1.
         11    1    4    4    0    0  0.75299507517E-01  0.76292303264E-01  0.30017480947E-01  0.11131864917E+00  0.51100000000E-03 0. -1.
</event>
<event>
 8    1  0.1091347E+005  0.1043930E+01  0.7957747E-01            NaN
         13   -1    0    0    0    0  0.00000000000E+00  0.00000000000E+00  0.74505805969E-08  0.10566000000E+00  0.10566000000E+00 0.  1.
     999900   -1    0    0    0    0 -0.00000000000E+00 -0.00000000000E+00 -0.74505805969E-08  0.93827000000E+00  0.93827000000E+00 0. -1.
     999902    2    1    2    0    0  0.21935718758E-01 -0.96718190315E-02  0.93913462336E-02  0.10181828210E+01  0.10178572296E+01 0.  0.
     999903    2    3    3    0    0 -0.12249312217E+00  0.19724197532E-01  0.62336463483E-02  0.12591952640E+00  0.20573279603E-01 0.  0.
         14    1    1    2    0    0 -0.21935718758E-01  0.96718190315E-02 -0.93913462336E-02  0.25747178969E-01  0.00000000000E+00 0. -1.
     999901    1    3    3    0    0  0.14442884093E+00 -0.29396016564E-01  0.31576998853E-02  0.89226329463E+00  0.88000000000E+00 0. -1.
        -11    1    4    4    0    0 -0.94642726706E-01  0.18674640696E-01  0.12708968629E-01  0.97302450781E-01  0.51100000000E-03 0. -1.
         11    1    4    4    0    0 -0.27850395466E-01  0.10495568366E-02 -0.64753222809E-02  0.28617075616E-01  0.51100000000E-03 0.  1.
</event>
<event>
 8    1  0.1091347E+005  0.1043930E+01  0.7957747E-01            NaN
         13   -1    0    0    0    0  0.00000000000E+00  0.00000000000E+00  0.74505805969E-08  0.10566000000E+00  0.10566000000E+00 0.  1.
     999900   -1    0    0    0    0 -0.00000000000E+00 -0.00000000000E+00 -0.74505805969E-08  0.93827000000E+00  0.93827000000E+00 0.  1.
     999902    2    1    2    0    0 -0.24727587908E-01  0.23560766037E-02  0.14548530567E-02  0.10190478518E+01  0.10187440321E+01 0.  0.
     999903    2    3    3    0    0  0.18406867504E-01  0.12602245268E+00 -0.85951769250E-02  0.12929791115E+00  0.20581579390E-01 0.  0.
         14    1    1    2    0    0  0.24727587908E-01 -0.23560766037E-02 -0.14548530567E-02  0.24882148181E-01  0.00000000000E+00 0. -1.
     999901    1    3    3    0    0 -0.43134455412E-01 -0.12366637608E+00  0.10050029982E-01  0.88974994067E+00  0.88000000000E+00 0.  1.
        -11    1    4    4    0    0  0.13036114023E-01  0.10722654776E+00 -0.20083763583E-03  0.10801747206E+00  0.51100000000E-03 0.  1.
         11    1    4    4    0    0  0.53707534807E-02  0.18795904920E-01 -0.83943392892E-02  0.21280439088E-01  0.51100000000E-03 0. -1.
</event>
<event>
 8    1  0.1091347E+005  0.1043930E+01  0.7957747E-01            NaN
         13   -1    0    0    0    0  0.00000000000E+00  0.00000000000E+00  0.74505805969E-08  0.10566000000E+00  0.10566000000E+00 0.  1.
     999900   -1    0    0    0    0 -0.00000000000E+00 -0.00000000000E+00 -0.74505805969E-08  0.93827000000E+00  0.93827000000E+00 0. -1.
     999902    2    1    2    0    0 -0.11736945024E-01  0.13450720619E-01  0.13939727890E-01  0.10212806341E+01  0.10210294510E+01 0.  0.
     999903    2    3    3    0    0 -0.17492542430E-01  0.11598241559E+00 -0.59807033267E-01  0.13224494290E+00  0.12407011298E-01 0.  0.
         14    1    1    2    0    0  0.11736945024E-01 -0.13450720619E-01 -0.13939727890E-01  0.22649365936E-01  0.00000000000E+00 0. -1.
     999901    1    3    3    0    0  0.57555974061E-02 -0.10253169497E+00  0.73746761157E-01  0.88903569116E+00  0.88000000000E+00 0.  1.
        -11    1    4    4    0    0 -0.17206077889E-01  0.77114622542E-01 -0.38030512294E-01  0.87688625902E-01  0.51100000000E-03 0.  1.
         11    1    4    4    0    0 -0.28646454051E-03  0.38867793045E-01 -0.21776520973E-01  0.44556317002E-01  0.51100000000E-03 0. -1.
</event>
<event>
 8    1  0.1091347E+005  0.1043930E+01  0.7957747E-01            NaN
         13   -1    0    0    0    0  0.00000000000E+00  0.00000000000E+00  0.74505805969E-08  0.10566000000E+00  0.10566000000E+00 0. -1.
     999900   -1    0    0    0    0 -0.00000000000E+00 -0.00000000000E+00 -0.74505805969E-08  0.93827000000E+00  0.93827000000E+00 0. -1.
     999902    2    1    2    0    0 -0.17398212123E-01 -0.86379454487E-02  0.13344666922E-01  0.10203632433E+01  0.10200910529E+01 0.  0.
     999903    2    3    3    0    0 -0.33660802461E-01  0.13333624600E-01 -0.12274418223E+00  0.12948311858E+00  0.19720764636E-01 0.  0.
         14    1    1    2    0    0  0.17398212123E-01  0.86379454487E-02 -0.13344666922E-01  0.23566756712E-01  0.00000000000E+00 0.  1.
     999901    1    3    3    0    0  0.16262590338E-01 -0.21971570049E-01  0.13608884916E+00  0.89088012471E+00  0.88000000000E+00 0.  1.
        -11    1    4    4    0    0 -0.30073976468E-01  0.74551024893E-02 -0.73621536314E-01  0.79877495855E-01  0.51100000000E-03 0.  1.
         11    1    4    4    0    0 -0.35868259934E-02  0.58785221108E-02 -0.49122645919E-01  0.49605622725E-01  0.51100000000E-03 0. -1.
</event>
<event>
 8    1  0.1091347E+005  0.1043930E+01  0.7957747E-01            NaN
         13   -1    0    0    0    0  0.00000000000E+00  0.00000000000E+00  0.74505805969E-08  0.10566000000E+00  0.10566000000E+00 0. -1.
     999900   -1    0    0    0    0 -0.00000000000E+00 -0.00000000000E+00 -0.74505805969E-08  0.93827000000E+00  0.93827000000E+00 0. -1.
     999902    2    1    2    0    0  0.22135253523E-01  0.95528761092E-02 -0.17662854603E-02  0.10197567368E+01  0.10194701837E+01 0.  0.
     999903    2    3    3    0    0 -0.87436002839E-01 -0.18967166925E-01 -0.88152471551E-01  0.12830745262E+00  0.26213281824E-01 0.  0.
         14    1    1    2    0    0 -0.22135253523E-01 -0.95528761092E-02  0.17662854603E-02  0.24173263222E-01  0.00000000000E+00 0.  1.
     999901    1    3    3    0    0  0.10957125636E+00  0.28520043034E-01  0.86386186091E-01  0.89144928416E+00  0.88000000000E+00 0. -1.
        -11    1    4    4    0    0 -0.65634000004E-01 -0.12300352679E-01 -0.48383595195E-01  0.82464259152E-01  0.51100000000E-03 0. -1.
         11    1    4    4    0    0 -0.21802002836E-01 -0.66668142459E-02 -0.39768876357E-01  0.45843193470E-01  0.51100000000E-03 0.  1.
</event>
<event>
 8    1  0.1091347E+005  0.1043930E+01  0.7957747E-01            NaN
         13   -1    0    0    0    0  0.00000000000E+00  0.00000000000E+00  0.74505805969E-08  0.10566000000E+00  0.10566000000E+00 0.  1.
     999900   -1    0    0    0    0 -0.00000000000E+00 -0.00000000000E+00 -0.74505805969E-08  0.93827000000E+00  0.93827000000E+00 0. -1.
     999902    2    1    2    0    0  0.41437557469E-02  0.19913884016E-01  0.12623658470E-01  0.10199906967E+01  0.10197097289E+01 0.  0.
     999903    2    3    3    0    0  0.13154473720E-01  0.11484249291E+00 -0.60257063255E-01  0.13184418098E+00  0.19751861427E-01 0.  0.
         14    1    1    2    0    0 -0.41437557469E-02 -0.19913884016E-01 -0.12623658470E-01  0.23939303278E-01  0.00000000000E+00 0.  1.
     999901    1    3    3    0    0 -0.90107179729E-02 -0.94928608893E-01  0.72880721725E-01  0.88814651574E+00  0.88000000000E+00 0.  1.
        -11    1    4    4    0    0 -0.15499007308E-02  0.68858880768E-01 -0.32599573931E-01  0.76203287294E-01  0.51100000000E-03 0. -1.
         11    1    4    4    0    0  0.14704374451E-01  0.45983612141E-01 -0.27657489324E-01  0.55640893686E-01  0.51100000000E-03 0.  1.
</event>
<event>
 8    1  0.1091347E+005  0.1043930E+01  0.7957747E-01            NaN
         13   -1    0    0    0    0  0.00000000000E+00  0.00000000000E+00  0.74505805969E-08  0.10566000000E+00  0.10566000000E+00 0.  1.
     999900   -1    0    0    0    0 -0.00000000000E+00 -0.00000000000E+00 -0.74505805969E-08  0.93827000000E+00  0.93827000000E+00 0.  1.
     999902    2    1    2    0    0 -0.19635732945E-01 -0.87472222915E-02 -0.80451506761E-02  0.10209778682E+01  0.10207198474E+01 0.  0.
     999903    2    3    3    0    0 -0.11161476428E+00  0.39735398509E-01  0.55891645093E-01  0.13255307080E+00  0.20240629645E-01 0.  0.
         14    1    1    2    0    0  0.19635732945E-01  0.87472222915E-02  0.80451506761E-02  0.22952131830E-01  0.00000000000E+00 0.  1.
     999901    1    3    3    0    0  0.91979031333E-01 -0.48482620801E-01 -0.63936795769E-01  0.88842479737E+00  0.88000000000E+00 0.  1.
        -11    1    4    4    0    0 -0.91512758931E-01  0.23975865501E-01  0.42557232656E-01  0.10373430650E+00  0.51100000000E-03 0.  1.
         11    1    4    4    0    0 -0.20102005347E-01  0.15759533008E-01  0.13334412437E-01  0.28818764298E-01  0.51100000000E-03 0. -1.
</event>
<event>
 8    1  0.1091347E+005  0.1043930E+01  0.7957747E-01            NaN
         13   -1    0    0    0    0  0.00000000000E+00  0.00000000000E+00  0.74505805969E-08  0.10566000000E+00  0.10566000000E+00 0. -1.
     999900   -1    0    0    0    0 -0.00000000000E+00 -0.00000000000E+00 -0.74505805969E-08  0.93827000000E+00  0.93827000000E+00 0. -1.
     999902    2    1    2    0    0 -0.20961519242E-01  0.32595970361E-03 -0.11238603212E-01  0.10201434967E+01  0.10198661461E+01 0.  0.
     999903    2    3    3    0    0 -0.11980378525E-01  0.61146735701E-01  0.11159516731E+00  0.12948757946E+00  0.20762926363E-01 0.  0.
         14    1    1    2    0    0  0.20961519242E-01 -0.32595970361E-03  0.11238603212E-01  0.23786503333E-01  0.00000000000E+00 0. -1.
     999901    1    3    3    0    0 -0.89811407168E-02 -0.60820775997E-01 -0.12283377052E+00  0.89065591721E+00  0.88000000000E+00 0. -1.
        -11    1    4    4    0    0 -0.15786370118E-01  0.27167634602E-01  0.56138351249E-01  0.64335569115E-01  0.51100000000E-03 0. -1.
         11    1    4    4    0    0  0.38059915930E-02  0.33979101098E-01  0.55456816057E-01  0.65152010342E-01  0.51100000000E-03 0.  1.
</event>
<event>
 8    1  0.1091347E+005  0.1043930E+01  0.7957747E-01            NaN
         13   -1    0    0    0    0  0.00000000000E+00  0.00000000000E+00  0.74505805969E-08  0.10566000000E+00  0.10566000000E+00 0.  1.
     999900   -1    0    0    0    0 -0.00000000000E+00 -0.00000000000E+00 -0.74505805969E-08  0.93827000000E+00  0.93827000000E+00 0.  1.
     999902    2    1    2    0    0 -0.98409375814E-02  0.21418054336E-01 -0.41134851833E-02  0.10200030724E+01  0.10197223984E+01 0.  0.
     999903    2    3    3    0    0 -0.98787099517E-01  0.85315971385E-01 -0.17111222849E-01  0.13311902997E+00  0.19752878004E-01 0.  0.
         14    1    1    2    0    0  0.98409375814E-02 -0.21418054336E-01  0.41134851833E-02  0.23926927600E-01  0.00000000000E+00 0. -1.
     999901    1    3    3    0    0  0.88946161936E-01 -0.63897917049E-01  0.12997737666E-01  0.88688404243E+00  0.88000000000E+00 0. -1.
        -11    1    4    4    0    0 -0.70353601925E-01  0.53562172609E-01 -0.19032785246E-01  0.90449122017E-01  0.51100000000E-03 0.  1.
         11    1    4    4    0    0 -0.28433497593E-01  0.31753798775E-01  0.19215623969E-02  0.42669907957E-01  0.51100000000E-03 0. -1.
</event>
<event>
 8    1  0.1091347E+005  0.1043930E+01  0.7957747E-01            NaN
         13   -1    0    0    0    0  0.00000000000E+00  0.00000000000E+00  0.74505805969E-08  0.10566000000E+00  0.10566000000E+00 0. -1.
     999900   -1    0    0    0    0 -0.00000000000E+00 -0.00000000000E+00 -0.74505805969E-08  0.93827000000E+00  0.93827000000E+00 0.  1.
     999902    2    1    2    0    0 -0.20002694751E-01  0.35650618322E-02 -0.12858770721E-01  0.10198849288E+01  0.10196014430E+01 0.  0.
     999903    2    3    3    0    0 -0.16867459403E-01  0.87176846767E-01  0.91795711332E-01  0.12974262510E+00  0.22855685264E-01 0.  0.
         14    1    1    2    0    0  0.20002694751E-01 -0.35650618322E-02  0.12858770721E-01  0.24045071172E-01  0.00000000000E+00 0. -1.
     999901    1    3    3    0    0 -0.31352353479E-02 -0.83611784935E-01 -0.10465448205E+00  0.89014230373E+00  0.88000000000E+00 0.  1.
        -11    1    4    4    0    0 -0.80991598565E-02  0.78030546350E-01  0.83592069627E-01  0.11463968676E+00  0.51100000000E-03 0.  1.
         11    1    4    4    0    0 -0.87682995469E-02  0.91463004172E-02  0.82036417042E-02  0.15102938339E-01  0.51100000000E-03 0. -1.
</event>
<event>
 8    1  0.1091347E+005  0.1043930E+01  0.7957747E-01            NaN
         13   -1    0    0    0    0  0.00000000000E+00  0.00000000000E+00  0.74505805969E-08  0.10566000000E+00  0.10566000000E+00 0.  1.
     999900   -1    0    0    0    0 -0.00000000000E+00 -0.00000000000E+00 -0.74505805969E-08  0.93827000000E+00  0.93827000000E+00 0.  1.
     999902    2    1    2    0    0 -0.24335780755E-01 -0.62588058068E-02 -0.32369140634E-02  0.10185946396E+01  0.10182795094E+01 0.  0.
     999903    2    3    3    0    0  0.23632356051E-01 -0.45866425748E-01 -0.11660565493E+00  0.12914414792E+00  0.20472296335E-01 0.  0.
         14    1    1    2    0    0  0.24335780755E-01  0.62588058068E-02  0.32369140634E-02  0.25335360422E-01  0.00000000000E+00 0.  1.
     999901    1    3    3    0    0 -0.47968136805E-01  0.39607619941E-01  0.11336874086E+00  0.88945049166E+00  0.88000000000E+00 0.  1.
        -11    1    4    4    0    0  0.82044396584E-02 -0.88579721525E-02 -0.49649893728E-01  0.51099408695E-01  0.51100000000E-03 0.  1.
         11    1    4    4    0    0  0.15427916392E-01 -0.37008453596E-01 -0.66955761200E-01  0.78044739224E-01  0.51100000000E-03 0. -1.
</event>
<event>
 8    1  0.1091347E+005  0.1043930E+01  0.7957747E-01            NaN
         13   -1    0    0    0    0  0.00000000000E+00  0.00000000000E+00  0.74505805969E-08  0.10566000000E+00  0.10566000000E+00 0.  1.
     999900   -1    0    0    0    0 -0.00000000000E+00 -0.00000000000E+00 -0.74505805969E-08  0.93827000000E+00  0.93827000000E+00 0. -1.
     999902    2    1    2    0    0 -0.34637681628E-02  0.17525636703E-01 -0.15710126514E-01  0.10201402184E+01  0.10198627906E+01 0.  0.
     999903    2    3    3    0    0 -0.59787825856E-01 -0.11199434461E+00 -0.53331561854E-02  0.12881788250E+00  0.21172787949E-01 0.  0.
         14    1    1    2    0    0  0.34637681628E-02 -0.17525636703E-01  0.15710126514E-01  0.23789781563E-01  0.00000000000E+00 0.  1.
     999901    1    3    3    0    0  0.56324057694E-01  0.12951998132E+00 -0.10376970329E-01  0.89132233594E+00  0.88000000000E+00 0. -1.
        -11    1    4    4    0    0 -0.34628670466E-01 -0.78989790262E-01 -0.10931604265E-01  0.86938443031E-01  0.51100000000E-03 0. -1.
         11    1    4    4    0    0 -0.25159155391E-01 -0.33004554352E-01  0.55984480793E-02  0.41879439464E-01  0.51100000000E-03 0.  1.
</event>
<event>
 8    1  0.1091347E+005  0.1043930E+01  0.7957747E-01            NaN
         13   -1    0    0    0    0  0.00000000000E+00  0.00000000000E+00  0.74505805969E-08  0.10566000000E+00  0.10566000000E+00 0. -1.
     999900   -1    0    0    0    0 -0.00000000000E+00 -0.00000000000E+00 -0.74505805969E-08  0.93827000000E+00  0.93827000000E+00 0.  1.
     999902    2    1    2    0    0  0.19936711391E-01  0.10566696363E-01 -0.48686456134E-02  0.10208468624E+01  0.10205858539E+01 0.  0.
     999903    2    3    3    0    0 -0.83418362951E-02  0.58071933168E-01 -0.11662855351E+00  0.13205740428E+00  0.19874679266E-01 0.  0.
         14    1    1    2    0    0 -0.19936711391E-01 -0.10566696363E-01  0.48686456134E-02  0.23083137638E-01  0.00000000000E+00 0.  1.
     999901    1    3    3    0    0  0.28278547686E-01 -0.47505236805E-01  0.11175990790E+00  0.88878945808E+00  0.88000000000E+00 0. -1.
        -11    1    4    4    0    0  0.46643923106E-02  0.33415219400E-01 -0.70461191353E-01  0.78124093922E-01  0.51100000000E-03 0.  1.
         11    1    4    4    0    0 -0.13006228606E-01  0.24656713768E-01 -0.46167362160E-01  0.53933310358E-01  0.51100000000E-03 0. -1.
</event>
<event>
 8    1  0.1091347E+005  0.1043930E+01  0.7957747E-01            NaN
         13   -1    0    0    0    0  0.00000000000E+00  0.00000000000E+00  0.74505805969E-08  0.10566000000E+00  0.10566000000E+00 0.  1.
     999900   -1    0    0    0    0 -0.00000000000E+00 -0.00000000000E+00 -0.74505805969E-08  0.93827000000E+00  0.93827000000E+00 0.  1.
     999902    2    1    2    0    0 -0.12420773355E-01  0.17200188817E-01 -0.10573865744E-01  0.10202249638E+01  0.10199495321E+01 0.  0.
     999903    2    3    3    0    0  0.57544353824E-01 -0.11233813390E+00  0.18228185395E-02  0.12790833058E+00  0.20639994682E-01 0.  0.
         14    1    1    2    0    0  0.12420773355E-01 -0.17200188817E-01  0.10573865744E-01  0.23705036234E-01  0.00000000000E+00 0.  1.
     999901    1    3    3    0    0 -0.69965127179E-01  0.12953832272E+00 -0.12396684284E-01  0.89231663318E+00  0.88000000000E+00 0. -1.
        -11    1    4    4    0    0  0.55057485652E-01 -0.95117098071E-01 -0.26497202455E-02  0.10993575947E+00  0.51100000000E-03 0. -1.
         11    1    4    4    0    0  0.24868681721E-02 -0.17221035827E-01  0.44725387851E-02  0.17972571113E-01  0.51100000000E-03 0.  1.
</event>
<event>
 8    1  0.1091347E+005  0.1043930E+01  0.7957747E-01            NaN
         13   -1    0    0    0    0  0.00000000000E+00  0.00000000000E+00  0.74505805969E-08  0.10566000000E+00  0.10566000000E+00 0.  1.
     999900   -1    0    0    0    0 -0.00000000000E+00 -0.00000000000E+00 -0.74505805969E-08  0.93827000000E+00  0.93827000000E+00 0. -1.
     999902    2    1    2    0    0  0.88985821141E-02 -0.19188562111E-01  0.11385041523E-01  0.10199090747E+01  0.10196261648E+01 0.  0.
     999903    2    3    3    0    0  0.92791708486E-01 -0.78906139611E-01 -0.46819547240E-01  0.13199465327E+00  0.19850401905E-01 0.  0.
         14    1    1    2    0    0 -0.88985821141E-02  0.19188562111E-01 -0.11385041523E-01  0.24020925253E-01  0.00000000000E+00 0.  1.
     999901    1    3    3    0    0 -0.83893126372E-01  0.59717577500E-01  0.58204588764E-01  0.88791442148E+00  0.88000000000E+00 0. -1.
        -11    1    4    4    0    0  0.53711916342E-01 -0.44524096243E-01 -0.37176020396E-01  0.79054934804E-01  0.51100000000E-03 0.  1.
         11    1    4    4    0    0  0.39079792144E-01 -0.34382043368E-01 -0.96435268446E-02  0.52939718466E-01  0.51100000000E-03 0. -1.
</event>
<event>
 8    1  0.1091347E+005  0.1043930E+01  0.7957747E-01            NaN
         13   -1    0    0    0    0  0.00000000000E+00  0.00000000000E+00  0.74505805969E-08  0.10566000000E+00  0.10566000000E+00 0.  1.
     999900   -1    0    0    0    0 -0.00000000000E+00 -0.00000000000E+00 -0.74505805969E-08  0.93827000000E+00  0.93827000000E+00 0. -1.
     999902    2    1    2    0    0  0.67894479897E-03  0.18572091629E-01 -0.14328032670E-01  0.10204635117E+01  0.10201936594E+01 0.  0.
     999903    2    3    3    0    0  0.39728037342E-01 -0.11989891754E+00 -0.14649499401E-01  0.12878018486E+00  0.20387761023E-01 0.  0.
         14    1    1    2    0    0 -0.67894479897E-03 -0.18572091629E-01  0.14328032670E-01  0.23466488313E-01  0.00000000000E+00 0.  1.
     999901    1    3    3    0    0 -0.39049092543E-01  0.13847100917E+00  0.32146673031E-03  0.89168332683E+00  0.88000000000E+00 0.  1.
        -11    1    4    4    0    0  0.76448149266E-02 -0.43267263691E-01 -0.12460621392E-01  0.45673050140E-01  0.51100000000E-03 0. -1.
         11    1    4    4    0    0  0.32083222415E-01 -0.76631653852E-01 -0.21888780086E-02  0.83107134715E-01  0.51100000000E-03 0.  1.
</event>
<event>
 7    1  0.1091347E+005  0.1043930E+01  0.7957747E-01            NaN
         13   -1    0    0    0    0  0.00000000000E+00  0.00000000000E+00  0.74505805969E-08  0.10566000000E+00  0.10566000000E+00 0.  1.
     999900   -1    0    0    0    0 -0.00000000000E+00 -0.00000000000E+00 -0.74505805969E-08  0.93827000000E+00  0.93827000000E+00 0.  1.
     999903    2    1    2    0    0 -0.61864927494E-01 -0.63962676980E-01  0.62923616729E-01  0.11082507678E+00  0.20107779616E-01 0.  0.
         14    1    1    2    0    0 -0.26597066351E-01 -0.28730674689E-01 -0.16876917627E-01  0.42634328366E-01  0.00000000000E+00 0. -1.
     999901    1    1    2    0    0  0.88461993845E-01  0.92693351669E-01 -0.46046699102E-01  0.89047059485E+00  0.88000000000E+00 0.  1.
        -11    1    3    3    0    0 -0.32397437421E-01 -0.47414250449E-01  0.39915030731E-01  0.69936942286E-01  0.51100000000E-03 0. -1.
         11    1    3    3    0    0 -0.29467490074E-01 -0.16548426530E-01  0.23008585999E-01  0.40888134496E-01  0.51100000000E-03 0.  1.
</event>
<event>
 8    1  0.1091347E+005  0.1043930E+01  0.7957747E-01            NaN
         13   -1    0    0    0    0  0.00000000000E+00  0.00000000000E+00  0.74505805969E-08  0.10566000000E+00  0.10566000000E+00 0.  1.
     999900   -1    0    0    0    0 -0.00000000000E+00 -0.00000000000E+00 -0.74505805969E-08  0.93827000000E+00  0.93827000000E+00 0.  1.
     999902    2    1    2    0    0 -0.37855777092E-02 -0.32793402270E-02  0.24800359212E-01  0.10186289627E+01  0.10183146965E+01 0.  0.
     999903    2    3    3    0    0  0.76581556309E-01 -0.39507394230E-01  0.97053767494E-01  0.13127790302E+00  0.19720169131E-01 0.  0.
         14    1    1    2    0    0  0.37855777092E-02  0.32793402270E-02 -0.24800359212E-01  0.25301037290E-01  0.00000000000E+00 0. -1.
     999901    1    3    3    0    0 -0.80367134018E-01  0.36228054003E-01 -0.72253408282E-01  0.88735105969E+00  0.88000000000E+00 0.  1.
        -11    1    4    4    0    0  0.43546008513E-01 -0.14941751470E-01  0.61868737658E-01  0.77120118093E-01  0.51100000000E-03 0.  1.
         11    1    4    4    0    0  0.33035547796E-01 -0.24565642759E-01  0.35185029836E-01  0.54157784925E-01  0.51100000000E-03 0. -1.
</event>
<event>
 8    1  0.1091347E+005  0.1043930E+01  0.7957747E-01            NaN
         13   -1    0    0    0    0  0.00000000000E+00  0.00000000000E+00  0.74505805969E-08  0.10566000000E+00  0.10566000000E+00 0.  1.
     999900   -1    0    0    0    0 -0.00000000000E+00 -0.00000000000E+00 -0.74505805969E-08  0.93827000000E+00  0.93827000000E+00 0. -1.
     999902    2    1    2    0    0 -0.10002973441E-01 -0.13615567786E-01 -0.17735809637E-01  0.10194350596E+01  0.10191407354E+01 0.  0.
     999903    2    3    3    0    0 -0.11640776334E+00  0.84120043390E-02 -0.58025534497E-01  0.13183692122E+00  0.19811157488E-01 0.  0.
         14    1    1    2    0    0  0.10002973441E-01  0.13615567786E-01  0.17735809637E-01  0.24494940442E-01  0.00000000000E+00 0.  1.
     999901    1    3    3    0    0  0.10640478990E+00 -0.22027572125E-01  0.40289724861E-01  0.88759813834E+00  0.88000000000E+00 0.  1.
        -11    1    4    4    0    0 -0.64701501306E-01 -0.16633295998E-02 -0.23542516338E-01  0.68873522729E-01  0.51100000000E-03 0.  1.
         11    1    4    4    0    0 -0.51706262034E-01  0.10075333939E-01 -0.34483018159E-01  0.62963398494E-01  0.51100000000E-03 0. -1.
</event>
<event>
 8    1  0.1091347E+005  0.1043930E+01  0.7957747E-01            NaN
         13   -1    0    0    0    0  0.00000000000E+00  0.00000000000E+00  0.74505805969E-08  0.10566000000E+00  0.10566000000E+00 0. -1.
     999900   -1    0    0    0    0 -0.00000000000E+00 -0.00000000000E+00 -0.74505805969E-08  0.93827000000E+00  0.93827000000E+00 0.  1.
     999902    2    1    2    0    0  0.97564513574E-02  0.13388089119E-01 -0.17741016415E-01  0.10196571152E+01  0.10193681669E+01 0.  0.
     999903    2    3    3    0    0 -0.33227392034E-01  0.45117670539E-01  0.11368485361E+00  0.12829459835E+00  0.19889551222E-01 0.  0.
         14    1    1    2    0    0 -0.97564513574E-02 -0.13388089119E-01  0.17741016415E-01  0.24272884806E-01  0.00000000000E+00 0. -1.
     999901    1    3    3    0    0  0.42983843392E-01 -0.31729581420E-01 -0.13142587003E+00  0.89136251685E+00  0.88000000000E+00 0.  1.
        -11    1    4    4    0    0 -0.16387629334E-01  0.71353588363E-02  0.32484654646E-01  0.37080744995E-01  0.51100000000E-03 0. -1.
         11    1    4    4    0    0 -0.16839762700E-01  0.37982311703E-01  0.81200198966E-01  0.91213853351E-01  0.51100000000E-03 0.  1.
</event>
<event>
 8    1  0.1091347E+005  0.1043930E+01  0.7957747E-01            NaN
         13   -1    0    0    0    0  0.00000000000E+00  0.00000000000E+00  0.74505805969E-08  0.10566000000E+00  0.10566000000E+00 0. -1.
     999900   -1    0    0    0    0 -0.00000000000E+00 -0.00000000000E+00 -0.74505805969E-08  0.93827000000E+00  0.93827000000E+00 0.  1.
     999902    2    1    2    0    0 -0.12352916137E-03  0.22183257989E-01  0.83705429602E-02  0.10202197030E+01  0.10199441476E+01 0.  0.
     999903    2    3    3    0    0  0.12090464525E+00  0.85789621366E-02 -0.43423394311E-01  0.13032335634E+00  0.20175584242E-01 0.  0.
         14    1    1    2    0    0  0.12352916137E-03 -0.22183257989E-01 -0.83705429602E-02  0.23710297002E-01  0.00000000000E+00 0.  1.
     999901    1    3    3    0    0 -0.12102817441E+00  0.13604295853E-01  0.51793937271E-01  0.88989634666E+00  0.88000000000E+00 0.  1.
        -11    1    4    4    0    0  0.26341437521E-01  0.32538546176E-02 -0.10631762453E-02  0.26567844573E-01  0.51100000000E-03 0.  1.
         11    1    4    4    0    0  0.94563207726E-01  0.53251075190E-02 -0.42360218066E-01  0.10375551176E+00  0.51100000000E-03 0. -1.
</event>
<event>
 8    1  0.1091347E+005  0.1043930E+01  0.7957747E-01            NaN
         13   -1    0    0    0    0  0.00000000000E+00  0.00000000000E+00  0.74505805969E-08  0.10566000000E+00  0.10566000000E+00 0.  1.
     999900   -1    0    0    0    0 -0.00000000000E+00 -0.00000000000E+00 -0.74505805969E-08  0.93827000000E+00  0.93827000000E+00 0.  1.
     999902    2    1    2    0    0  0.23919003229E-01 -0.38601172771E-03  0.58174650164E-02  0.10193106860E+01  0.10190133287E+01 0.  0.
     999903    2    3    3    0    0  0.11431156120E+00 -0.52178431771E-01  0.37339832795E-01  0.13260502519E+00  0.20002695514E-01 0.  0.
         14    1    1    2    0    0 -0.23919003229E-01  0.38601172771E-03 -0.58174650164E-02  0.24619313957E-01  0.00000000000E+00 0. -1.
     999901    1    3    3    0    0 -0.90392557970E-01  0.51792420043E-01 -0.31522367778E-01  0.88670566085E+00  0.88000000000E+00 0. -1.
        -11    1    4    4    0    0  0.41893202634E-01 -0.92647484462E-02  0.15674257186E-01  0.45681718992E-01  0.51100000000E-03 0. -1.
         11    1    4    4    0    0  0.72418358565E-01 -0.42913683324E-01  0.21665575609E-01  0.86923306203E-01  0.51100000000E-03 0.  1.
</event>
<event>
 8    1  0.1091347E+005  0.1043930E+01  0.7957747E-01            NaN
         13   -1    0    0    0    0  0.00000000000E+00  0.00000000000E+00  0.74505805969E-08  0.10566000000E+00  0.10566000000E+00 0.  1.
     999900   -1    0    0    0    0 -0.00000000000E+00 -0.00000000000E+00 -0.74505805969E-08  0.93827000000E+00  0.93827000000E+00 0.  1.
     999902    2    1    2    0    0  0.14268500514E-01  0.12907420831E-01  0.14630914027E-01  0.10197586272E+01  0.10194721195E+01 0.  0.
     999903    2    3    3    0    0 -0.11573924135E+00 -0.23699358934E-01 -0.44062763058E-01  0.12752154152E+00  0.19052161603E-01 0.  0.
         14    1    1    2    0    0 -0.14268500514E-01 -0.12907420831E-01 -0.14630914027E-01  0.24171372834E-01  0.00000000000E+00 0. -1.
     999901    1    3    3    0    0  0.13000774186E+00  0.36606779765E-01  0.58693677085E-01  0.89223708564E+00  0.88000000000E+00 0. -1.
        -11    1    4    4    0    0 -0.81760756894E-01 -0.18692473997E-01 -0.22042316547E-01  0.86719979196E-01  0.51100000000E-03 0.  1.
         11    1    4    4    0    0 -0.33978484455E-01 -0.50068849370E-02 -0.22020446512E-01  0.40801562325E-01  0.51100000000E-03 0. -1.
</event>
<event>
 8    1  0.1091347E+005  0.1043930E+01  0.7957747E-01            NaN
         13   -1    0    0    0    0  0.00000000000E+00  0.00000000000E+00  0.74505805969E-08  0.10566000000E+00  0.10566000000E+00 0. -1.
     999900   -1    0    0    0    0 -0.00000000000E+00 -0.00000000000E+00 -0.74505805969E-08  0.93827000000E+00  0.93827000000E+00 0. -1.
     999902    2    1    2    0    0 -0.21862987449E-01  0.64022980889E-02  0.42958580683E-02  0.10207473764E+01  0.10204840873E+01 0.  0.
     999903    2    3    3    0    0  0.97435108344E-01 -0.25250334704E-01  0.78131543147E-01  0.12907163195E+00  0.20585635762E-01 0.  0.
         14    1    1    2    0    0  0.21862987449E-01 -0.64022980889E-02 -0.42958580683E-02  0.23182623612E-01  0.00000000000E+00 0.  1.
     999901    1    3    3    0    0 -0.11929809579E+00  0.31652632793E-01 -0.73835685079E-01  0.89167574443E+00  0.88000000000E+00 0.  1.
        -11    1    4    4    0    0  0.60043300591E-01 -0.53414991980E-02  0.43214338215E-01  0.74171892978E-01  0.51100000000E-03 0. -1.
         11    1    4    4    0    0  0.37391807753E-01 -0.19908835506E-01  0.34917204932E-01  0.54899738975E-01  0.51100000000E-03 0.  1.
</event>
<event>
 8    1  0.1091347E+005  0.1043930E+01  0.7957747E-01            NaN
         13   -1    0    0    0    0  0.00000000000E+00  0.00000000000E+00  0.74505805969E-08  0.10566000000E+00  0.10566000000E+00 0. -1.
     999900   -1    0    0    0    0 -0.00000000000E+00 -0.00000000000E+00 -0.74505805969E-08  0.93827000000E+00  0.93827000000E+00 0.  1.
     999902    2    1    2    0    0  0.19835254890E-01  0.44780128862E-02 -0.11610778539E-01  0.10205141909E+01  0.10202455164E+01 0.  0.
     999903    2    3    3    0    0  0.78557885065E-01 -0.10245260461E+00  0.15846376636E-01  0.13167427305E+00  0.20472641074E-01 0.  0.
         14    1    1    2    0    0 -0.19835254890E-01 -0.44780128862E-02  0.11610778539E-01  0.23415809067E-01  0.00000000000E+00 0.  1.
     999901    1    3    3    0    0 -0.58722630174E-01  0.10693061750E+00 -0.27457155175E-01  0.88883991788E+00  0.88000000000E+00 0. -1.
        -11    1    4    4    0    0  0.60862943294E-01 -0.73471026239E-01  0.19938066612E-01  0.97468339394E-01  0.51100000000E-03 0.  1.
         11    1    4    4    0    0  0.17694941771E-01 -0.28981578374E-01 -0.40916899756E-02  0.34205933655E-01  0.51100000000E-03 0. -1.
</event>
<event>
 8    1  0.1091347E+005  0.1043930E+01  0.7957747E-01            NaN
         13   -1    0    0    0    0  0.00000000000E+00  0.00000000000E+00  0.74505805969E-08  0.10566000000E+00  0.10566000000E+00 0. -1.
     999900   -1    0    0    0    0 -0.00000000000E+00 -0.00000000000E+00 -0.74505805969E-08  0.93827000000E+00  0.93827000000E+00 0.  1.
     999902    2    1    2    0    0  0.12249605305E-01 -0.54186052557E-02  0.19403665557E-01  0.10203521216E+01  0.10200796712E+01 0.  0.
     999903    2    3    3    0    0  0.37482180515E-01 -0.29000205319E-01  0.12328922832E+00  0.13356861653E+00  0.19859902718E-01 0.  0.
         14    1    1    2    0    0 -0.12249605305E-01  0.54186052557E-02 -0.19403665557E-01  0.23577878405E-01  0.00000000000E+00 0.  1.
     999901    1    3    3    0    0 -0.25232575210E-01  0.23581600063E-01 -0.10388556276E+00  0.88678350507E+00  0.88000000000E+00 0.  1.
        -11    1    4    4    0    0  0.27647686537E-02 -0.11775364582E-01  0.38087383724E-01  0.39965148275E-01  0.51100000000E-03 0. -1.
         11    1    4    4    0    0  0.34717411862E-01 -0.17224840737E-01  0.85201844596E-01  0.93603468250E-01  0.51100000000E-03 0.  1.
</event>
<event>
 8    1  0.1091347E+005  0.1043930E+01  0.7957747E-01            NaN
         13   -1    0    0    0    0  0.00000000000E+00  0.00000000000E+00  0.74505805969E-08  0.10566000000E+00  0.10566000000E+00 0. -1.
     999900   -1    0    0    0    0 -0.00000000000E+00 -0.00000000000E+00 -0.74505805969E-08  0.93827000000E+00  0.93827000000E+00 0.  1.
     999902    2    1    2    0    0 -0.28853871314E-01  0.11431092593E-01 -0.99546302280E-02  0.10113368960E+01  0.10108115585E+01 0.  0.
     999903    2    3    3    0    0 -0.38911623868E-01  0.42804690777E-01  0.10669084418E+00  0.12302860052E+00  0.20167902464E-01 0.  0.
         14    1    1    2    0    0  0.28853871314E-01 -0.11431092593E-01  0.99546302280E-02  0.32593104035E-01  0.00000000000E+00 0. -1.
     999901    1    3    3    0    0  0.10057752554E-01 -0.31373598185E-01 -0.11664547441E+00  0.88830829544E+00  0.88000000000E+00 0.  1.
        -11    1    4    4    0    0 -0.16928500820E-01  0.31227764206E-01  0.72778007727E-01  0.80985473556E-01  0.51100000000E-03 0. -1.
         11    1    4    4    0    0 -0.21983123048E-01  0.11576926571E-01  0.33912836456E-01  0.42043126968E-01  0.51100000000E-03 0.  1.
</event>
<event>
 8    1  0.1091347E+005  0.1043930E+01  0.7957747E-01            NaN
         13   -1    0    0    0    0  0.00000000000E+00  0.00000000000E+00  0.74505805969E-08  0.10566000000E+00  0.10566000000E+00 0. -1.
     999900   -1    0    0    0    0 -0.00000000000E+00 -0.00000000000E+00 -0.74505805969E-08  0.93827000000E+00  0.93827000000E+00 0.  1.
     999902    2    1    2    0    0 -0.16110635692E-01 -0.91514942409E-02 -0.16157758408E-01  0.10193459485E+01  0.10190494528E+01 0.  0.
     999903    2    3    3    0    0 -0.73696546057E-01  0.10287551837E+00 -0.24932908808E-01  0.13033346725E+00  0.18724571097E-01 0.  0.
         14    1    1    2    0    0  0.16110635692E-01  0.91514942409E-02  0.16157758408E-01  0.24584051456E-01  0.00000000000E+00 0.  1.
     999901    1    3    3    0    0  0.57585910365E-01 -0.11202701261E+00  0.87751504006E-02  0.88901248129E+00  0.88000000000E+00 0. -1.
        -11    1    4    4    0    0 -0.51677818711E-01  0.84733437899E-01 -0.16795808446E-01  0.10066137664E+00  0.51100000000E-03 0.  1.
         11    1    4    4    0    0 -0.22018727346E-01  0.18142080475E-01 -0.81371003621E-02  0.29672090611E-01  0.51100000000E-03 0. -1.
</event>
<event>
 8    1  0.1091347E+005  0.1043930E+01  0.7957747E-01            NaN
         13   -1    0    0    0    0  0.00000000000E+00  0.00000000000E+00  0.74505805969E-08  0.10566000000E+00  0.10566000000E+00 0.  1.
     999900   -1    0    0    0    0 -0.00000000000E+00 -0.00000000000E+00 -0.74505805969E-08  0.93827000000E+00  0.93827000000E+00 0.  1.
     999902    2    1    2    0    0 -0.12519031668E-01  0.71166476390E-02  0.18999722731E-01  0.10200896499E+01  0.10198110274E+01 0.  0.
     999903    2    3    3    0    0  0.10319051820E+00  0.42953695857E-01  0.64803358014E-01  0.13061173173E+00  0.19148008312E-01 0.  0.
         14    1    1    2    0    0  0.12519031668E-01 -0.71166476390E-02 -0.18999722731E-01  0.23840350068E-01  0.00000000000E+00 0. -1.
     999901    1    3    3    0    0 -0.11570954987E+00 -0.35837048218E-01 -0.45803635283E-01  0.88947791820E+00  0.88000000000E+00 0.  1.
        -11    1    4    4    0    0  0.71220929345E-01  0.26361537250E-01  0.33972582831E-01  0.83197048795E-01  0.51100000000E-03 0.  1.
         11    1    4    4    0    0  0.31969588857E-01  0.16592158607E-01  0.30830775183E-01  0.47414682940E-01  0.51100000000E-03 0. -1.
</event>
<event>
 8    1  0.1091347E+005  0.1043930E+01  0.7957747E-01            NaN
         13   -1    0    0    0    0  0.00000000000E+00  0.00000000000E+00  0.74505805969E-08  0.10566000000E+00  0.10566000000E+00 0.  1.
     999900   -1    0    0    0    0 -0.00000000000E+00 -0.00000000000E+00 -0.74505805969E-08  0.93827000000E+00  0.93827000000E+00 0. -1.
     999902    2    1    2    0    0  0.12062374419E-01  0.17356219851E-02 -0.21359401325E-01  0.10193385933E+01  0.10190419179E+01 0.  0.
     999903    2    3    3    0    0 -0.68224957971E-01  0.68375857329E-01 -0.85951662522E-01  0.13082346288E+00  0.19929560832E-01 0.  0.
         14    1    1    2    0    0 -0.12062374419E-01 -0.17356219851E-02  0.21359401325E-01  0.24591406736E-01  0.00000000000E+00 0.  1.
     999901    1    3    3    0    0  0.80287332390E-01 -0.66640235344E-01  0.64592261197E-01  0.88851513038E+00  0.88000000000E+00 0.  1.
        -11    1    4    4    0    0 -0.11835418604E-01  0.28756690329E-02 -0.11040764669E-01  0.16447073035E-01  0.51100000000E-03 0. -1.
         11    1    4    4    0    0 -0.56389539367E-01  0.65500188296E-01 -0.74910897852E-01  0.11437638985E+00  0.51100000000E-03 0.  1.
</event>
<event>
 8    1  0.1091347E+005  0.1043930E+01  0.7957747E-01            NaN
         13   -1    0    0    0    0  0.00000000000E+00  0.00000000000E+00  0.74505805969E-08  0.10566000000E+00  0.10566000000E+00 0.  1.
     999900   -1    0    0    0    0 -0.00000000000E+00 -0.00000000000E+00 -0.74505805969E-08  0.93827000000E+00  0.93827000000E+00 0. -1.
     999902    2    1    2    0    0 -0.48868777664E-02 -0.23268713163E-01 -0.26928595773E-03  0.10201521300E+01  0.10198749831E+01 0.  0.
     999903    2    3    3    0    0  0.29748801571E-01  0.71457235557E-01 -0.10046476339E+00  0.12874214053E+00  0.22141417196E-01 0.  0.
         14    1    1    2    0    0  0.48868777664E-02  0.23268713163E-01  0.26928595773E-03  0.23777869995E-01  0.00000000000E+00 0.  1.
     999901    1    3    3    0    0 -0.34635679337E-01 -0.94725948721E-01  0.10019547743E+00  0.89140998948E+00  0.88000000000E+00 0.  1.
        -11    1    4    4    0    0  0.29695673721E-01  0.44314980648E-01 -0.67660640425E-01  0.86161905337E-01  0.51100000000E-03 0.  1.
         11    1    4    4    0    0  0.53127850072E-04  0.27142254909E-01 -0.32804122967E-01  0.42580235189E-01  0.51100000000E-03 0. -1.
</event>
<event>
 8    1  0.1091347E+005  0.1043930E+01  0.7957747E-01            NaN
         13   -1    0    0    0    0  0.00000000000E+00  0.00000000000E+00  0.74505805969E-08  0.10566000000E+00  0.10566000000E+00 0.  1.
     999900   -1    0    0    0    0 -0.00000000000E+00 -0.00000000000E+00 -0.74505805969E-08  0.93827000000E+00  0.93827000000E+00 0. -1.
     999902    2    1    2    0    0 -0.10936255375E-01 -0.20528207317E-01 -0.63428126370E-02  0.10198210753E+01  0.10195360638E+01 0.  0.
     999903    2    3    3    0    0 -0.83802882580E-01  0.70829733413E-01 -0.66941312231E-01  0.13003009039E+00  0.19670049847E-01 0.  0.
         14    1    1    2    0    0  0.10936255375E-01  0.20528207317E-01  0.63428126370E-02  0.24108924684E-01  0.00000000000E+00 0.  1.
     999901    1    3    3    0    0  0.72866627205E-01 -0.91357940729E-01  0.60598499594E-01  0.88979098492E+00  0.88000000000E+00 0. -1.
        -11    1    4    4    0    0 -0.11198044390E-01  0.19649738529E-01 -0.14604341698E-01  0.26926870220E-01  0.51100000000E-03 0. -1.
         11    1    4    4    0    0 -0.72604838190E-01  0.51179994883E-01 -0.52336970532E-01  0.10310322017E+00  0.51100000000E-03 0.  1.
</event>
<event>
 8    1  0.1091347E+005  0.1043930E+01  0.7957747E-01            NaN
         13   -1    0    0    0    0  0.00000000000E+00  0.00000000000E+00  0.74505805969E-08  0.10566000000E+00  0.10566000000E+00 0. -1.
     999900   -1    0    0    0    0 -0.00000000000E+00 -0.00000000000E+00 -0.74505805969E-08  0.93827000000E+00  0.93827000000E+00 0. -1.
     999902    2    1    2    0    0 -0.84278543828E-02 -0.16922413095E-01  0.13617361952E-01  0.10206313017E+01  0.10203653389E+01 0.  0.
     999903    2    3    3    0    0  0.72059451585E-01  0.19631589909E-01  0.10620475361E+00  0.13136934558E+00  0.20012280867E-01 0.  0.
         14    1    1    2    0    0  0.84278543828E-02  0.16922413095E-01 -0.13617361952E-01  0.23298698268E-01  0.00000000000E+00 0.  1.
     999901    1    3    3    0    0 -0.80487305968E-01 -0.36554003004E-01 -0.92587391655E-01  0.88926195615E+00  0.88000000000E+00 0. -1.
        -11    1    4    4    0    0  0.38848625413E-01  0.22688845835E-03  0.53492219734E-01  0.66113129316E-01  0.51100000000E-03 0. -1.
         11    1    4    4    0    0  0.33210826172E-01  0.19404701450E-01  0.52712533873E-01  0.65256216269E-01  0.51100000000E-03 0.  1.
</event>
<event>
 8    1  0.1091347E+005  0.1043930E+01  0.7957747E-01            NaN
         13   -1    0    0    0    0  0.00000000000E+00  0.00000000000E+00  0.74505805969E-08  0.10566000000E+00  0.10566000000E+00 0.  1.
     999900   -1    0    0    0    0 -0.00000000000E+00 -0.00000000000E+00 -0.74505805969E-08  0.93827000000E+00  0.93827000000E+00 0.  1.
     999902    2    1    2    0    0 -0.12472636474E-01  0.49499795800E-02 -0.19514997012E-01  0.10202465867E+01  0.10199716631E+01 0.  0.
     999903    2    3    3    0    0 -0.12214564644E+00 -0.41246962228E-01 -0.21573080978E-01  0.13223388279E+00  0.19988274019E-01 0.  0.
         14    1    1    2    0    0  0.12472636474E-01 -0.49499795800E-02  0.19514997012E-01  0.23683413328E-01  0.00000000000E+00 0.  1.
     999901    1    3    3    0    0  0.10967300996E+00  0.46196941808E-01  0.20580839658E-02  0.88801270388E+00  0.88000000000E+00 0.  1.
        -11    1    4    4    0    0 -0.70561458600E-01 -0.23029730531E-01 -0.22354382105E-01  0.77519464964E-01  0.51100000000E-03 0. -1.
         11    1    4    4    0    0 -0.51584187838E-01 -0.18217231697E-01  0.78130112721E-03  0.54714417826E-01  0.51100000000E-03 0.  1.
</event>
<event>
 8    1  0.1091347E+005  0.1043930E+01  0.7957747E-01            NaN
         13   -1    0    0    0    0  0.00000000000E+00  0.00000000000E+00  0.74505805969E-08  0.10566000000E+00  0.10566000000E+00 0.  1.
     999900   -1    0    0    0    0 -0.00000000000E+00 -0.00000000000E+00 -0.74505805969E-08  0.93827000000E+00  0.93827000000E+00 0. -1.
     999902    2    1    2    0    0  0.11262070409E-01  0.14752357952E-01  0.15170038951E-01  0.10199592600E+01  0.10196775449E+01 0.  0.
     999903    2    3    3    0    0 -0.31638484374E-01 -0.98060397305E-01  0.76130796835E-01  0.12963157348E+00  0.19789173914E-01 0.  0.
         14    1    1    2    0    0 -0.11262070409E-01 -0.14752357952E-01 -0.15170038951E-01  0.23970740014E-01  0.00000000000E+00 0. -1.
     999901    1    3    3    0    0  0.42900554784E-01  0.11281275526E+00 -0.60960757885E-01  0.89032768650E+00  0.88000000000E+00 0. -1.
        -11    1    4    4    0    0 -0.11999718989E-01 -0.32613579408E-01  0.14663719010E-01  0.37721672733E-01  0.51100000000E-03 0. -1.
         11    1    4    4    0    0 -0.19638765385E-01 -0.65446817897E-01  0.61467077825E-01  0.91909900751E-01  0.51100000000E-03 0.  1.
</event>
<event>
 8    1  0.1091347E+005  0.1043930E+01  0.7957747E-01            NaN
         13   -1    0    0    0    0  0.00000000000E+00  0.00000000000E+00  0.74505805969E-08  0.10566000000E+00  0.10566000000E+00 0. -1.
     999900   -1    0    0    0    0 -0.00000000000E+00 -0.00000000000E+00 -0.74505805969E-08  0.93827000000E+00  0.93827000000E+00 0.  1.
     999902    2    1    2    0    0 -0.10313732242E-01 -0.12192300543E-01  0.18461325376E-01  0.10195200471E+01  0.10192277864E+01 0.  0.
     999903    2    3    3    0    0  0.14847637817E-01  0.39357407963E-03 -0.12506691636E+00  0.12744838241E+00  0.19512799958E-01 0.  0.
         14    1    1    2    0    0  0.10313732242E-01  0.12192300543E-01 -0.18461325376E-01  0.24409952887E-01  0.00000000000E+00 0. -1.
     999901    1    3    3    0    0 -0.25161370059E-01 -0.12585874623E-01  0.14352824174E+00  0.89207166470E+00  0.88000000000E+00 0. -1.
        -11    1    4    4    0    0  0.15223045717E-01  0.35308950403E-02 -0.51721651360E-01  0.54033310847E-01  0.51100000000E-03 0. -1.
         11    1    4    4    0    0 -0.37540789953E-03 -0.31373209606E-02 -0.73345265002E-01  0.73415071566E-01  0.51100000000E-03 0.  1.
</event>
<event>
 8    1  0.1091347E+005  0.1043930E+01  0.7957747E-01            NaN
         13   -1    0    0    0    0  0.00000000000E+00  0.00000000000E+00  0.74505805969E-08  0.10566000000E+00  0.10566000000E+00 0.  1.
     999900   -1    0    0    0    0 -0.00000000000E+00 -0.00000000000E+00 -0.74505805969E-08  0.93827000000E+00  0.93827000000E+00 0. -1.
     999902    2    1    2    0    0  0.16115902217E-01  0.15536882660E-01 -0.90995173186E-02  0.10197655997E+01  0.10194792593E+01 0.  0.
     999903    2    3    3    0    0  0.16619298744E-01 -0.61840451272E-01 -0.11168402964E+00  0.13043377895E+00  0.20957235243E-01 0.  0.
         14    1    1    2    0    0 -0.16115902217E-01 -0.15536882660E-01  0.90995173186E-02  0.24164400313E-01  0.00000000000E+00 0.  1.
     999901    1    3    3    0    0 -0.50339652673E-03  0.77377333932E-01  0.10258451232E+00  0.88933182074E+00  0.88000000000E+00 0.  1.
        -11    1    4    4    0    0  0.23894065752E-02 -0.45570633549E-01 -0.79346179034E-01  0.91533978140E-01  0.51100000000E-03 0.  1.
         11    1    4    4    0    0  0.14229892168E-01 -0.16269817723E-01 -0.32337850607E-01  0.38899800806E-01  0.51100000000E-03 0. -1.
</event>
<event>
 7    1  0.1091347E+005  0.1043930E+01  0.7957747E-01            NaN
         13   -1    0    0    0    0  0.00000000000E+00  0.00000000000E+00  0.74505805969E-08  0.10566000000E+00  0.10566000000E+00 0. -1.
     999900   -1    0    0    0    0 -0.00000000000E+00 -0.00000000000E+00 -0.74505805969E-08  0.93827000000E+00  0.93827000000E+00 0.  1.
     999903    2    1    2    0    0  0.38929167255E-01 -0.90814396891E-01  0.19262794627E-01  0.10273942033E+00  0.20532863589E-01 0.  0.
         14    1    1    2    0    0 -0.32219885169E-01  0.57869139222E-02  0.43959646524E-01  0.54809304827E-01  0.00000000000E+00 0. -1.
     999901    1    1    2    0    0 -0.67092820863E-02  0.85027482969E-01 -0.63222441152E-01  0.88638127484E+00  0.88000000000E+00 0.  1.
        -11    1    3    3    0    0  0.33648355599E-01 -0.58229303854E-01  0.74063148172E-02  0.67660758804E-01  0.51100000000E-03 0. -1.
         11    1    3    3    0    0  0.52808116568E-02 -0.32585093037E-01  0.11856479810E-01  0.35078661526E-01  0.51100000000E-03 0.  1.
</event>
<event>
 8    1  0.1091347E+005  0.1043930E+01  0.7957747E-01            NaN
         13   -1    0    0    0    0  0.00000000000E+00  0.00000000000E+00  0.74505805969E-08  0.10566000000E+00  0.10566000000E+00 0. -1.
     999900   -1    0    0    0    0 -0.00000000000E+00 -0.00000000000E+00 -0.74505805969E-08  0.93827000000E+00  0.93827000000E+00 0.  1.
     999902    2    1    2    0    0  0.23312279349E-01  0.41270356668E-02 -0.78058168899E-04  0.10202551001E+01  0.10199803765E+01 0.  0.
     999903    2    3    3    0    0 -0.42479598267E-01  0.10555583879E+00  0.59709467099E-01  0.12997934426E+00  0.19566760152E-01 0.  0.
         14    1    1    2    0    0 -0.23312279349E-01 -0.41270356668E-02  0.78058168899E-04  0.23674899893E-01  0.00000000000E+00 0.  1.
     999901    1    3    3    0    0  0.65791877616E-01 -0.10142880312E+00 -0.59787525268E-01  0.89027575584E+00  0.88000000000E+00 0.  1.
        -11    1    4    4    0    0 -0.19190048701E-04  0.18316930384E-01  0.75005601167E-02  0.19799743181E-01  0.51100000000E-03 0.  1.
         11    1    4    4    0    0 -0.42460408218E-01  0.87238908405E-01  0.52208906983E-01  0.11017960108E+00  0.51100000000E-03 0. -1.
</event>
<event>
 8    1  0.1091347E+005  0.1043930E+01  0.7957747E-01            NaN
         13   -1    0    0    0    0  0.00000000000E+00  0.00000000000E+00  0.74505805969E-08  0.10566000000E+00  0.10566000000E+00 0.  1.
     999900   -1    0    0    0    0 -0.00000000000E+00 -0.00000000000E+00 -0.74505805969E-08  0.93827000000E+00  0.93827000000E+00 0. -1.
     999902    2    1    2    0    0  0.76060045073E-02 -0.87303469491E-02 -0.24045165503E-01  0.10172421704E+01  0.10168920263E+01 0.  0.
     999903    2    3    3    0    0 -0.10484776052E+00 -0.23529866309E-01 -0.68281396961E-01  0.12886065374E+00  0.19900035599E-01 0.  0.
         14    1    1    2    0    0 -0.76060045073E-02  0.87303469491E-02  0.24045165503E-01  0.26687829558E-01  0.00000000000E+00 0.  1.
     999901    1    3    3    0    0  0.11245376503E+00  0.14799519360E-01  0.44236231458E-01  0.88838151670E+00  0.88000000000E+00 0. -1.
        -11    1    4    4    0    0 -0.68377777320E-01 -0.10729746888E-01 -0.53476774858E-01  0.87468134024E-01  0.51100000000E-03 0. -1.
         11    1    4    4    0    0 -0.36469983202E-01 -0.12800119421E-01 -0.14804622103E-01  0.41392519717E-01  0.51100000000E-03 0.  1.
</event>
<event>
 8    1  0.1091347E+005  0.1043930E+01  0.7957747E-01            NaN
         13   -1    0    0    0    0  0.00000000000E+00  0.00000000000E+00  0.74505805969E-08  0.10566000000E+00  0.10566000000E+00 0. -1.
     999900   -1    0    0    0    0 -0.00000000000E+00 -0.00000000000E+00 -0.74505805969E-08  0.93827000000E+00  0.93827000000E+00 0.  1.
     999902    2    1    2    0    0  0.12796161848E-01  0.17326192327E-01 -0.10267137296E-01  0.10200688850E+01  0.10197897712E+01 0.  0.
     999903    2    3    3    0    0  0.62161601572E-01  0.11582354018E+00 -0.69620200014E-02  0.13319257012E+00  0.20313390749E-01 0.  0.
         14    1    1    2    0    0 -0.12796161848E-01 -0.17326192327E-01  0.10267137296E-01  0.23861114954E-01  0.00000000000E+00 0. -1.
     999901    1    3    3    0    0 -0.49365439725E-01 -0.98497347852E-01 -0.33051172948E-02  0.88687631492E+00  0.88000000000E+00 0.  1.
        -11    1    4    4    0    0  0.33239131922E-01  0.61725973151E-01  0.64274670261E-02  0.70402479401E-01  0.51100000000E-03 0. -1.
         11    1    4    4    0    0  0.28922469651E-01  0.54097567027E-01 -0.13389487028E-01  0.62790090722E-01  0.51100000000E-03 0.  1.
</event>
<event>
 8    1  0.1091347E+005  0.1043930E+01  0.7957747E-01            NaN
         13   -1    0    0    0    0  0.00000000000E+00  0.00000000000E+00  0.74505805969E-08  0.10566000000E+00  0.10566000000E+00 0.  1.
     999900   -1    0    0    0    0 -0.00000000000E+00 -0.00000000000E+00 -0.74505805969E-08  0.93827000000E+00  0.93827000000E+00 0. -1.
     999902    2    1    2    0    0  0.95508148070E-02  0.20973492995E-01 -0.36738954718E-02  0.10205932697E+01  0.10203264278E+01 0.  0.
     999903    2    3    3    0    0 -0.85248402754E-02 -0.38224961567E-01 -0.12305066714E+00  0.13037868889E+00  0.17980968955E-01 0.  0.
         14    1    1    2    0    0 -0.95508148070E-02 -0.20973492995E-01  0.36738954718E-02  0.23336730273E-01  0.00000000000E+00 0. -1.
     999901    1    3    3    0    0  0.18075655082E-01  0.59198454561E-01  0.11937677166E+00  0.89021458084E+00  0.88000000000E+00 0.  1.
        -11    1    4    4    0    0 -0.58683055447E-02 -0.26579470903E-01 -0.55957902125E-01  0.62229038356E-01  0.51100000000E-03 0.  1.
         11    1    4    4    0    0 -0.26565347307E-02 -0.11645490663E-01 -0.67092765011E-01  0.68149650531E-01  0.51100000000E-03 0. -1.
</event>
<event>
 8    1  0.1091347E+005  0.1043930E+01  0.7957747E-01            NaN
         13   -1    0    0    0    0  0.00000000000E+00  0.00000000000E+00  0.74505805969E-08  0.10566000000E+00  0.10566000000E+00 0. -1.
     999900   -1    0    0    0    0 -0.00000000000E+00 -0.00000000000E+00 -0.74505805969E-08  0.93827000000E+00  0.93827000000E+00 0.  1.
     999902    2    1    2    0    0 -0.10665126952E-01  0.19658217812E-01  0.18263545311E-02  0.10214906143E+01  0.10212441182E+01 0.  0.
     999903    2    3    3    0    0  0.51068064559E-01  0.26930081048E-01 -0.11627915808E+00  0.13142725753E+00  0.20472052503E-01 0.  0.
         14    1    1    2    0    0  0.10665126952E-01 -0.19658217812E-01 -0.18263545311E-02  0.22439385716E-01  0.00000000000E+00 0.  1.
     999901    1    3    3    0    0 -0.61733191511E-01 -0.72718632360E-02  0.11810551262E+00  0.89006335676E+00  0.88000000000E+00 0. -1.
        -11    1    4    4    0    0  0.54904599470E-02  0.81603796059E-02 -0.35084707086E-01  0.36440838877E-01  0.51100000000E-03 0.  1.
         11    1    4    4    0    0  0.45577604612E-01  0.18769701442E-01 -0.81194450998E-01  0.94986418651E-01  0.51100000000E-03 0. -1.
</event>
<event>
 8    1  0.1091347E+005  0.1043930E+01  0.7957747E-01            NaN
         13   -1    0    0    0    0  0.00000000000E+00  0.00000000000E+00  0.74505805969E-08  0.10566000000E+00  0.10566000000E+00 0. -1.
     999900   -1    0    0    0    0 -0.00000000000E+00 -0.00000000000E+00 -0.74505805969E-08  0.93827000000E+00  0.93827000000E+00 0.  1.
     999902    2    1    2    0    0  0.58038613452E-02 -0.21964468308E-02 -0.22908861081E-01  0.10201955293E+01  0.10199194051E+01 0.  0.
     999903    2    3    3    0    0 -0.30958632052E-01  0.11334894027E+00 -0.54872122728E-01  0.13130640935E+00  0.20591360460E-01 0.  0.
         14    1    1    2    0    0 -0.58038613452E-02  0.21964468308E-02  0.22908861081E-01  0.23734470738E-01  0.00000000000E+00 0. -1.
     999901    1    3    3    0    0  0.36762493397E-01 -0.11554538710E+00  0.31963261647E-01  0.88888911991E+00  0.88000000000E+00 0. -1.
        -11    1    4    4    0    0  0.25911241165E-02  0.15088880895E-01 -0.49559460016E-02  0.16100023994E-01  0.51100000000E-03 0.  1.
         11    1    4    4    0    0 -0.33549756169E-01  0.98260059373E-01 -0.49916176727E-01  0.11520638536E+00  0.51100000000E-03 0. -1.
</event>
<event>
 8    1  0.1091347E+005  0.1043930E+01  0.7957747E-01            NaN
         13   -1    0    0    0    0  0.00000000000E+00  0.00000000000E+00  0.74505805969E-08  0.10566000000E+00  0.10566000000E+00 0.  1.
     999900   -1    0    0    0    0 -0.00000000000E+00 -0.00000000000E+00 -0.74505805969E-08  0.93827000000E+00  0.93827000000E+00 0.  1.
     999902    2    1    2    0    0 -0.21537238491E-01  0.40347789136E-03  0.99395765847E-02  0.10202063700E+01  0.10199305010E+01 0.  0.
     999903    2    3    3    0    0  0.32830574192E-02 -0.42840122840E-01  0.12274979561E+00  0.13160510872E+00  0.20157820500E-01 0.  0.
         14    1    1    2    0    0  0.21537238491E-01 -0.40347789136E-03 -0.99395765847E-02  0.23723629969E-01  0.00000000000E+00 0. -1.
     999901    1    3    3    0    0 -0.24820295911E-01  0.43243600732E-01 -0.11281021902E+00  0.88860126131E+00  0.88000000000E+00 0.  1.
        -11    1    4    4    0    0  0.77934128674E-02 -0.62381660969E-02  0.35492102935E-01  0.36872787963E-01  0.51100000000E-03 0.  1.
         11    1    4    4    0    0 -0.45103554482E-02 -0.36601956743E-01  0.87257692673E-01  0.94732320754E-01  0.51100000000E-03 0. -1.
</event>
<event>
 8    1  0.1091347E+005  0.1043930E+01  0.7957747E-01            NaN
         13   -1    0    0    0    0  0.00000000000E+00  0.00000000000E+00  0.74505805969E-08  0.10566000000E+00  0.10566000000E+00 0. -1.
     999900   -1    0    0    0    0 -0.00000000000E+00 -0.00000000000E+00 -0.74505805969E-08  0.93827000000E+00  0.93827000000E+00 0. -1.
     999902    2    1    2    0    0  0.22343072372E-01 -0.64401408780E-02 -0.77931199755E-02  0.10194061133E+01  0.10191110847E+01 0.  0.
     999903    2    3    3    0    0 -0.22524893763E-01  0.73165079028E-01 -0.10254148210E+00  0.12961547643E+00  0.20613504070E-01 0.  0.
         14    1    1    2    0    0 -0.22343072372E-01  0.64401408780E-02  0.77931199755E-02  0.24523886652E-01  0.00000000000E+00 0.  1.
     999901    1    3    3    0    0  0.44867966135E-01 -0.79605219906E-01  0.94748362128E-01  0.88979063692E+00  0.88000000000E+00 0.  1.
        -11    1    4    4    0    0 -0.18990562263E-01  0.40538059797E-01 -0.45673969297E-01  0.63955831161E-01  0.51100000000E-03 0. -1.
         11    1    4    4    0    0 -0.35343315003E-02  0.32627019230E-01 -0.56867512807E-01  0.65659645269E-01  0.51100000000E-03 0.  1.
</event>
<event>
 8    1  0.1091347E+005  0.1043930E+01  0.7957747E-01            NaN
         13   -1    0    0    0    0  0.00000000000E+00  0.00000000000E+00  0.74505805969E-08  0.10566000000E+00  0.10566000000E+00 0.  1.
     999900   -1    0    0    0    0 -0.00000000000E+00 -0.00000000000E+00 -0.74505805969E-08  0.93827000000E+00  0.93827000000E+00 0.  1.
     999902    2    1    2    0    0  0.92483860600E-02 -0.15859995897E-01 -0.15333656452E-01  0.10200094412E+01  0.10197289184E+01 0.  0.
     999903    2    3    3    0    0 -0.12624291597E+00  0.42929143878E-02  0.21185794720E-01  0.12866343482E+00  0.12236773086E-01 0.  0.
         14    1    1    2    0    0 -0.92483860600E-02  0.15859995897E-01  0.15333656452E-01  0.23920558830E-01  0.00000000000E+00 0.  1.
     999901    1    3    3    0    0  0.13549130203E+00 -0.20152910285E-01 -0.36519451172E-01  0.89134600635E+00  0.88000000000E+00 0. -1.
        -11    1    4    4    0    0 -0.71655124086E-01  0.33457113502E-02  0.18071506111E-01  0.73976287054E-01  0.51100000000E-03 0.  1.
         11    1    4    4    0    0 -0.54587791884E-01  0.94720303760E-03  0.31142886094E-02  0.54687147767E-01  0.51100000000E-03 0. -1.
</event>
<event>
 8    1  0.1091347E+005  0.1043930E+01  0.7957747E-01            NaN
         13   -1    0    0    0    0  0.00000000000E+00  0.00000000000E+00  0.74505805969E-08  0.10566000000E+00  0.10566000000E+00 0. -1.
     999900   -1    0    0    0    0 -0.00000000000E+00 -0.00000000000E+00 -0.74505805969E-08  0.93827000000E+00  0.93827000000E+00 0.  1.
     999902    2    1    2    0    0 -0.59593592922E-02  0.15834129932E-01  0.56669073081E-02  0.10260877055E+01  0.10259325670E+01 0.  0.
     999903    2    3    3    0    0 -0.75410216567E-01 -0.98602740538E-01  0.48965837318E-01  0.13491206838E+00  0.19859802740E-01 0.  0.
         14    1    1    2    0    0  0.59593592922E-02 -0.15834129932E-01 -0.56669073081E-02  0.17842294480E-01  0.00000000000E+00 0. -1.
     999901    1    3    3    0    0  0.69450857275E-01  0.11443687047E+00 -0.43298930010E-01  0.89117563714E+00  0.88000000000E+00 0.  1.
        -11    1    4    4    0    0 -0.23845010521E-01 -0.29756439501E-01  0.25067290198E-01  0.45636174000E-01  0.51100000000E-03 0. -1.
         11    1    4    4    0    0 -0.51565206046E-01 -0.68846301037E-01  0.23898547120E-01  0.89275894375E-01  0.51100000000E-03 0.  1.
</event>
<event>
 8    1  0.1091347E+005  0.1043930E+01  0.7957747E-01            NaN
         13   -1    0    0    0    0  0.00000000000E+00  0.00000000000E+00  0.74505805969E-08  0.10566000000E+00  0.10566000000E+00 0.  1.
     999900   -1    0    0    0    0 -0.00000000000E+00 -0.00000000000E+00 -0.74505805969E-08  0.93827000000E+00  0.93827000000E+00 0.  1.
     999902    2    1    2    0    0 -0.12626440830E-01 -0.16076270324E-02 -0.22224794912E-01  0.10183184209E+01  0.10179962934E+01 0.  0.
     999903    2    3    3    0    0  0.25166817590E-01  0.12437612021E+00  0.18669514364E-02  0.12821693955E+00  0.18256782067E-01 0.  0.
         14    1    1    2    0    0  0.12626440830E-01  0.16076270324E-02  0.22224794912E-01  0.25611579053E-01  0.00000000000E+00 0.  1.
     999901    1    3    3    0    0 -0.37793258420E-01 -0.12598374725E+00 -0.24091746348E-01  0.89010148140E+00  0.88000000000E+00 0.  1.
        -11    1    4    4    0    0  0.20624947651E-01  0.56141162456E-01  0.13404177136E-02  0.59827054317E-01  0.51100000000E-03 0. -1.
         11    1    4    4    0    0  0.45418699388E-02  0.68234957758E-01  0.52653372275E-03  0.68389885228E-01  0.51100000000E-03 0.  1.
</event>
<event>
 8    1  0.1091347E+005  0.1043930E+01  0.7957747E-01            NaN
         13   -1    0    0    0    0  0.00000000000E+00  0.00000000000E+00  0.74505805969E-08  0.10566000000E+00  0.10566000000E+00 0.  1.
     999900   -1    0    0    0    0 -0.00000000000E+00 -0.00000000000E+00 -0.74505805969E-08  0.93827000000E+00  0.93827000000E+00 0.  1.
     999902    2    1    2    0    0  0.13323223804E-02  0.20635696837E-01 -0.73487569486E-02  0.10219843559E+01  0.10217487031E+01 0.  0.
     999903    2    3    3    0    0 -0.61627304081E-01 -0.87732684413E-01  0.70267434667E-01  0.12972212211E+00  0.19883864508E-01 0.  0.
         14    1    1    2    0    0 -0.13323223804E-02 -0.20635696837E-01  0.73487569486E-02  0.21945644114E-01  0.00000000000E+00 0.  1.
     999901    1    3    3    0    0  0.62959626462E-01  0.10836838125E+00 -0.77616191616E-01  0.89226223377E+00  0.88000000000E+00 0.  1.
        -11    1    4    4    0    0 -0.17282299272E-01 -0.40303757778E-01  0.32702307296E-01  0.54706240801E-01  0.51100000000E-03 0.  1.
         11    1    4    4    0    0 -0.44345004810E-01 -0.47428926635E-01  0.37565127371E-01  0.75015881310E-01  0.51100000000E-03 0. -1.
</event>
<event>
 8    1  0.1091347E+005  0.1043930E+01  0.7957747E-01            NaN
         13   -1    0    0    0    0  0.00000000000E+00  0.00000000000E+00  0.74505805969E-08  0.10566000000E+00  0.10566000000E+00 0. -1.
     999900   -1    0    0    0    0 -0.00000000000E+00 -0.00000000000E+00 -0.74505805969E-08  0.93827000000E+00  0.93827000000E+00 0. -1.
     999902    2    1    2    0    0  0.21742200335E-01 -0.93192409742E-02  0.18316045873E-02  0.10202039320E+01  0.10199280056E+01 0.  0.
     999903    2    3    3    0    0 -0.39677644222E-01 -0.29703945285E-01  0.11872792485E+00  0.13011815907E+00  0.19436444216E-01 0.  0.
         14    1    1    2    0    0 -0.21742200335E-01  0.93192409742E-02 -0.18316045873E-02  0.23726068008E-01  0.00000000000E+00 0.  1.
     999901    1    3    3    0    0  0.61419844557E-01  0.20384704311E-01 -0.11689632026E+00  0.89008577293E+00  0.88000000000E+00 0. -1.
        -11    1    4    4    0    0 -0.13645012505E-02  0.30621000629E-03  0.19902671941E-01  0.19958283985E-01  0.51100000000E-03 0. -1.
         11    1    4    4    0    0 -0.38313142971E-01 -0.30010155292E-01  0.98825252906E-01  0.11015987508E+00  0.51100000000E-03 0.  1.
</event>
<event>
 8    1  0.1091347E+005  0.1043930E+01  0.7957747E-01            NaN
         13   -1    0    0    0    0  0.00000000000E+00  0.00000000000E+00  0.74505805969E-08  0.10566000000E+00  0.10566000000E+00 0.  1.
     999900   -1    0    0    0    0 -0.00000000000E+00 -0.00000000000E+00 -0.74505805969E-08  0.93827000000E+00  0.93827000000E+00 0. -1.
     999902    2    1    2    0    0  0.20559070563E-01 -0.69634639533E-02  0.75070116496E-02  0.10209621869E+01  0.10207038095E+01 0.  0.
     999903    2    3    3    0    0  0.12768000834E+00 -0.31474973399E-01  0.16820409473E-01  0.13407862706E+00  0.20032313388E-01 0.  0.
         14    1    1    2    0    0 -0.20559070563E-01  0.69634639533E-02 -0.75070116496E-02  0.22967813056E-01  0.00000000000E+00 0.  1.
     999901    1    3    3    0    0 -0.10712093778E+00  0.24511509446E-01 -0.93133978236E-02  0.88688355988E+00  0.88000000000E+00 0.  1.
        -11    1    4    4    0    0  0.58844441832E-01 -0.15975878143E-01  0.17764066864E-01  0.63511575398E-01  0.51100000000E-03 0.  1.
         11    1    4    4    0    0  0.68835566511E-01 -0.15499095257E-01 -0.94365739066E-03  0.70567051667E-01  0.51100000000E-03 0. -1.
</event>
<event>
 8    1  0.1091347E+005  0.1043930E+01  0.7957747E-01            NaN
         13   -1    0    0    0    0  0.00000000000E+00  0.00000000000E+00  0.74505805969E-08  0.10566000000E+00  0.10566000000E+00 0.  1.
     999900   -1    0    0    0    0 -0.00000000000E+00 -0.00000000000E+00 -0.74505805969E-08  0.93827000000E+00  0.93827000000E+00 0.  1.
     999902    2    1    2    0    0  0.20373787687E-01  0.29880115319E-02  0.56242130018E-02  0.10225840119E+01  0.10223611936E+01 0.  0.
     999903    2    3    3    0    0 -0.36647480405E-02 -0.12985003614E+00  0.13905683498E-01  0.13225127582E+00  0.20556499219E-01 0.  0.
         14    1    1    2    0    0 -0.20373787687E-01 -0.29880115319E-02 -0.56242130018E-02  0.21345988137E-01  0.00000000000E+00 0.  1.
     999901    1    3    3    0    0  0.24038535728E-01  0.13283804767E+00 -0.82814704967E-02  0.89033273604E+00  0.88000000000E+00 0. -1.
        -11    1    4    4    0    0  0.67467511586E-02 -0.77416433461E-01  0.35142073209E-02  0.77790960883E-01  0.51100000000E-03 0.  1.
         11    1    4    4    0    0 -0.10411499199E-01 -0.52433602678E-01  0.10391476178E-01  0.54460314941E-01  0.51100000000E-03 0. -1.
</event>
<event>
 8    1  0.1091347E+005  0.1043930E+01  0.7957747E-01            NaN
         13   -1    0    0    0    0  0.00000000000E+00  0.00000000000E+00  0.74505805969E-08  0.10566000000E+00  0.10566000000E+00 0.  1.
     999900   -1    0    0    0    0 -0.00000000000E+00 -0.00000000000E+00 -0.74505805969E-08  0.93827000000E+00  0.93827000000E+00 0. -1.
     999902    2    1    2    0    0 -0.81496545124E-02 -0.16434827003E-01  0.13220438744E-01  0.10213180472E+01  0.10210677026E+01 0.  0.
     999903    2    3    3    0    0 -0.66685042757E-01 -0.11299531750E+00  0.18648933469E-01  0.13408651682E+00  0.20410158480E-01 0.  0.
         14    1    1    2    0    0  0.81496545124E-02  0.16434827003E-01 -0.13220438744E-01  0.22611952765E-01  0.00000000000E+00 0.  1.
     999901    1    3    3    0    0  0.58535388245E-01  0.96560490499E-01 -0.54284947253E-02  0.88723153041E+00  0.88000000000E+00 0.  1.
        -11    1    4    4    0    0 -0.65623396526E-02 -0.12038343799E-01  0.85104506996E-02  0.16145430166E-01  0.51100000000E-03 0.  1.
         11    1    4    4    0    0 -0.60122703105E-01 -0.10095697370E+00  0.10138482770E-01  0.11794108666E+00  0.51100000000E-03 0. -1.
</event>
<event>
 8    1  0.1091347E+005  0.1043930E+01  0.7957747E-01            NaN
         13   -1    0    0    0    0  0.00000000000E+00  0.00000000000E+00  0.74505805969E-08  0.10566000000E+00  0.10566000000E+00 0.  1.
     999900   -1    0    0    0    0 -0.00000000000E+00 -0.00000000000E+00 -0.74505805969E-08  0.93827000000E+00  0.93827000000E+00 0.  1.
     999902    2    1    2    0    0 -0.12321512411E-01 -0.20265570634E-01  0.33322369087E-02  0.10199797010E+01  0.10196984719E+01 0.  0.
     999903    2    3    3    0    0 -0.15811674127E-01 -0.12057069541E+00  0.50025873072E-01  0.13304475693E+00  0.20273572462E-01 0.  0.
         14    1    1    2    0    0  0.12321512411E-01  0.20265570634E-01 -0.33322369087E-02  0.23950299038E-01  0.00000000000E+00 0. -1.
     999901    1    3    3    0    0  0.34901617163E-02  0.10030512477E+00 -0.46693636164E-01  0.88693494403E+00  0.88000000000E+00 0. -1.
        -11    1    4    4    0    0 -0.11549034563E-01 -0.47318618305E-01  0.11009639333E-01  0.49939013976E-01  0.51100000000E-03 0.  1.
         11    1    4    4    0    0 -0.42626395648E-02 -0.73252077103E-01  0.39016233740E-01  0.83105742955E-01  0.51100000000E-03 0. -1.
</event>
<event>
 8    1  0.1091347E+005  0.1043930E+01  0.7957747E-01            NaN
         13   -1    0    0    0    0  0.00000000000E+00  0.00000000000E+00  0.74505805969E-08  0.10566000000E+00  0.10566000000E+00 0. -1.
     999900   -1    0    0    0    0 -0.00000000000E+00 -0.00000000000E+00 -0.74505805969E-08  0.93827000000E+00  0.93827000000E+00 0.  1.
     999902    2    1    2    0    0  0.22142827221E-01 -0.17410745781E-02  0.81883811168E-02  0.10202575324E+01  0.10199828659E+01 0.  0.
     999903    2    3    3    0    0 -0.12470991700E+00  0.11002678544E-02 -0.18437396604E-01  0.12768667595E+00  0.20252793214E-01 0.  0.
         14    1    1    2    0    0 -0.22142827221E-01  0.17410745781E-02 -0.81883811168E-02  0.23672467623E-01  0.00000000000E+00 0. -1.
     999901    1    3    3    0    0  0.14685274422E+00 -0.28413424325E-02  0.26625777721E-01  0.89257085643E+00  0.88000000000E+00 0. -1.
        -11    1    4    4    0    0 -0.65804763968E-01  0.64073660519E-02 -0.13883213148E-02  0.66132517400E-01  0.51100000000E-03 0.  1.
         11    1    4    4    0    0 -0.58905153032E-01 -0.53070981976E-02 -0.17049075290E-01  0.61554158546E-01  0.51100000000E-03 0. -1.
</event>
<event>
 8    1  0.1091347E+005  0.1043930E+01  0.7957747E-01            NaN
         13   -1    0    0    0    0  0.00000000000E+00  0.00000000000E+00  0.74505805969E-08  0.10566000000E+00  0.10566000000E+00 0. -1.
     999900   -1    0    0    0    0 -0.00000000000E+00 -0.00000000000E+00 -0.74505805969E-08  0.93827000000E+00  0.93827000000E+00 0. -1.
     999902    2    1    2    0    0  0.16643139198E-01 -0.15464939617E-01  0.63600502072E-02  0.10203374444E+01  0.10200646508E+01 0.  0.
     999903    2    3    3    0    0 -0.88994315051E-01  0.37291342865E-02 -0.90301372614E-01  0.12855769871E+00  0.20948733800E-01 0.  0.
         14    1    1    2    0    0 -0.16643139198E-01  0.15464939617E-01 -0.63600502072E-02  0.23592555571E-01  0.00000000000E+00 0.  1.
     999901    1    3    3    0    0  0.10563745425E+00 -0.19194073903E-01  0.96661422821E-01  0.89177974572E+00  0.88000000000E+00 0.  1.
        -11    1    4    4    0    0 -0.71318865195E-01  0.87410474810E-02 -0.62514628046E-01  0.95242460513E-01  0.51100000000E-03 0.  1.
         11    1    4    4    0    0 -0.17675449855E-01 -0.50119131945E-02 -0.27786744568E-01  0.33315238197E-01  0.51100000000E-03 0. -1.
</event>
<event>
 8    1  0.1091347E+005  0.1043930E+01  0.7957747E-01            NaN
         13   -1    0    0    0    0  0.00000000000E+00  0.00000000000E+00  0.74505805969E-08  0.10566000000E+00  0.10566000000E+00 0. -1.
     999900   -1    0    0    0    0 -0.00000000000E+00 -0.00000000000E+00 -0.74505805969E-08  0.93827000000E+00  0.93827000000E+00 0. -1.
     999902    2    1    2    0    0  0.88717950926E-02  0.11742134206E-01 -0.19352278852E-01  0.10196175102E+01  0.10193276068E+01 0.  0.
     999903    2    3    3    0    0  0.71347478337E-01 -0.68181289000E-01 -0.84473227228E-01  0.13139923607E+00  0.19770743175E-01 0.  0.
         14    1    1    2    0    0 -0.88717950926E-02 -0.11742134206E-01  0.19352278852E-01  0.24312489808E-01  0.00000000000E+00 0. -1.
     999901    1    3    3    0    0 -0.62475683244E-01  0.79923423207E-01  0.65120948376E-01  0.88821827413E+00  0.88000000000E+00 0.  1.
        -11    1    4    4    0    0  0.59285047676E-03 -0.26512647640E-02 -0.75450435757E-02  0.80355136796E-02  0.51100000000E-03 0. -1.
         11    1    4    4    0    0  0.70754627860E-01 -0.65530024237E-01 -0.76928183652E-01  0.12336372239E+00  0.51100000000E-03 0.  1.
</event>
<event>
 8    1  0.1091347E+005  0.1043930E+01  0.7957747E-01            NaN
         13   -1    0    0    0    0  0.00000000000E+00  0.00000000000E+00  0.74505805969E-08  0.10566000000E+00  0.10566000000E+00 0. -1.
     999900   -1    0    0    0    0 -0.00000000000E+00 -0.00000000000E+00 -0.74505805969E-08  0.93827000000E+00  0.93827000000E+00 0. -1.
     999902    2    1    2    0    0  0.91795109507E-03 -0.12731381841E-01  0.18817231251E-01  0.10211919502E+01  0.10209387740E+01 0.  0.
     999903    2    3    3    0    0 -0.30282489685E-01  0.12462398187E+00 -0.38595589577E-02  0.12970207348E+00  0.18962215852E-01 0.  0.
         14    1    1    2    0    0 -0.91795109507E-03  0.12731381841E-01 -0.18817231251E-01  0.22738049823E-01  0.00000000000E+00 0.  1.
     999901    1    3    3    0    0  0.31200440780E-01 -0.13735536371E+00  0.22676790209E-01  0.89148987670E+00  0.88000000000E+00 0.  1.
        -11    1    4    4    0    0 -0.13225180856E-01  0.72844592774E-01 -0.10508319211E-01  0.74779181586E-01  0.51100000000E-03 0. -1.
         11    1    4    4    0    0 -0.17057308829E-01  0.51779389097E-01  0.66487602531E-02  0.54922891890E-01  0.51100000000E-03 0.  1.
</event>
<event>
 8    1  0.1091347E+005  0.1043930E+01  0.7957747E-01            NaN
         13   -1    0    0    0    0  0.00000000000E+00  0.00000000000E+00  0.74505805969E-08  0.10566000000E+00  0.10566000000E+00 0.  1.
     999900   -1    0    0    0    0 -0.00000000000E+00 -0.00000000000E+00 -0.74505805969E-08  0.93827000000E+00  0.93827000000E+00 0. -1.
     999902    2    1    2    0    0 -0.18856224004E-01  0.13880851657E-01  0.44699058925E-03  0.10205113103E+01  0.10202425689E+01 0.  0.
     999903    2    3    3    0    0  0.83036734888E-01 -0.58844618653E-01 -0.75744080273E-01  0.12839234493E+00  0.19739302295E-01 0.  0.
         14    1    1    2    0    0  0.18856224004E-01 -0.13880851657E-01 -0.44699058925E-03  0.23418689694E-01  0.00000000000E+00 0. -1.
     999901    1    3    3    0    0 -0.10189295889E+00  0.72725470309E-01  0.76191070862E-01  0.89211896538E+00  0.88000000000E+00 0.  1.
        -11    1    4    4    0    0  0.35263510545E-01 -0.19911318103E-01 -0.19477247280E-01  0.44939960471E-01  0.51100000000E-03 0.  1.
         11    1    4    4    0    0  0.47773224343E-01 -0.38933300550E-01 -0.56266832994E-01  0.83452384459E-01  0.51100000000E-03 0. -1.
</event>
<event>
 8    1  0.1091347E+005  0.1043930E+01  0.7957747E-01            NaN
         13   -1    0    0    0    0  0.00000000000E+00  0.00000000000E+00  0.74505805969E-08  0.10566000000E+00  0.10566000000E+00 0.  1.
     999900   -1    0    0    0    0 -0.00000000000E+00 -0.00000000000E+00 -0.74505805969E-08  0.93827000000E+00  0.93827000000E+00 0. -1.
     999902    2    1    2    0    0 -0.13339383329E-01 -0.92254002844E-02  0.17577753867E-01  0.10200129645E+01  0.10197325253E+01 0.  0.
     999903    2    3    3    0    0 -0.67183567594E-01 -0.39135830141E-01  0.10642300454E+00  0.13339731574E+00  0.20585018678E-01 0.  0.
         14    1    1    2    0    0  0.13339383329E-01  0.92254002844E-02 -0.17577753867E-01  0.23917035540E-01  0.00000000000E+00 0. -1.
     999901    1    3    3    0    0  0.53844184266E-01  0.29910429856E-01 -0.88845250677E-01  0.88661564872E+00  0.88000000000E+00 0. -1.
        -11    1    4    4    0    0 -0.38685758936E-01 -0.13283718313E-01  0.65501775798E-01  0.77225571350E-01  0.51100000000E-03 0.  1.
         11    1    4    4    0    0 -0.28497808658E-01 -0.25852111828E-01  0.40921228747E-01  0.56171744387E-01  0.51100000000E-03 0. -1.
</event>
<event>
 8    1  0.1091347E+005  0.1043930E+01  0.7957747E-01            NaN
         13   -1    0    0    0    0  0.00000000000E+00  0.00000000000E+00  0.74505805969E-08  0.10566000000E+00  0.10566000000E+00 0. -1.
     999900   -1    0    0    0    0 -0.00000000000E+00 -0.00000000000E+00 -0.74505805969E-08  0.93827000000E+00  0.93827000000E+00 0. -1.
     999902    2    1    2    0    0  0.22944282670E-01  0.58682634224E-02 -0.30502060584E-02  0.10200515499E+01  0.10197720255E+01 0.  0.
     999903    2    3    3    0    0 -0.22734167633E-01  0.93296747833E-03  0.12574377344E+00  0.12949062153E+00  0.20943058456E-01 0.  0.
         14    1    1    2    0    0 -0.22944282670E-01 -0.58682634224E-02  0.30502060584E-02  0.23878450114E-01  0.00000000000E+00 0.  1.
     999901    1    3    3    0    0  0.45678450303E-01  0.49352959441E-02 -0.12879397950E+00  0.89056092836E+00  0.88000000000E+00 0. -1.
        -11    1    4    4    0    0 -0.23757770248E-01  0.61951529649E-02  0.87914077348E-01  0.91279557866E-01  0.51100000000E-03 0.  1.
         11    1    4    4    0    0  0.10236026147E-02 -0.52621854866E-02  0.37829696094E-01  0.38211063659E-01  0.51100000000E-03 0. -1.
</event>
<event>
 8    1  0.1091347E+005  0.1043930E+01  0.7957747E-01            NaN
         13   -1    0    0    0    0  0.00000000000E+00  0.00000000000E+00  0.74505805969E-08  0.10566000000E+00  0.10566000000E+00 0.  1.
     999900   -1    0    0    0    0 -0.00000000000E+00 -0.00000000000E+00 -0.74505805969E-08  0.93827000000E+00  0.93827000000E+00 0.  1.
     999902    2    1    2    0    0 -0.13227354253E-01  0.12087026228E-01  0.14427191372E-01  0.10209255884E+01  0.10206663774E+01 0.  0.
     999903    2    3    3    0    0  0.10137360596E+00  0.43086696670E-01 -0.64982482010E-01  0.12940988134E+00  0.19776830015E-01 0.  0.
         14    1    1    2    0    0  0.13227354253E-01 -0.12087026228E-01 -0.14427191372E-01  0.23004411630E-01  0.00000000000E+00 0. -1.
     999901    1    3    3    0    0 -0.11460096021E+00 -0.30999670442E-01  0.79409673381E-01  0.89151570703E+00  0.88000000000E+00 0. -1.
        -11    1    4    4    0    0  0.10139262886E-01  0.15631183685E-03 -0.11252807731E-01  0.15156381101E-01  0.51100000000E-03 0.  1.
         11    1    4    4    0    0  0.91234343075E-01  0.42930384833E-01 -0.53729674279E-01  0.11425350024E+00  0.51100000000E-03 0. -1.
</event>
<event>
 7    1  0.1091347E+005  0.1043930E+01  0.7957747E-01            NaN
         13   -1    0    0    0    0  0.00000000000E+00  0.00000000000E+00  0.74505805969E-08  0.10566000000E+00  0.10566000000E+00 0.  1.
     999900   -1    0    0    0    0 -0.00000000000E+00 -0.00000000000E+00 -0.74505805969E-08  0.93827000000E+00  0.93827000000E+00 0. -1.
     999902    2    1    2    0    0  0.71374376442E-02  0.21900386401E-01 -0.52266705829E-02  0.10203103466E+01  0.10200369186E+01 0.  0.
         14    1    1    2    0    0 -0.71374376442E-02 -0.21900386401E-01  0.52266705829E-02  0.23619653385E-01  0.00000000000E+00 0.  1.
     999901    1    3    3    0    0  0.59754151470E-02 -0.10316321388E+00 -0.35268301278E-01  0.88674810818E+00  0.88000000000E+00 0.  1.
        -11    1    3    3    0    0  0.31062313718E-02  0.45759050342E-01 -0.63114805721E-02  0.46299408955E-01  0.51100000000E-03 0. -1.
         11    1    3    3    0    0 -0.19442088745E-02  0.79304549939E-01  0.36353111267E-01  0.87262829481E-01  0.51100000000E-03 0.  1.
</event>
<event>
 8    1  0.1091347E+005  0.1043930E+01  0.7957747E-01            NaN
         13   -1    0    0    0    0  0.00000000000E+00  0.00000000000E+00  0.74505805969E-08  0.10566000000E+00  0.10566000000E+00 0. -1.
     999900   -1    0    0    0    0 -0.00000000000E+00 -0.00000000000E+00 -0.74505805969E-08  0.93827000000E+00  0.93827000000E+00 0.  1.
     999902    2    1    2    0    0 -0.15703893640E-02  0.75622189597E-02  0.22660175665E-01  0.10199897235E+01  0.10197087325E+01 0.  0.
     999903    2    3    3    0    0 -0.36610759343E-01  0.10637597733E+00  0.67329520976E-01  0.13264123682E+00  0.20105647430E-01 0.  0.
         14    1    1    2    0    0  0.15703893640E-02 -0.75622189597E-02 -0.22660175665E-01  0.23940276513E-01  0.00000000000E+00 0.  1.
     999901    1    3    3    0    0  0.35040369979E-01 -0.98813758372E-01 -0.44669345311E-01  0.88734848666E+00  0.88000000000E+00 0.  1.
        -11    1    4    4    0    0 -0.15919406309E-01  0.31050461177E-01  0.11955545442E-01  0.36888410434E-01  0.51100000000E-03 0.  1.
         11    1    4    4    0    0 -0.20691353034E-01  0.75325516155E-01  0.55373975534E-01  0.95752826390E-01  0.51100000000E-03 0. -1.
</event>
<event>
 8    1  0.1643618E+005  0.1043930E+01  0.7957747E-01            NaN
         13   -1    0    0    0    0  0.00000000000E+00  0.00000000000E+00  0.74505805969E-08  0.10566000000E+00  0.10566000000E+00 0.  1.
     999900   -1    0    0    0    0 -0.00000000000E+00 -0.00000000000E+00 -0.74505805969E-08  0.93827000000E+00  0.93827000000E+00 0. -1.
     999902    2    1    2    0    0 -0.17798173567E-01  0.76323921292E-02  0.13266293403E-01  0.10204561223E+01  0.10201860981E+01 0.  0.
     999903    2    3    3    0    0 -0.70697186655E-01 -0.58045143411E-01 -0.90675160440E-01  0.13033496761E+00  0.19947134805E-01 0.  0.
         14    1    1    2    0    0  0.17798173567E-01 -0.76323921292E-02 -0.13266293403E-01  0.23473877664E-01  0.00000000000E+00 0. -1.
     999901    1    3    3    0    0  0.52899013089E-01  0.65677535540E-01  0.10394145384E+00  0.89012115472E+00  0.88000000000E+00 0.  1.
        -11    1    4    4    0    0 -0.53749058411E-01 -0.32045270052E-01 -0.61150304604E-01  0.87495608386E-01  0.51100000000E-03 0. -1.
         11    1    4    4    0    0 -0.16948128244E-01 -0.25999873359E-01 -0.29524855837E-01  0.42839359226E-01  0.51100000000E-03 0.  1.
</event>
<event>
 8    1  0.1091347E+005  0.1043930E+01  0.7957747E-01            NaN
         13   -1    0    0    0    0  0.00000000000E+00  0.00000000000E+00  0.74505805969E-08  0.10566000000E+00  0.10566000000E+00 0.  1.
     999900   -1    0    0    0    0 -0.00000000000E+00 -0.00000000000E+00 -0.74505805969E-08  0.93827000000E+00  0.93827000000E+00 0. -1.
     999902    2    1    2    0    0  0.13579583211E-01  0.75849648292E-02 -0.17790392320E-01  0.10202987742E+01  0.10200250751E+01 0.  0.
     999903    2    3    3    0    0  0.15287059815E-01 -0.35544667773E-01  0.12077471161E+00  0.12841124282E+00  0.20144446222E-01 0.  0.
         14    1    1    2    0    0 -0.13579583211E-01 -0.75849648292E-02  0.17790392320E-01  0.23631225752E-01  0.00000000000E+00 0.  1.
     999901    1    3    3    0    0 -0.17074766044E-02  0.43129632602E-01 -0.13856510393E+00  0.89188753143E+00  0.88000000000E+00 0. -1.
        -11    1    4    4    0    0  0.64884839587E-02 -0.24570711861E-01  0.48273999197E-01  0.54556946624E-01  0.51100000000E-03 0.  1.
         11    1    4    4    0    0  0.87985758565E-02 -0.10973955912E-01  0.72500712414E-01  0.73854296198E-01  0.51100000000E-03 0. -1.
</event>
<event>
 8    1  0.1091347E+005  0.1043930E+01  0.7957747E-01            NaN
         13   -1    0    0    0    0  0.00000000000E+00  0.00000000000E+00  0.74505805969E-08  0.10566000000E+00  0.10566000000E+00 0. -1.
     999900   -1    0    0    0    0 -0.00000000000E+00 -0.00000000000E+00 -0.74505805969E-08  0.93827000000E+00  0.93827000000E+00 0.  1.
     999902    2    1    2    0    0 -0.25653347427E-01 -0.17503969375E-01  0.47207845211E-02  0.10125171207E+01  0.10120297183E+01 0.  0.
     999903    2    3    3    0    0 -0.47440504097E-01  0.10339344867E+00 -0.41735107214E-01  0.12277051872E+00  0.19747770413E-01 0.  0.
         14    1    1    2    0    0  0.25653347427E-01  0.17503969375E-01 -0.47207845211E-02  0.31412879279E-01  0.00000000000E+00 0.  1.
     999901    1    3    3    0    0  0.21787156670E-01 -0.12089741805E+00  0.46455891735E-01  0.88974660200E+00  0.88000000000E+00 0. -1.
        -11    1    4    4    0    0 -0.35910652529E-01  0.60403605267E-01 -0.31947592065E-01  0.77195079209E-01  0.51100000000E-03 0. -1.
         11    1    4    4    0    0 -0.11529851568E-01  0.42989843406E-01 -0.97875151487E-02  0.45575439516E-01  0.51100000000E-03 0.  1.
</event>
<event>
 8    1  0.1091347E+005  0.1043930E+01  0.7957747E-01            NaN
         13   -1    0    0    0    0  0.00000000000E+00  0.00000000000E+00  0.74505805969E-08  0.10566000000E+00  0.10566000000E+00 0. -1.
     999900   -1    0    0    0    0 -0.00000000000E+00 -0.00000000000E+00 -0.74505805969E-08  0.93827000000E+00  0.93827000000E+00 0. -1.
     999902    2    1    2    0    0  0.36208542567E-02 -0.23245583952E-01 -0.48229160683E-02  0.10199148323E+01  0.10196320596E+01 0.  0.
     999903    2    3    3    0    0  0.10455126390E+00  0.49893654486E-01 -0.54635935532E-01  0.12973640488E+00  0.20642329298E-01 0.  0.
         14    1    1    2    0    0 -0.36208542567E-02  0.23245583952E-01  0.48229160683E-02  0.24015167670E-01  0.00000000000E+00 0.  1.
     999901    1    3    3    0    0 -0.10093040964E+00 -0.73139238438E-01  0.49813019463E-01  0.89017842745E+00  0.88000000000E+00 0. -1.
        -11    1    4    4    0    0  0.65589359963E-01  0.24554268433E-01 -0.23852560265E-01  0.73987039344E-01  0.51100000000E-03 0.  1.
         11    1    4    4    0    0  0.38961903936E-01  0.25339386053E-01 -0.30783375267E-01  0.55749365536E-01  0.51100000000E-03 0. -1.
</event>
<event>
 8    1  0.1091347E+005  0.1043930E+01  0.7957747E-01            NaN
         13   -1    0    0    0    0  0.00000000000E+00  0.00000000000E+00  0.74505805969E-08  0.10566000000E+00  0.10566000000E+00 0.  1.
     999900   -1    0    0    0    0 -0.00000000000E+00 -0.00000000000E+00 -0.74505805969E-08  0.93827000000E+00  0.93827000000E+00 0.  1.
     999902    2    1    2    0    0 -0.50109883385E-02  0.15167948380E-01  0.11965595502E-01  0.10239712391E+01  0.10237767072E+01 0.  0.
     999903    2    3    3    0    0 -0.55443181826E-03  0.66335007573E-02  0.13381971695E+00  0.13552252102E+00  0.20355007511E-01 0.  0.
         14    1    1    2    0    0  0.50109883385E-02 -0.15167948380E-01 -0.11965595502E-01  0.19958760931E-01  0.00000000000E+00 0. -1.
     999901    1    3    3    0    0 -0.44565565202E-02  0.85344476229E-02 -0.12185412145E+00  0.88844871805E+00  0.88000000000E+00 0.  1.
        -11    1    4    4    0    0 -0.67086776917E-02 -0.43801834225E-02  0.35570939482E-01  0.36465671800E-01  0.51100000000E-03 0.  1.
         11    1    4    4    0    0  0.61542458735E-02  0.11013684180E-01  0.98248777471E-01  0.99056849218E-01  0.51100000000E-03 0. -1.
</event>
<event>
 8    1  0.1091347E+005  0.1043930E+01  0.7957747E-01            NaN
         13   -1    0    0    0    0  0.00000000000E+00  0.00000000000E+00  0.74505805969E-08  0.10566000000E+00  0.10566000000E+00 0.  1.
     999900   -1    0    0    0    0 -0.00000000000E+00 -0.00000000000E+00 -0.74505805969E-08  0.93827000000E+00  0.93827000000E+00 0.  1.
     999902    2    1    2    0    0  0.17481587469E-01  0.22344827147E-02  0.15155203427E-01  0.10206860975E+01  0.10204213985E+01 0.  0.
     999903    2    3    3    0    0  0.11904604325E+00 -0.44101027415E-01 -0.31303926192E-01  0.13241768709E+00  0.20920014947E-01 0.  0.
         14    1    1    2    0    0 -0.17481587469E-01 -0.22344827147E-02 -0.15155203427E-01  0.23243902519E-01  0.00000000000E+00 0. -1.
     999901    1    3    3    0    0 -0.10156445578E+00  0.46335510130E-01  0.46459129618E-01  0.88826841039E+00  0.88000000000E+00 0.  1.
        -11    1    4    4    0    0  0.28293512664E-01 -0.20304413642E-01 -0.93267179073E-02  0.36056079378E-01  0.51100000000E-03 0. -1.
         11    1    4    4    0    0  0.90752530589E-01 -0.23796613774E-01 -0.21977208284E-01  0.96361607709E-01  0.51100000000E-03 0.  1.
</event>
<event>
 8    1  0.1091347E+005  0.1043930E+01  0.7957747E-01            NaN
         13   -1    0    0    0    0  0.00000000000E+00  0.00000000000E+00  0.74505805969E-08  0.10566000000E+00  0.10566000000E+00 0. -1.
     999900   -1    0    0    0    0 -0.00000000000E+00 -0.00000000000E+00 -0.74505805969E-08  0.93827000000E+00  0.93827000000E+00 0. -1.
     999902    2    1    2    0    0  0.16321005830E-01 -0.15695574443E-01  0.76354188816E-02  0.10200338516E+01  0.10197539078E+01 0.  0.
     999903    2    3    3    0    0 -0.29808122916E-01  0.11426152163E+00  0.46574077582E-01  0.12844372013E+00  0.19606759571E-01 0.  0.
         14    1    1    2    0    0 -0.16321005830E-01  0.15695574443E-01 -0.76354188816E-02  0.23896148432E-01  0.00000000000E+00 0.  1.
     999901    1    3    3    0    0  0.46129128745E-01 -0.12995709607E+00 -0.38938658700E-01  0.89159013144E+00  0.88000000000E+00 0. -1.
        -11    1    4    4    0    0 -0.15764597149E-01  0.33238776733E-01  0.20814587504E-01  0.42271112783E-01  0.51100000000E-03 0.  1.
         11    1    4    4    0    0 -0.14043525767E-01  0.81022744898E-01  0.25759490078E-01  0.86172607346E-01  0.51100000000E-03 0. -1.
</event>
<event>
 8    1  0.1091347E+005  0.1043930E+01  0.7957747E-01            NaN
         13   -1    0    0    0    0  0.00000000000E+00  0.00000000000E+00  0.74505805969E-08  0.10566000000E+00  0.10566000000E+00 0. -1.
     999900   -1    0    0    0    0 -0.00000000000E+00 -0.00000000000E+00 -0.74505805969E-08  0.93827000000E+00  0.93827000000E+00 0.  1.
     999902    2    1    2    0    0 -0.17468078296E-01 -0.16045597652E-01 -0.53451268516E-03  0.10202048937E+01  0.10199289899E+01 0.  0.
     999903    2    3    3    0    0  0.23707053102E-01  0.12318746463E+00  0.17103011230E-01  0.12813296876E+00  0.19707076944E-01 0.  0.
         14    1    1    2    0    0  0.17468078296E-01  0.16045597652E-01  0.53451268516E-03  0.23725106263E-01  0.00000000000E+00 0. -1.
     999901    1    3    3    0    0 -0.41175131398E-01 -0.13923306228E+00 -0.17637523915E-01  0.89207192497E+00  0.88000000000E+00 0. -1.
        -11    1    4    4    0    0  0.25008317606E-01  0.10593513732E+00  0.19742114346E-01  0.11062405466E+00  0.51100000000E-03 0. -1.
         11    1    4    4    0    0 -0.13012645039E-02  0.17252327307E-01 -0.26391031159E-02  0.17508914103E-01  0.51100000000E-03 0.  1.
</event>
<event>
 8    1  0.1091347E+005  0.1043930E+01  0.7957747E-01            NaN
         13   -1    0    0    0    0  0.00000000000E+00  0.00000000000E+00  0.74505805969E-08  0.10566000000E+00  0.10566000000E+00 0. -1.
     999900   -1    0    0    0    0 -0.00000000000E+00 -0.00000000000E+00 -0.74505805969E-08  0.93827000000E+00  0.93827000000E+00 0.  1.
     999902    2    1    2    0    0 -0.16474124804E-02 -0.40253414789E-02  0.21923515536E-01  0.10215792086E+01  0.10213346766E+01 0.  0.
     999903    2    3    3    0    0  0.43542622020E-01  0.83122338177E-01 -0.86301454167E-01  0.12953128314E+00  0.22915699501E-01 0.  0.
         14    1    1    2    0    0  0.16474124804E-02  0.40253414789E-02 -0.21923515536E-01  0.22350791381E-01  0.00000000000E+00 0.  1.
     999901    1    3    3    0    0 -0.45190034501E-01 -0.87147679656E-01  0.10822496970E+00  0.89204792548E+00  0.88000000000E+00 0. -1.
        -11    1    4    4    0    0 -0.83046798806E-03  0.14380445612E-01 -0.17149209409E-01  0.22401861473E-01  0.51100000000E-03 0.  1.
         11    1    4    4    0    0  0.44373090008E-01  0.68741892565E-01 -0.69152244758E-01  0.10712942167E+00  0.51100000000E-03 0. -1.
</event>
<event>
 8    1  0.1091347E+005  0.1043930E+01  0.7957747E-01            NaN
         13   -1    0    0    0    0  0.00000000000E+00  0.00000000000E+00  0.74505805969E-08  0.10566000000E+00  0.10566000000E+00 0. -1.
     999900   -1    0    0    0    0 -0.00000000000E+00 -0.00000000000E+00 -0.74505805969E-08  0.93827000000E+00  0.93827000000E+00 0. -1.
     999902    2    1    2    0    0 -0.23377310730E-01  0.46090646883E-02 -0.13361695675E-03  0.10201022853E+01  0.10198239615E+01 0.  0.
     999903    2    3    3    0    0 -0.12104901226E+00  0.26801805908E-01 -0.44809026739E-01  0.13329443053E+00  0.19706754280E-01 0.  0.
         14    1    1    2    0    0  0.23377310730E-01 -0.46090646883E-02  0.13361695675E-03  0.23827714699E-01  0.00000000000E+00 0. -1.
     999901    1    3    3    0    0  0.97671701530E-01 -0.22192741219E-01  0.44675409782E-01  0.88680785477E+00  0.88000000000E+00 0.  1.
        -11    1    4    4    0    0 -0.92730572901E-01  0.20019987252E-01 -0.25113441479E-01  0.98136155947E-01  0.51100000000E-03 0.  1.
         11    1    4    4    0    0 -0.28318439359E-01  0.67818186552E-02 -0.19695585259E-01  0.35158274584E-01  0.51100000000E-03 0. -1.
</event>
<event>
 8    1  0.1091347E+005  0.1043930E+01  0.7957747E-01            NaN
         13   -1    0    0    0    0  0.00000000000E+00  0.00000000000E+00  0.74505805969E-08  0.10566000000E+00  0.10566000000E+00 0. -1.
     999900   -1    0    0    0    0 -0.00000000000E+00 -0.00000000000E+00 -0.74505805969E-08  0.93827000000E+00  0.93827000000E+00 0. -1.
     999902    2    1    2    0    0 -0.61445681784E-02 -0.14999330261E-01  0.17335961425E-01  0.10201966651E+01  0.10199205677E+01 0.  0.
     999903    2    3    3    0    0  0.55197999360E-01  0.11343729915E+00 -0.11790314686E-01  0.12828455155E+00  0.20076719687E-01 0.  0.
         14    1    1    2    0    0  0.61445681784E-02  0.14999330261E-01 -0.17335961425E-01  0.23733334888E-01  0.00000000000E+00 0.  1.
     999901    1    3    3    0    0 -0.61342567538E-01 -0.12843662941E+00  0.29126276111E-01  0.89191211357E+00  0.88000000000E+00 0.  1.
        -11    1    4    4    0    0  0.44203083445E-01  0.98710225191E-01 -0.37613248041E-02  0.10822213188E+00  0.51100000000E-03 0.  1.
         11    1    4    4    0    0  0.10994915914E-01  0.14727073958E-01 -0.80289898820E-02  0.20062419666E-01  0.51100000000E-03 0. -1.
</event>
<event>
 8    1  0.1091347E+005  0.1043930E+01  0.7957747E-01            NaN
         13   -1    0    0    0    0  0.00000000000E+00  0.00000000000E+00  0.74505805969E-08  0.10566000000E+00  0.10566000000E+00 0. -1.
     999900   -1    0    0    0    0 -0.00000000000E+00 -0.00000000000E+00 -0.74505805969E-08  0.93827000000E+00  0.93827000000E+00 0. -1.
     999902    2    1    2    0    0  0.62640102626E-02  0.22727529197E-01 -0.38971808598E-02  0.10200350962E+01  0.10197551819E+01 0.  0.
     999903    2    3    3    0    0 -0.11945272745E+00  0.43169504016E-01  0.21861434602E-01  0.13049247288E+00  0.20440229472E-01 0.  0.
         14    1    1    2    0    0 -0.62640102626E-02 -0.22727529197E-01  0.38971808598E-02  0.23894903780E-01  0.00000000000E+00 0. -1.
     999901    1    3    3    0    0  0.12571673772E+00 -0.20441974818E-01 -0.25758615462E-01  0.88954262334E+00  0.88000000000E+00 0. -1.
        -11    1    4    4    0    0 -0.44300237346E-01  0.23839026521E-01  0.15445274029E-01  0.52627253636E-01  0.51100000000E-03 0. -1.
         11    1    4    4    0    0 -0.75152490109E-01  0.19330477494E-01  0.64161605731E-02  0.77865219239E-01  0.51100000000E-03 0.  1.
</event>
<event>
 8    1  0.1091347E+005  0.1043930E+01  0.7957747E-01            NaN
         13   -1    0    0    0    0  0.00000000000E+00  0.00000000000E+00  0.74505805969E-08  0.10566000000E+00  0.10566000000E+00 0. -1.
     999900   -1    0    0    0    0 -0.00000000000E+00 -0.00000000000E+00 -0.74505805969E-08  0.93827000000E+00  0.93827000000E+00 0.  1.
     999902    2    1    2    0    0 -0.22873879192E-02 -0.50229350075E-02 -0.22989098359E-01  0.10202876511E+01  0.10200136912E+01 0.  0.
     999903    2    3    3    0    0  0.94608407567E-01  0.62058740609E-01 -0.63986408636E-01  0.13148535256E+00  0.19801499418E-01 0.  0.
         14    1    1    2    0    0  0.22873879192E-02  0.50229350075E-02  0.22989098359E-01  0.23642348930E-01  0.00000000000E+00 0. -1.
     999901    1    3    3    0    0 -0.96895795487E-01 -0.67081675617E-01  0.40997310277E-01  0.88880229851E+00  0.88000000000E+00 0. -1.
        -11    1    4    4    0    0  0.40891737444E-01  0.17657077385E-01 -0.18329158486E-01  0.48167683614E-01  0.51100000000E-03 0.  1.
         11    1    4    4    0    0  0.53716670123E-01  0.44401663224E-01 -0.45657250150E-01  0.83317668945E-01  0.51100000000E-03 0. -1.
</event>
<event>
 8    1  0.1091347E+005  0.1043930E+01  0.7957747E-01            NaN
         13   -1    0    0    0    0  0.00000000000E+00  0.00000000000E+00  0.74505805969E-08  0.10566000000E+00  0.10566000000E+00 0.  1.
     999900   -1    0    0    0    0 -0.00000000000E+00 -0.00000000000E+00 -0.74505805969E-08  0.93827000000E+00  0.93827000000E+00 0. -1.
     999902    2    1    2    0    0  0.17241994340E-01  0.79615939437E-02 -0.15263562367E-01  0.10195650727E+01  0.10192739022E+01 0.  0.
     999903    2    3    3    0    0  0.75187835003E-01 -0.95214942661E-02  0.10315360514E+00  0.12957293542E+00  0.20114918719E-01 0.  0.
         14    1    1    2    0    0 -0.17241994340E-01 -0.79615939437E-02  0.15263562367E-01  0.24364927316E-01  0.00000000000E+00 0.  1.
     999901    1    3    3    0    0 -0.57945840663E-01  0.17483088210E-01 -0.11841716751E+00  0.88999213726E+00  0.88000000000E+00 0. -1.
        -11    1    4    4    0    0  0.39187376125E-01 -0.15039498429E-01  0.56281831360E-01  0.70212125896E-01  0.51100000000E-03 0.  1.
         11    1    4    4    0    0  0.36000458879E-01  0.55180041627E-02  0.46871773782E-01  0.59360809529E-01  0.51100000000E-03 0. -1.
</event>
<event>
 8    1  0.1091347E+005  0.1043930E+01  0.7957747E-01            NaN
         13   -1    0    0    0    0  0.00000000000E+00  0.00000000000E+00  0.74505805969E-08  0.10566000000E+00  0.10566000000E+00 0.  1.
     999900   -1    0    0    0    0 -0.00000000000E+00 -0.00000000000E+00 -0.74505805969E-08  0.93827000000E+00  0.93827000000E+00 0. -1.
     999902    2    1    2    0    0 -0.23134758765E-01  0.24223170708E-02  0.22983961299E-02  0.10205554988E+01  0.10202877823E+01 0.  0.
     999903    2    3    3    0    0  0.83896603950E-01  0.71817061093E-01  0.63961117933E-01  0.12922299383E+00  0.20278735366E-01 0.  0.
         14    1    1    2    0    0  0.23134758765E-01 -0.24223170708E-02 -0.22983961299E-02  0.23374501232E-01  0.00000000000E+00 0. -1.
     999901    1    3    3    0    0 -0.10703136271E+00 -0.69394744023E-01 -0.61662721803E-01  0.89133250494E+00  0.88000000000E+00 0.  1.
        -11    1    4    4    0    0  0.46410436925E-01  0.30606138588E-01  0.23449920023E-01  0.60339242993E-01  0.51100000000E-03 0. -1.
         11    1    4    4    0    0  0.37486167025E-01  0.41210922505E-01  0.40511197910E-01  0.68883750835E-01  0.51100000000E-03 0.  1.
</event>
<event>
 8    1  0.1091347E+005  0.1043930E+01  0.7957747E-01            NaN
         13   -1    0    0    0    0  0.00000000000E+00  0.00000000000E+00  0.74505805969E-08  0.10566000000E+00  0.10566000000E+00 0. -1.
     999900   -1    0    0    0    0 -0.00000000000E+00 -0.00000000000E+00 -0.74505805969E-08  0.93827000000E+00  0.93827000000E+00 0. -1.
     999902    2    1    2    0    0  0.61573788198E-02  0.14225223223E-01 -0.18282260565E-01  0.10199610338E+01  0.10196793609E+01 0.  0.
     999903    2    3    3    0    0  0.62080592748E-02  0.19645040803E-01 -0.13005093070E+00  0.13287501056E+00  0.17834130930E-01 0.  0.
         14    1    1    2    0    0 -0.61573788198E-02 -0.14225223223E-01  0.18282260565E-01  0.23968966207E-01  0.00000000000E+00 0. -1.
     999901    1    3    3    0    0 -0.50680455009E-04 -0.54198175798E-02  0.11176867014E+00  0.88708602323E+00  0.88000000000E+00 0.  1.
        -11    1    4    4    0    0  0.11413191485E-01  0.71700271074E-02 -0.73622959480E-01  0.74848323376E-01  0.51100000000E-03 0.  1.
         11    1    4    4    0    0 -0.52051322098E-02  0.12475013695E-01 -0.56427971225E-01  0.58026687184E-01  0.51100000000E-03 0. -1.
</event>
<event>
 8    1  0.1091347E+005  0.1043930E+01  0.7957747E-01            NaN
         13   -1    0    0    0    0  0.00000000000E+00  0.00000000000E+00  0.74505805969E-08  0.10566000000E+00  0.10566000000E+00 0.  1.
     999900   -1    0    0    0    0 -0.00000000000E+00 -0.00000000000E+00 -0.74505805969E-08  0.93827000000E+00  0.93827000000E+00 0. -1.
     999902    2    1    2    0    0 -0.12344525480E-01 -0.72727107072E-02 -0.17861738386E-01  0.10210319361E+01  0.10207751434E+01 0.  0.
     999903    2    3    3    0    0  0.59070665600E-01 -0.11706551500E-01 -0.11643615232E+00  0.13264198598E+00  0.20251715839E-01 0.  0.
         14    1    1    2    0    0  0.12344525480E-01  0.72727107072E-02  0.17861738386E-01  0.22898063860E-01  0.00000000000E+00 0.  1.
     999901    1    3    3    0    0 -0.71415191080E-01  0.44338407925E-02  0.98574413938E-01  0.88838995016E+00  0.88000000000E+00 0. -1.
        -11    1    4    4    0    0  0.14070053226E-01 -0.10068520145E-03 -0.47185658388E-01  0.49241486714E-01  0.51100000000E-03 0. -1.
         11    1    4    4    0    0  0.45000612374E-01 -0.11605866298E-01 -0.69250493936E-01  0.83400499267E-01  0.51100000000E-03 0.  1.
</event>
<event>
 8    1  0.1091347E+005  0.1043930E+01  0.7957747E-01            NaN
         13   -1    0    0    0    0  0.00000000000E+00  0.00000000000E+00  0.74505805969E-08  0.10566000000E+00  0.10566000000E+00 0.  1.
     999900   -1    0    0    0    0 -0.00000000000E+00 -0.00000000000E+00 -0.74505805969E-08  0.93827000000E+00  0.93827000000E+00 0. -1.
     999902    2    1    2    0    0 -0.21181473600E-01  0.56667456658E-02  0.85978087301E-02  0.10203781605E+01  0.10201063186E+01 0.  0.
     999903    2    3    3    0    0 -0.64971709395E-01 -0.99863957304E-01  0.52665441620E-01  0.13189840815E+00  0.20722170264E-01 0.  0.
         14    1    1    2    0    0  0.21181473600E-01 -0.56667456658E-02 -0.85978087301E-02  0.23551839530E-01  0.00000000000E+00 0.  1.
     999901    1    3    3    0    0  0.43790235796E-01  0.10553070297E+00 -0.44067632890E-01  0.88847975232E+00  0.88000000000E+00 0.  1.
        -11    1    4    4    0    0 -0.24334126237E-01 -0.54348077547E-01  0.20935501486E-01  0.63122258961E-01  0.51100000000E-03 0.  1.
         11    1    4    4    0    0 -0.40637583158E-01 -0.45515879756E-01  0.31729940134E-01  0.68776149186E-01  0.51100000000E-03 0. -1.
</event>
<event>
 8    1  0.1091347E+005  0.1043930E+01  0.7957747E-01            NaN
         13   -1    0    0    0    0  0.00000000000E+00  0.00000000000E+00  0.74505805969E-08  0.10566000000E+00  0.10566000000E+00 0. -1.
     999900   -1    0    0    0    0 -0.00000000000E+00 -0.00000000000E+00 -0.74505805969E-08  0.93827000000E+00  0.93827000000E+00 0. -1.
     999902    2    1    2    0    0  0.17255027921E-01  0.71142895827E-02 -0.14028213844E-01  0.10205817691E+01  0.10203146610E+01 0.  0.
     999903    2    3    3    0    0 -0.60326136724E-01 -0.74201224843E-01 -0.86591253174E-01  0.13047141372E+00  0.19485382496E-01 0.  0.
         14    1    1    2    0    0 -0.17255027921E-01 -0.71142895827E-02  0.14028213844E-01  0.23348230949E-01  0.00000000000E+00 0. -1.
     999901    1    3    3    0    0  0.77581164645E-01  0.81315514426E-01  0.72563039331E-01  0.89011035533E+00  0.88000000000E+00 0.  1.
        -11    1    4    4    0    0 -0.27422086241E-01 -0.29088441848E-01 -0.24166220104E-01  0.46715902838E-01  0.51100000000E-03 0.  1.
         11    1    4    4    0    0 -0.32904050483E-01 -0.45112782995E-01 -0.62425033071E-01  0.83755510879E-01  0.51100000000E-03 0. -1.
</event>
<event>
 8    1  0.1091347E+005  0.1043930E+01  0.7957747E-01            NaN
         13   -1    0    0    0    0  0.00000000000E+00  0.00000000000E+00  0.74505805969E-08  0.10566000000E+00  0.10566000000E+00 0.  1.
     999900   -1    0    0    0    0 -0.00000000000E+00 -0.00000000000E+00 -0.74505805969E-08  0.93827000000E+00  0.93827000000E+00 0.  1.
     999902    2    1    2    0    0 -0.43003971190E-02 -0.25259978760E-02 -0.28945868610E-01  0.10145576084E+01  0.10141323401E+01 0.  0.
     999903    2    3    3    0    0  0.72451484097E-01  0.55824839059E-01 -0.86489168479E-01  0.12742351320E+00  0.19767277231E-01 0.  0.
         14    1    1    2    0    0  0.43003971190E-02  0.25259978760E-02  0.28945868610E-01  0.29372391633E-01  0.00000000000E+00 0.  1.
     999901    1    3    3    0    0 -0.76751881216E-01 -0.58350836935E-01  0.57543299870E-01  0.88713409516E+00  0.88000000000E+00 0. -1.
        -11    1    4    4    0    0  0.49693035422E-01  0.49016113116E-01 -0.63577491593E-01  0.94415759663E-01  0.51100000000E-03 0.  1.
         11    1    4    4    0    0  0.22758448676E-01  0.68087259424E-02 -0.22911676887E-01  0.33007753541E-01  0.51100000000E-03 0. -1.
</event>
<event>
 8    1  0.1091347E+005  0.1043930E+01  0.7957747E-01            NaN
         13   -1    0    0    0    0  0.00000000000E+00  0.00000000000E+00  0.74505805969E-08  0.10566000000E+00  0.10566000000E+00 0.  1.
     999900   -1    0    0    0    0 -0.00000000000E+00 -0.00000000000E+00 -0.74505805969E-08  0.93827000000E+00  0.93827000000E+00 0.  1.
     999902    2    1    2    0    0  0.66395670627E-02 -0.19392189658E-01 -0.10677810492E-01  0.10208181739E+01  0.10205565088E+01 0.  0.
     999903    2    3    3    0    0 -0.56597569127E-01  0.90684211594E-01 -0.70641198714E-01  0.12968891420E+00  0.20053040823E-01 0.  0.
         14    1    1    2    0    0 -0.66395670627E-02  0.19392189658E-01  0.10677810492E-01  0.23111826137E-01  0.00000000000E+00 0. -1.
     999901    1    3    3    0    0  0.63237136190E-01 -0.11007640125E+00  0.59963388222E-01  0.89112925967E+00  0.88000000000E+00 0.  1.
        -11    1    4    4    0    0 -0.22571539381E-01  0.19720732408E-01 -0.21773969792E-01  0.37050621564E-01  0.51100000000E-03 0. -1.
         11    1    4    4    0    0 -0.34026029746E-01  0.70963479186E-01 -0.48867228922E-01  0.92638292633E-01  0.51100000000E-03 0.  1.
</event>
<event>
 8    1  0.1091347E+005  0.1043930E+01  0.7957747E-01            NaN
         13   -1    0    0    0    0  0.00000000000E+00  0.00000000000E+00  0.74505805969E-08  0.10566000000E+00  0.10566000000E+00 0. -1.
     999900   -1    0    0    0    0 -0.00000000000E+00 -0.00000000000E+00 -0.74505805969E-08  0.93827000000E+00  0.93827000000E+00 0. -1.
     999902    2    1    2    0    0 -0.19879899316E-01  0.13823691113E-01  0.32504409107E-02  0.10194990729E+01  0.10192063037E+01 0.  0.
     999903    2    3    3    0    0  0.69468590182E-01  0.34587289666E-01 -0.10054088997E+00  0.12866411626E+00  0.20586855769E-01 0.  0.
         14    1    1    2    0    0  0.19879899316E-01 -0.13823691113E-01 -0.32504409107E-02  0.24430927099E-01  0.00000000000E+00 0. -1.
     999901    1    3    3    0    0 -0.89348489498E-01 -0.20763598553E-01  0.10379133088E+00  0.89083495664E+00  0.88000000000E+00 0.  1.
        -11    1    4    4    0    0  0.26663029388E-01  0.84556849961E-02 -0.50990623271E-01  0.58161159957E-01  0.51100000000E-03 0.  1.
         11    1    4    4    0    0  0.42805560795E-01  0.26131604670E-01 -0.49550266695E-01  0.70502956308E-01  0.51100000000E-03 0. -1.
</event>
<event>
 8    1  0.1091347E+005  0.1043930E+01  0.7957747E-01            NaN
         13   -1    0    0    0    0  0.00000000000E+00  0.00000000000E+00  0.74505805969E-08  0.10566000000E+00  0.10566000000E+00 0. -1.
     999900   -1    0    0    0    0 -0.00000000000E+00 -0.00000000000E+00 -0.74505805969E-08  0.93827000000E+00  0.93827000000E+00 0.  1.
     999902    2    1    2    0    0 -0.17664044013E-01  0.59279181456E-02 -0.12699606884E-01  0.10213814151E+01  0.10211324872E+01 0.  0.
     999903    2    3    3    0    0  0.12298187037E+00  0.35697293491E-01 -0.27428834543E-02  0.12966025621E+00  0.20135079528E-01 0.  0.
         14    1    1    2    0    0  0.17664044013E-01 -0.59279181456E-02  0.12699606884E-01  0.22548584865E-01  0.00000000000E+00 0. -1.
     999901    1    3    3    0    0 -0.14064591438E+00 -0.29769375346E-01 -0.99567234297E-02  0.89172115893E+00  0.88000000000E+00 0. -1.
        -11    1    4    4    0    0  0.62618542000E-01  0.16550502715E-01  0.85477246833E-02  0.65332424267E-01  0.51100000000E-03 0.  1.
         11    1    4    4    0    0  0.60363328368E-01  0.19146790777E-01 -0.11290608138E-01  0.64327831938E-01  0.51100000000E-03 0. -1.
</event>
<event>
 8    1  0.1091347E+005  0.1043930E+01  0.7957747E-01            NaN
         13   -1    0    0    0    0  0.00000000000E+00  0.00000000000E+00  0.74505805969E-08  0.10566000000E+00  0.10566000000E+00 0.  1.
     999900   -1    0    0    0    0 -0.00000000000E+00 -0.00000000000E+00 -0.74505805969E-08  0.93827000000E+00  0.93827000000E+00 0. -1.
     999902    2    1    2    0    0  0.33724225382E-02  0.19496922017E-01 -0.12687714936E-01  0.10204250790E+01  0.10201543317E+01 0.  0.
     999903    2    3    3    0    0  0.58287935864E-02 -0.12540728416E+00 -0.19342744860E-01  0.12854641450E+00  0.19725038566E-01 0.  0.
         14    1    1    2    0    0 -0.33724225382E-02 -0.19496922017E-01  0.12687714936E-01  0.23504921021E-01  0.00000000000E+00 0.  1.
     999901    1    3    3    0    0 -0.24563710482E-02  0.14490420618E+00  0.66550299241E-02  0.89187866448E+00  0.88000000000E+00 0. -1.
        -11    1    4    4    0    0 -0.58451449985E-03 -0.90644270849E-01 -0.63085205746E-02  0.90866847902E-01  0.51100000000E-03 0.  1.
         11    1    4    4    0    0  0.64133080862E-02 -0.34763013315E-01 -0.13034224286E-01  0.37679566599E-01  0.51100000000E-03 0. -1.
</event>
<event>
 8    1  0.1091347E+005  0.1043930E+01  0.7957747E-01            NaN
         13   -1    0    0    0    0  0.00000000000E+00  0.00000000000E+00  0.74505805969E-08  0.10566000000E+00  0.10566000000E+00 0. -1.
     999900   -1    0    0    0    0 -0.00000000000E+00 -0.00000000000E+00 -0.74505805969E-08  0.93827000000E+00  0.93827000000E+00 0.  1.
     999902    2    1    2    0    0 -0.15126665620E-02 -0.23668402344E-01 -0.95291585617E-03  0.10201941731E+01  0.10199180170E+01 0.  0.
     999903    2    3    3    0    0 -0.46463849618E-01 -0.48148971084E-01  0.11119849173E+00  0.13160098985E+00  0.21828953897E-01 0.  0.
         14    1    1    2    0    0  0.15126665620E-02  0.23668402344E-01  0.95291585617E-03  0.23735826892E-01  0.00000000000E+00 0. -1.
     999901    1    3    3    0    0  0.44951183056E-01  0.24480568740E-01 -0.11215140759E+00  0.88859318326E+00  0.88000000000E+00 0.  1.
        -11    1    4    4    0    0 -0.38023956134E-01 -0.33404993019E-01  0.65052941651E-01  0.82424881784E-01  0.51100000000E-03 0. -1.
         11    1    4    4    0    0 -0.84398934842E-02 -0.14743978065E-01  0.46145550083E-01  0.49176108068E-01  0.51100000000E-03 0.  1.
</event>
<event>
 8    1  0.1091347E+005  0.1043930E+01  0.7957747E-01            NaN
         13   -1    0    0    0    0  0.00000000000E+00  0.00000000000E+00  0.74505805969E-08  0.10566000000E+00  0.10566000000E+00 0. -1.
     999900   -1    0    0    0    0 -0.00000000000E+00 -0.00000000000E+00 -0.74505805969E-08  0.93827000000E+00  0.93827000000E+00 0.  1.
     999902    2    1    2    0    0  0.18003658379E-01 -0.90238908264E-02 -0.14269351422E-01  0.10192484946E+01  0.10189496145E+01 0.  0.
     999903    2    3    3    0    0 -0.47537370130E-01  0.96143665596E-01 -0.68617566871E-01  0.12890610544E+00  0.20124799226E-01 0.  0.
         14    1    1    2    0    0 -0.18003658379E-01  0.90238908264E-02  0.14269351422E-01  0.24681505438E-01  0.00000000000E+00 0. -1.
     999901    1    3    3    0    0  0.65541028508E-01 -0.10516755642E+00  0.54348215448E-01  0.89034238912E+00  0.88000000000E+00 0. -1.
        -11    1    4    4    0    0 -0.18090676998E-01  0.57709725414E-01 -0.42197882401E-01  0.73746914524E-01  0.51100000000E-03 0.  1.
         11    1    4    4    0    0 -0.29446693132E-01  0.38433940182E-01 -0.26419684469E-01  0.55159190918E-01  0.51100000000E-03 0. -1.
</event>
<event>
 8    1  0.1091347E+005  0.1043930E+01  0.7957747E-01            NaN
         13   -1    0    0    0    0  0.00000000000E+00  0.00000000000E+00  0.74505805969E-08  0.10566000000E+00  0.10566000000E+00 0. -1.
     999900   -1    0    0    0    0 -0.00000000000E+00 -0.00000000000E+00 -0.74505805969E-08  0.93827000000E+00  0.93827000000E+00 0.  1.
     999902    2    1    2    0    0 -0.71070612367E-02  0.73807903424E-02  0.26734233281E-01  0.10152994985E+01  0.10148957415E+01 0.  0.
     999903    2    3    3    0    0  0.18820570701E-01 -0.44411717844E-01  0.11763243133E+00  0.12872339440E+00  0.20142214445E-01 0.  0.
         14    1    1    2    0    0  0.71070612367E-02 -0.73807903424E-02 -0.26734233281E-01  0.28630501473E-01  0.00000000000E+00 0.  1.
     999901    1    3    3    0    0 -0.25927631938E-01  0.51792508187E-01 -0.90898198044E-01  0.88657610413E+00  0.88000000000E+00 0.  1.
        -11    1    4    4    0    0  0.30849105593E-03 -0.13707773302E-01  0.53670607810E-01  0.55396691953E-01  0.51100000000E-03 0.  1.
         11    1    4    4    0    0  0.18512079645E-01 -0.30703944543E-01  0.63961823515E-01  0.73326702446E-01  0.51100000000E-03 0. -1.
</event>
<event>
 8    1  0.1091347E+005  0.1043930E+01  0.7957747E-01            NaN
         13   -1    0    0    0    0  0.00000000000E+00  0.00000000000E+00  0.74505805969E-08  0.10566000000E+00  0.10566000000E+00 0.  1.
     999900   -1    0    0    0    0 -0.00000000000E+00 -0.00000000000E+00 -0.74505805969E-08  0.93827000000E+00  0.93827000000E+00 0.  1.
     999902    2    1    2    0    0 -0.24637718873E-01  0.42546066318E-02 -0.62496380399E-02  0.10181583713E+01  0.10178321533E+01 0.  0.
     999903    2    3    3    0    0  0.51260396196E-01  0.10799668866E+00  0.40019334388E-01  0.12761709701E+00  0.19840951194E-01 0.  0.
         14    1    1    2    0    0  0.24637718873E-01 -0.42546066318E-02  0.62496380399E-02  0.25771628674E-01  0.00000000000E+00 0.  1.
     999901    1    3    3    0    0 -0.75898115069E-01 -0.10374208203E+00 -0.46268972428E-01  0.89054127432E+00  0.88000000000E+00 0.  1.
        -11    1    4    4    0    0  0.24299613703E-01  0.72881577740E-01  0.23174314945E-01  0.80246530107E-01  0.51100000000E-03 0.  1.
         11    1    4    4    0    0  0.26960782493E-01  0.35115110919E-01  0.16845019443E-01  0.47370566901E-01  0.51100000000E-03 0. -1.
</event>
<event>
 8    1  0.1091347E+005  0.1043930E+01  0.7957747E-01            NaN
         13   -1    0    0    0    0  0.00000000000E+00  0.00000000000E+00  0.74505805969E-08  0.10566000000E+00  0.10566000000E+00 0.  1.
     999900   -1    0    0    0    0 -0.00000000000E+00 -0.00000000000E+00 -0.74505805969E-08  0.93827000000E+00  0.93827000000E+00 0. -1.
     999902    2    1    2    0    0  0.36184463829E-02  0.22637160086E-01  0.38744846179E-02  0.10206803591E+01  0.10204155279E+01 0.  0.
     999903    2    3    3    0    0  0.91048942158E-01 -0.89421555086E-01 -0.48130919005E-02  0.12923393826E+00  0.19802034305E-01 0.  0.
         14    1    1    2    0    0 -0.36184463829E-02 -0.22637160086E-01 -0.38744846179E-02  0.23249640902E-01  0.00000000000E+00 0. -1.
     999901    1    3    3    0    0 -0.87430495775E-01  0.11205871517E+00  0.86875765184E-02  0.89144642084E+00  0.88000000000E+00 0. -1.
        -11    1    4    4    0    0  0.34045326312E-01 -0.25960920925E-01  0.60410045288E-02  0.43241282540E-01  0.51100000000E-03 0.  1.
         11    1    4    4    0    0  0.57003615846E-01 -0.63460634161E-01 -0.10854096429E-01  0.85992655721E-01  0.51100000000E-03 0. -1.
</event>
<event>
 8    1  0.1091347E+005  0.1043930E+01  0.7957747E-01            NaN
         13   -1    0    0    0    0  0.00000000000E+00  0.00000000000E+00  0.74505805969E-08  0.10566000000E+00  0.10566000000E+00 0. -1.
     999900   -1    0    0    0    0 -0.00000000000E+00 -0.00000000000E+00 -0.74505805969E-08  0.93827000000E+00  0.93827000000E+00 0. -1.
     999902    2    1    2    0    0  0.12788303889E-01  0.56462985162E-02 -0.19011721323E-01  0.10203319715E+01  0.10200590498E+01 0.  0.
     999903    2    3    3    0    0 -0.62597643500E-01  0.29089955611E-01 -0.11085799627E+00  0.13203675908E+00  0.19481271060E-01 0.  0.
         14    1    1    2    0    0 -0.12788303889E-01 -0.56462985162E-02  0.19011721323E-01  0.23598028540E-01  0.00000000000E+00 0. -1.
     999901    1    3    3    0    0  0.75385947390E-01 -0.23443657094E-01  0.91846274943E-01  0.88829521238E+00  0.88000000000E+00 0.  1.
        -11    1    4    4    0    0 -0.52259040395E-01  0.18985815106E-01 -0.98037050978E-01  0.11270755504E+00  0.51100000000E-03 0. -1.
         11    1    4    4    0    0 -0.10338603106E-01  0.10104140504E-01 -0.12820945288E-01  0.19329204034E-01  0.51100000000E-03 0.  1.
</event>
<event>
 8    1  0.1091347E+005  0.1043930E+01  0.7957747E-01            NaN
         13   -1    0    0    0    0  0.00000000000E+00  0.00000000000E+00  0.74505805969E-08  0.10566000000E+00  0.10566000000E+00 0.  1.
     999900   -1    0    0    0    0 -0.00000000000E+00 -0.00000000000E+00 -0.74505805969E-08  0.93827000000E+00  0.93827000000E+00 0.  1.
     999902    2    1    2    0    0  0.68330617940E-02  0.22201971635E-01 -0.53487796047E-02  0.10200924724E+01  0.10198139166E+01 0.  0.
     999903    2    3    3    0    0  0.46952915616E-01  0.12317758496E+00  0.35781549964E-02  0.13336513703E+00  0.19903840398E-01 0.  0.
         14    1    1    2    0    0 -0.68330617940E-02 -0.22201971635E-01  0.53487796047E-02  0.23837527582E-01  0.00000000000E+00 0.  1.
     999901    1    3    3    0    0 -0.40119853822E-01 -0.10097561332E+00 -0.89269346010E-02  0.88672733538E+00  0.88000000000E+00 0. -1.
        -11    1    4    4    0    0  0.15127673097E-01  0.21295690620E-01 -0.36594167155E-02  0.26381913957E-01  0.51100000000E-03 0. -1.
         11    1    4    4    0    0  0.31825242520E-01  0.10188189434E+00  0.72375717119E-02  0.10698322308E+00  0.51100000000E-03 0.  1.
</event>
<event>
 8    1  0.1091347E+005  0.1043930E+01  0.7957747E-01            NaN
         13   -1    0    0    0    0  0.00000000000E+00  0.00000000000E+00  0.74505805969E-08  0.10566000000E+00  0.10566000000E+00 0.  1.
     999900   -1    0    0    0    0 -0.00000000000E+00 -0.00000000000E+00 -0.74505805969E-08  0.93827000000E+00  0.93827000000E+00 0.  1.
     999902    2    1    2    0    0 -0.17431248916E-01  0.14924974326E-01 -0.42495017587E-02  0.10205920146E+01  0.10203251436E+01 0.  0.
     999903    2    3    3    0    0 -0.90385165075E-01  0.90523597236E-01  0.33328362454E-01  0.13354662594E+00  0.18971605958E-01 0.  0.
         14    1    1    2    0    0  0.17431248916E-01 -0.14924974326E-01  0.42495017587E-02  0.23337985402E-01  0.00000000000E+00 0.  1.
     999901    1    3    3    0    0  0.72953916159E-01 -0.75598622909E-01 -0.37577864213E-01  0.88704538866E+00  0.88000000000E+00 0.  1.
        -11    1    4    4    0    0 -0.43045287928E-01  0.33240528405E-01  0.20550879257E-01  0.58141459396E-01  0.51100000000E-03 0.  1.
         11    1    4    4    0    0 -0.47339877148E-01  0.57283068831E-01  0.12777483198E-01  0.75405166540E-01  0.51100000000E-03 0. -1.
</event>
<event>
 8    1  0.1091347E+005  0.1043930E+01  0.7957747E-01            NaN
         13   -1    0    0    0    0  0.00000000000E+00  0.00000000000E+00  0.74505805969E-08  0.10566000000E+00  0.10566000000E+00 0.  1.
     999900   -1    0    0    0    0 -0.00000000000E+00 -0.00000000000E+00 -0.74505805969E-08  0.93827000000E+00  0.93827000000E+00 0.  1.
     999902    2    1    2    0    0 -0.11004169284E-01  0.12504143271E-01  0.16995685152E-01  0.10201329696E+01  0.10198553707E+01 0.  0.
     999903    2    3    3    0    0 -0.62199794244E-01 -0.52626745960E-01  0.10220335194E+00  0.13214458501E+00  0.19449354873E-01 0.  0.
         14    1    1    2    0    0  0.11004169284E-01 -0.12504143271E-01 -0.16995685152E-01  0.23797030369E-01  0.00000000000E+00 0. -1.
     999901    1    3    3    0    0  0.51195624960E-01  0.65130889232E-01 -0.85207666787E-01  0.88798838462E+00  0.88000000000E+00 0.  1.
        -11    1    4    4    0    0 -0.52691959235E-01 -0.47509961823E-01  0.96917545187E-01  0.12011207569E+00  0.51100000000E-03 0.  1.
         11    1    4    4    0    0 -0.95078350094E-02 -0.51167841367E-02  0.52858067520E-02  0.12032509318E-01  0.51100000000E-03 0. -1.
</event>
<event>
 8    1  0.1091347E+005  0.1043930E+01  0.7957747E-01            NaN
         13   -1    0    0    0    0  0.00000000000E+00  0.00000000000E+00  0.74505805969E-08  0.10566000000E+00  0.10566000000E+00 0.  1.
     999900   -1    0    0    0    0 -0.00000000000E+00 -0.00000000000E+00 -0.74505805969E-08  0.93827000000E+00  0.93827000000E+00 0.  1.
     999902    2    1    2    0    0  0.76774272319E-02  0.71209680785E-02 -0.22581885545E-01  0.10190383823E+01  0.10187343285E+01 0.  0.
     999903    2    3    3    0    0  0.39251084252E-01  0.11013568239E+00  0.51194559530E-01  0.12940256301E+00  0.21298456210E-01 0.  0.
         14    1    1    2    0    0 -0.76774272319E-02 -0.71209680785E-02  0.22581885545E-01  0.24891617667E-01  0.00000000000E+00 0.  1.
     999901    1    3    3    0    0 -0.31573657020E-01 -0.10301471431E+00 -0.73776445075E-01  0.88963581933E+00  0.88000000000E+00 0.  1.
        -11    1    4    4    0    0  0.40237256305E-01  0.89361352022E-01  0.40988891385E-01  0.10623011987E+00  0.51100000000E-03 0. -1.
         11    1    4    4    0    0 -0.98617205276E-03  0.20774330367E-01  0.10205668146E-01  0.23172443134E-01  0.51100000000E-03 0.  1.
</event>
<event>
 8    1  0.1091347E+005  0.1043930E+01  0.7957747E-01            NaN
         13   -1    0    0    0    0  0.00000000000E+00  0.00000000000E+00  0.74505805969E-08  0.10566000000E+00  0.10566000000E+00 0. -1.
     999900   -1    0    0    0    0 -0.00000000000E+00 -0.00000000000E+00 -0.74505805969E-08  0.93827000000E+00  0.93827000000E+00 0.  1.
     999902    2    1    2    0    0 -0.85942624992E-02 -0.99631757491E-02  0.19555087224E-01  0.10203603658E+01  0.10200881082E+01 0.  0.
     999903    2    3    3    0    0  0.11442689963E+00 -0.35839259928E-01 -0.43857351621E-01  0.12916739263E+00  0.19564767225E-01 0.  0.
         14    1    1    2    0    0  0.85942624992E-02  0.99631757491E-02 -0.19555087224E-01  0.23569634178E-01  0.00000000000E+00 0.  1.
     999901    1    3    3    0    0 -0.12302116213E+00  0.25876084179E-01  0.63412438846E-01  0.89119297319E+00  0.88000000000E+00 0.  1.
        -11    1    4    4    0    0  0.76435578675E-01 -0.22138400605E-01 -0.38570468372E-01  0.88433300403E-01  0.51100000000E-03 0.  1.
         11    1    4    4    0    0  0.37991320956E-01 -0.13700859323E-01 -0.52868832496E-02  0.40734092229E-01  0.51100000000E-03 0. -1.
</event>
<event>
 8    1  0.1091347E+005  0.1043930E+01  0.7957747E-01            NaN
         13   -1    0    0    0    0  0.00000000000E+00  0.00000000000E+00  0.74505805969E-08  0.10566000000E+00  0.10566000000E+00 0. -1.
     999900   -1    0    0    0    0 -0.00000000000E+00 -0.00000000000E+00 -0.74505805969E-08  0.93827000000E+00  0.93827000000E+00 0. -1.
     999902    2    1    2    0    0 -0.33998321887E-02 -0.57547945503E-02  0.23278732840E-01  0.10197106705E+01  0.10194230111E+01 0.  0.
     999903    2    3    3    0    0 -0.10922164163E+00 -0.59383679327E-01 -0.33094934870E-01  0.12996222118E+00  0.18415098443E-01 0.  0.
         14    1    1    2    0    0  0.33998321887E-02  0.57547945503E-02 -0.23278732840E-01  0.24219329509E-01  0.00000000000E+00 0.  1.
     999901    1    3    3    0    0  0.10582180944E+00  0.53628884777E-01  0.56373667710E-01  0.88974844931E+00  0.88000000000E+00 0. -1.
        -11    1    4    4    0    0 -0.31183319760E-01 -0.14943996251E-01 -0.17688915287E-01  0.38844321339E-01  0.51100000000E-03 0.  1.
         11    1    4    4    0    0 -0.78038321866E-01 -0.44439683076E-01 -0.15406019583E-01  0.91117899844E-01  0.51100000000E-03 0. -1.
</event>
<event>
 8    1  0.1091347E+005  0.1043930E+01  0.7957747E-01            NaN
         13   -1    0    0    0    0  0.00000000000E+00  0.00000000000E+00  0.74505805969E-08  0.10566000000E+00  0.10566000000E+00 0. -1.
     999900   -1    0    0    0    0 -0.00000000000E+00 -0.00000000000E+00 -0.74505805969E-08  0.93827000000E+00  0.93827000000E+00 0.  1.
     999902    2    1    2    0    0 -0.22159429663E-01  0.22411048467E-02  0.74596341334E-02  0.10204415131E+01  0.10201711487E+01 0.  0.
     999903    2    3    3    0    0 -0.12333993256E+00  0.25928007407E-01 -0.38100720570E-01  0.13315671700E+00  0.19850587965E-01 0.  0.
         14    1    1    2    0    0  0.22159429663E-01 -0.22411048467E-02 -0.74596341334E-02  0.23488486867E-01  0.00000000000E+00 0.  1.
     999901    1    3    3    0    0  0.10118050290E+00 -0.23686902560E-01  0.45560354704E-01  0.88728479613E+00  0.88000000000E+00 0. -1.
        -11    1    4    4    0    0 -0.44600301996E-01  0.16532245045E-01 -0.21185101248E-01  0.52072753914E-01  0.51100000000E-03 0.  1.
         11    1    4    4    0    0 -0.78739630568E-01  0.93957623618E-02 -0.16915619322E-01  0.81083963090E-01  0.51100000000E-03 0. -1.
</event>
<event>
 8    1  0.1091347E+005  0.1043930E+01  0.7957747E-01            NaN
         13   -1    0    0    0    0  0.00000000000E+00  0.00000000000E+00  0.74505805969E-08  0.10566000000E+00  0.10566000000E+00 0.  1.
     999900   -1    0    0    0    0 -0.00000000000E+00 -0.00000000000E+00 -0.74505805969E-08  0.93827000000E+00  0.93827000000E+00 0. -1.
     999902    2    1    2    0    0 -0.60969252931E-02  0.28125700826E-01  0.34638575363E-02  0.10149433504E+01  0.10145293385E+01 0.  0.
     999903    2    3    3    0    0  0.53996087906E-01 -0.90780218321E-02  0.11123082980E+00  0.12555647873E+00  0.19853056788E-01 0.  0.
         14    1    1    2    0    0  0.60969252931E-02 -0.28125700826E-01 -0.34638575363E-02  0.28986649582E-01  0.00000000000E+00 0.  1.
     999901    1    3    3    0    0 -0.60093013199E-01  0.37203722658E-01 -0.10776697227E+00  0.88938687169E+00  0.88000000000E+00 0. -1.
        -11    1    4    4    0    0  0.18056389324E-01  0.41667420613E-02  0.50052992637E-01  0.53375632340E-01  0.51100000000E-03 0.  1.
         11    1    4    4    0    0  0.35939698581E-01 -0.13244763893E-01  0.61177837165E-01  0.72180846393E-01  0.51100000000E-03 0. -1.
</event>
<event>
 8    1  0.1091347E+005  0.1043930E+01  0.7957747E-01            NaN
         13   -1    0    0    0    0  0.00000000000E+00  0.00000000000E+00  0.74505805969E-08  0.10566000000E+00  0.10566000000E+00 0. -1.
     999900   -1    0    0    0    0 -0.00000000000E+00 -0.00000000000E+00 -0.74505805969E-08  0.93827000000E+00  0.93827000000E+00 0. -1.
     999902    2    1    2    0    0 -0.13830681234E-01 -0.24386515086E-02  0.19098384549E-01  0.10202238182E+01  0.10199483595E+01 0.  0.
     999903    2    3    3    0    0  0.48918324022E-01  0.99608171940E-01 -0.61619763417E-01  0.12844670967E+00  0.19666510589E-01 0.  0.
         14    1    1    2    0    0  0.13830681234E-01  0.24386515086E-02 -0.19098384549E-01  0.23706181830E-01  0.00000000000E+00 0.  1.
     999901    1    3    3    0    0 -0.62749005256E-01 -0.10204682345E+00  0.80718147966E-01  0.89177710850E+00  0.88000000000E+00 0.  1.
        -11    1    4    4    0    0  0.21577039442E-01  0.29645164233E-01 -0.28057808088E-01  0.46172568795E-01  0.51100000000E-03 0.  1.
         11    1    4    4    0    0  0.27341284581E-01  0.69963007707E-01 -0.33561955329E-01  0.82274140873E-01  0.51100000000E-03 0. -1.
</event>
<event>
 8    1  0.1091347E+005  0.1043930E+01  0.7957747E-01            NaN
         13   -1    0    0    0    0  0.00000000000E+00  0.00000000000E+00  0.74505805969E-08  0.10566000000E+00  0.10566000000E+00 0. -1.
     999900   -1    0    0    0    0 -0.00000000000E+00 -0.00000000000E+00 -0.74505805969E-08  0.93827000000E+00  0.93827000000E+00 0.  1.
     999902    2    1    2    0    0 -0.37258454986E-02 -0.16668422913E-01  0.15689463604E-01  0.10207378135E+01  0.10204743046E+01 0.  0.
     999903    2    3    3    0    0 -0.68451481429E-01  0.59516012527E-01  0.93158449680E-01  0.13169623968E+00  0.20919888685E-01 0.  0.
         14    1    1    2    0    0  0.37258454986E-02  0.16668422913E-01 -0.15689463604E-01  0.23192186514E-01  0.00000000000E+00 0.  1.
     999901    1    3    3    0    0  0.64725635930E-01 -0.76184435440E-01 -0.77468986076E-01  0.88904157380E+00  0.88000000000E+00 0.  1.
        -11    1    4    4    0    0 -0.17223328239E-01  0.20892683693E-01  0.40369756199E-01  0.48611990333E-01  0.51100000000E-03 0.  1.
         11    1    4    4    0    0 -0.51228153190E-01  0.38623328833E-01  0.52788693481E-01  0.83084249348E-01  0.51100000000E-03 0. -1.
</event>
<event>
 7    1  0.1091347E+005  0.1043930E+01  0.7957747E-01            NaN
         13   -1    0    0    0    0  0.00000000000E+00  0.00000000000E+00  0.74505805969E-08  0.10566000000E+00  0.10566000000E+00 0.  1.
     999900   -1    0    0    0    0 -0.00000000000E+00 -0.00000000000E+00 -0.74505805969E-08  0.93827000000E+00  0.93827000000E+00 0. -1.
     999903    2    1    2    0    0 -0.13405585640E-02 -0.74914846934E-01 -0.37182956889E-01  0.86118564538E-01  0.20489106535E-01 0.  0.
         14    1    1    2    0    0  0.68748295191E-02 -0.47647735852E-01 -0.44494398117E-01  0.65553958511E-01  0.00000000000E+00 0. -1.
     999901    1    1    2    0    0 -0.55342709551E-02  0.12256258279E+00  0.81677355006E-01  0.89225747695E+00  0.88000000000E+00 0.  1.
        -11    1    3    3    0    0  0.71117739332E-02 -0.56027891330E-01 -0.31428448276E-01  0.64635210353E-01  0.51100000000E-03 0.  1.
         11    1    3    3    0    0 -0.84523324973E-02 -0.18886955604E-01 -0.57545086126E-02  0.21483354185E-01  0.51100000000E-03 0. -1.
</event>
<event>
 8    1  0.1091347E+005  0.1043930E+01  0.7957747E-01            NaN
         13   -1    0    0    0    0  0.00000000000E+00  0.00000000000E+00  0.74505805969E-08  0.10566000000E+00  0.10566000000E+00 0.  1.
     999900   -1    0    0    0    0 -0.00000000000E+00 -0.00000000000E+00 -0.74505805969E-08  0.93827000000E+00  0.93827000000E+00 0. -1.
     999902    2    1    2    0    0 -0.14263805212E-01 -0.11751526999E-02  0.17373533242E-01  0.10214205180E+01  0.10211724623E+01 0.  0.
     999903    2    3    3    0    0  0.12287798206E+00  0.16934468989E-01  0.34937569050E-01  0.13044109984E+00  0.20210692228E-01 0.  0.
         14    1    1    2    0    0  0.14263805212E-01  0.11751526999E-02 -0.17373533242E-01  0.22509482008E-01  0.00000000000E+00 0. -1.
     999901    1    3    3    0    0 -0.13714178728E+00 -0.18109621689E-01 -0.17564035809E-01  0.89097941815E+00  0.88000000000E+00 0. -1.
        -11    1    4    4    0    0  0.52515330185E-01  0.14846994680E-01  0.84454539963E-02  0.55225718371E-01  0.51100000000E-03 0. -1.
         11    1    4    4    0    0  0.70362651880E-01  0.20874743091E-02  0.26492115054E-01  0.75215381469E-01  0.51100000000E-03 0.  1.
</event>
<event>
 8    1  0.1091347E+005  0.1043930E+01  0.7957747E-01            NaN
         13   -1    0    0    0    0  0.00000000000E+00  0.00000000000E+00  0.74505805969E-08  0.10566000000E+00  0.10566000000E+00 0.  1.
     999900   -1    0    0    0    0 -0.00000000000E+00 -0.00000000000E+00 -0.74505805969E-08  0.93827000000E+00  0.93827000000E+00 0. -1.
     999902    2    1    2    0    0 -0.19240090941E-01  0.26210835750E-02 -0.13845103098E-01  0.10200817703E+01  0.10198029614E+01 0.  0.
     999903    2    3    3    0    0 -0.50045920192E-01  0.11004049688E+00 -0.49888202713E-01  0.13228278717E+00  0.19909744639E-01 0.  0.
         14    1    1    2    0    0  0.19240090941E-01 -0.26210835750E-02  0.13845103098E-01  0.23848229668E-01  0.00000000000E+00 0.  1.
     999901    1    3    3    0    0  0.30805829251E-01 -0.10741941330E+00  0.36043099615E-01  0.88779898316E+00  0.88000000000E+00 0. -1.
        -11    1    4    4    0    0 -0.14140825696E-01  0.14241648156E-01 -0.59513425286E-02  0.20939605834E-01  0.51100000000E-03 0.  1.
         11    1    4    4    0    0 -0.35905094495E-01  0.95798848719E-01 -0.43936860184E-01  0.11134318134E+00  0.51100000000E-03 0. -1.
</event>
<event>
 8    1  0.1091347E+005  0.1043930E+01  0.7957747E-01            NaN
         13   -1    0    0    0    0  0.00000000000E+00  0.00000000000E+00  0.74505805969E-08  0.10566000000E+00  0.10566000000E+00 0.  1.
     999900   -1    0    0    0    0 -0.00000000000E+00 -0.00000000000E+00 -0.74505805969E-08  0.93827000000E+00  0.93827000000E+00 0. -1.
     999902    2    1    2    0    0 -0.16253940483E-02 -0.19121918037E-01  0.13155445315E-01  0.10206629547E+01  0.10203977223E+01 0.  0.
     999903    2    3    3    0    0 -0.36842394982E-01  0.92132143028E-01 -0.78606224463E-01  0.12822925560E+00  0.20447728990E-01 0.  0.
         14    1    1    2    0    0  0.16253940483E-02  0.19121918037E-01 -0.13155445315E-01  0.23267045293E-01  0.00000000000E+00 0. -1.
     999901    1    3    3    0    0  0.35217000934E-01 -0.11125406107E+00  0.91761669779E-01  0.89243369911E+00  0.88000000000E+00 0.  1.
        -11    1    4    4    0    0 -0.63830273113E-02  0.14220043613E-01 -0.22962116074E-01  0.27757387730E-01  0.51100000000E-03 0. -1.
         11    1    4    4    0    0 -0.30459367671E-01  0.77912099415E-01 -0.55644108389E-01  0.10047186787E+00  0.51100000000E-03 0.  1.
</event>
<event>
 8    1  0.1091347E+005  0.1043930E+01  0.7957747E-01            NaN
         13   -1    0    0    0    0  0.00000000000E+00  0.00000000000E+00  0.74505805969E-08  0.10566000000E+00  0.10566000000E+00 0. -1.
     999900   -1    0    0    0    0 -0.00000000000E+00 -0.00000000000E+00 -0.74505805969E-08  0.93827000000E+00  0.93827000000E+00 0.  1.
     999902    2    1    2    0    0  0.20819173532E-01 -0.14207600365E-01 -0.17258644576E-01  0.10133824190E+01  0.10129218984E+01 0.  0.
     999903    2    3    3    0    0 -0.65522536443E-01 -0.65705839519E-01  0.77685361054E-01  0.12258428037E+00  0.19530241738E-01 0.  0.
         14    1    1    2    0    0 -0.20819173532E-01  0.14207600365E-01  0.17258644576E-01  0.30547581038E-01  0.00000000000E+00 0. -1.
     999901    1    3    3    0    0  0.86341709975E-01  0.51498239154E-01 -0.94944005630E-01  0.89079813859E+00  0.88000000000E+00 0.  1.
        -11    1    4    4    0    0 -0.34981740815E-01 -0.29214102690E-01  0.26624271041E-01  0.52785404383E-01  0.51100000000E-03 0.  1.
         11    1    4    4    0    0 -0.30540795629E-01 -0.36491736829E-01  0.51061090013E-01  0.69798875984E-01  0.51100000000E-03 0. -1.
</event>
<event>
 8    1  0.1091347E+005  0.1043930E+01  0.7957747E-01            NaN
         13   -1    0    0    0    0  0.00000000000E+00  0.00000000000E+00  0.74505805969E-08  0.10566000000E+00  0.10566000000E+00 0.  1.
     999900   -1    0    0    0    0 -0.00000000000E+00 -0.00000000000E+00 -0.74505805969E-08  0.93827000000E+00  0.93827000000E+00 0. -1.
     999902    2    1    2    0    0 -0.20469097613E-01 -0.12082831220E-01 -0.31765607879E-02  0.10199493973E+01  0.10196674476E+01 0.  0.
     999903    2    3    3    0    0  0.16412680866E-01 -0.11971780188E+00 -0.47857105473E-01  0.13150024087E+00  0.20007064362E-01 0.  0.
         14    1    1    2    0    0  0.20469097613E-01  0.12082831220E-01  0.31765607879E-02  0.23980602699E-01  0.00000000000E+00 0.  1.
     999901    1    3    3    0    0 -0.36881778479E-01  0.10763497066E+00  0.44680544685E-01  0.88844915643E+00  0.88000000000E+00 0.  1.
        -11    1    4    4    0    0  0.20881416761E-01 -0.88218561357E-01 -0.36007627321E-01  0.97546698971E-01  0.51100000000E-03 0. -1.
         11    1    4    4    0    0 -0.44687358942E-02 -0.31499240522E-01 -0.11849478152E-01  0.33953541898E-01  0.51100000000E-03 0.  1.
</event>
<event>
 8    1  0.1091347E+005  0.1043930E+01  0.7957747E-01            NaN
         13   -1    0    0    0    0  0.00000000000E+00  0.00000000000E+00  0.74505805969E-08  0.10566000000E+00  0.10566000000E+00 0. -1.
     999900   -1    0    0    0    0 -0.00000000000E+00 -0.00000000000E+00 -0.74505805969E-08  0.93827000000E+00  0.93827000000E+00 0. -1.
     999902    2    1    2    0    0 -0.19007945060E-01  0.74710127863E-02 -0.11226656146E-01  0.10206242965E+01  0.10203581718E+01 0.  0.
     999903    2    3    3    0    0  0.10451443487E-01  0.53071340691E-01 -0.11917984148E+00  0.13236693756E+00  0.19783115833E-01 0.  0.
         14    1    1    2    0    0  0.19007945060E-01 -0.74710127863E-02  0.11226656146E-01  0.23305703501E-01  0.00000000000E+00 0. -1.
     999901    1    3    3    0    0 -0.29459388547E-01 -0.45600327904E-01  0.10795318533E+00  0.88825735893E+00  0.88000000000E+00 0.  1.
        -11    1    4    4    0    0  0.10324875501E-01  0.30394031063E-01 -0.88998395696E-01  0.94611710353E-01  0.51100000000E-03 0.  1.
         11    1    4    4    0    0  0.12656798594E-03  0.22677309627E-01 -0.30181445781E-01  0.37755227212E-01  0.51100000000E-03 0. -1.
</event>
<event>
 8    1  0.1091347E+005  0.1043930E+01  0.7957747E-01            NaN
         13   -1    0    0    0    0  0.00000000000E+00  0.00000000000E+00  0.74505805969E-08  0.10566000000E+00  0.10566000000E+00 0. -1.
     999900   -1    0    0    0    0 -0.00000000000E+00 -0.00000000000E+00 -0.74505805969E-08  0.93827000000E+00  0.93827000000E+00 0.  1.
     999902    2    1    2    0    0  0.80213576930E-02  0.16774602767E-01  0.12900725204E-01  0.10212990878E+01  0.10210483184E+01 0.  0.
     999903    2    3    3    0    0 -0.61647003677E-02  0.10030833772E+00 -0.83237258693E-01  0.13201755695E+00  0.20010696194E-01 0.  0.
         14    1    1    2    0    0 -0.80213576930E-02 -0.16774602767E-01 -0.12900725204E-01  0.22630912222E-01  0.00000000000E+00 0.  1.
     999901    1    3    3    0    0  0.14186058061E-01 -0.83533734954E-01  0.96137983897E-01  0.88928153082E+00  0.88000000000E+00 0. -1.
        -11    1    4    4    0    0 -0.37072167741E-02  0.38351571723E-01 -0.44673263297E-01  0.58996170083E-01  0.51100000000E-03 0. -1.
         11    1    4    4    0    0 -0.24574835936E-02  0.61956765998E-01 -0.38563995396E-01  0.73021386870E-01  0.51100000000E-03 0.  1.
</event>
<event>
 8    1  0.1091347E+005  0.1043930E+01  0.7957747E-01            NaN
         13   -1    0    0    0    0  0.00000000000E+00  0.00000000000E+00  0.74505805969E-08  0.10566000000E+00  0.10566000000E+00 0.  1.
     999900   -1    0    0    0    0 -0.00000000000E+00 -0.00000000000E+00 -0.74505805969E-08  0.93827000000E+00  0.93827000000E+00 0.  1.
     999902    2    1    2    0    0 -0.15110471462E-01 -0.15503705657E-02  0.18562226089E-01  0.10199448747E+01  0.10196628174E+01 0.  0.
     999903    2    3    3    0    0 -0.10074854649E+00  0.47186140405E-01  0.70102712713E-01  0.13294681997E+00  0.19587372057E-01 0.  0.
         14    1    1    2    0    0  0.15110471462E-01  0.15503705657E-02 -0.18562226089E-01  0.23985125267E-01  0.00000000000E+00 0. -1.
     999901    1    3    3    0    0  0.85638075025E-01 -0.48736510971E-01 -0.51540486624E-01  0.88699805477E+00  0.88000000000E+00 0.  1.
        -11    1    4    4    0    0 -0.86995469952E-01  0.32597385071E-01  0.58012683753E-01  0.10952868986E+00  0.51100000000E-03 0.  1.
         11    1    4    4    0    0 -0.13753076536E-01  0.14588755334E-01  0.12090028960E-01  0.23418130106E-01  0.51100000000E-03 0. -1.
</event>
<event>
 8    1  0.1091347E+005  0.1043930E+01  0.7957747E-01            NaN
         13   -1    0    0    0    0  0.00000000000E+00  0.00000000000E+00  0.74505805969E-08  0.10566000000E+00  0.10566000000E+00 0. -1.
     999900   -1    0    0    0    0 -0.00000000000E+00 -0.00000000000E+00 -0.74505805969E-08  0.93827000000E+00  0.93827000000E+00 0. -1.
     999902    2    1    2    0    0 -0.11490268804E-01 -0.16568973157E-01  0.12532434109E-01  0.10201893376E+01  0.10199130676E+01 0.  0.
     999903    2    3    3    0    0 -0.86588040939E-02 -0.63804264887E-01 -0.11161073535E+00  0.13021702534E+00  0.18803147036E-01 0.  0.
         14    1    1    2    0    0  0.11490268804E-01  0.16568973157E-01 -0.12532434109E-01  0.23740662446E-01  0.00000000000E+00 0.  1.
     999901    1    3    3    0    0 -0.28314647102E-02  0.47235291729E-01  0.12414316946E+00  0.88997231221E+00  0.88000000000E+00 0.  1.
        -11    1    4    4    0    0  0.38666876066E-02 -0.39866652749E-01 -0.66686649224E-01  0.77792490513E-01  0.51100000000E-03 0. -1.
         11    1    4    4    0    0 -0.12525491700E-01 -0.23937612138E-01 -0.44924086124E-01  0.52424534831E-01  0.51100000000E-03 0.  1.
</event>
<event>
 8    1  0.1091347E+005  0.1043930E+01  0.7957747E-01            NaN
         13   -1    0    0    0    0  0.00000000000E+00  0.00000000000E+00  0.74505805969E-08  0.10566000000E+00  0.10566000000E+00 0.  1.
     999900   -1    0    0    0    0 -0.00000000000E+00 -0.00000000000E+00 -0.74505805969E-08  0.93827000000E+00  0.93827000000E+00 0.  1.
     999902    2    1    2    0    0 -0.18655993185E-02 -0.18386879816E-01 -0.16039828203E-01  0.10194589171E+01  0.10191651729E+01 0.  0.
     999903    2    3    3    0    0 -0.96109069052E-01  0.35049377647E-01 -0.78985717617E-01  0.13058353201E+00  0.18652163877E-01 0.  0.
         14    1    1    2    0    0  0.18655993185E-02  0.18386879816E-01  0.16039828203E-01  0.24471082914E-01  0.00000000000E+00 0. -1.
     999901    1    3    3    0    0  0.94243469734E-01 -0.53436257464E-01  0.62945889414E-01  0.88887538508E+00  0.88000000000E+00 0.  1.
        -11    1    4    4    0    0 -0.34207062283E-01  0.51030764074E-02 -0.33372706412E-01  0.48064156636E-01  0.51100000000E-03 0.  1.
         11    1    4    4    0    0 -0.61902006769E-01  0.29946301240E-01 -0.45613011204E-01  0.82519375374E-01  0.51100000000E-03 0. -1.
</event>
<event>
 8    1  0.1091347E+005  0.1043930E+01  0.7957747E-01            NaN
         13   -1    0    0    0    0  0.00000000000E+00  0.00000000000E+00  0.74505805969E-08  0.10566000000E+00  0.10566000000E+00 0. -1.
     999900   -1    0    0    0    0 -0.00000000000E+00 -0.00000000000E+00 -0.74505805969E-08  0.93827000000E+00  0.93827000000E+00 0. -1.
     999902    2    1    2    0    0  0.39492797495E-02 -0.11608843185E-02  0.26273024142E-01  0.10173364621E+01  0.10169888204E+01 0.  0.
     999903    2    3    3    0    0 -0.10717984856E+00  0.56087830510E-01 -0.31039360330E-01  0.12665593127E+00  0.21093088153E-01 0.  0.
         14    1    1    2    0    0 -0.39492797495E-02  0.11608843185E-02 -0.26273024142E-01  0.26593537946E-01  0.00000000000E+00 0.  1.
     999901    1    3    3    0    0  0.11112912831E+00 -0.57248714828E-01  0.57312384472E-01  0.89068053079E+00  0.88000000000E+00 0. -1.
        -11    1    4    4    0    0 -0.75181617458E-01  0.28115363205E-01 -0.21408791913E-01  0.83074344680E-01  0.51100000000E-03 0.  1.
         11    1    4    4    0    0 -0.31998231098E-01  0.27972467305E-01 -0.96305684164E-02  0.43581586588E-01  0.51100000000E-03 0. -1.
</event>
<event>
 8    1  0.1091347E+005  0.1043930E+01  0.7957747E-01            NaN
         13   -1    0    0    0    0  0.00000000000E+00  0.00000000000E+00  0.74505805969E-08  0.10566000000E+00  0.10566000000E+00 0.  1.
     999900   -1    0    0    0    0 -0.00000000000E+00 -0.00000000000E+00 -0.74505805969E-08  0.93827000000E+00  0.93827000000E+00 0. -1.
     999902    2    1    2    0    0  0.22523711101E-01 -0.81284441876E-02 -0.21855186681E-02  0.10198849244E+01  0.10196014385E+01 0.  0.
     999903    2    3    3    0    0 -0.20258998149E-01  0.12466423336E+00  0.14189156823E-01  0.12874386635E+00  0.20543925264E-01 0.  0.
         14    1    1    2    0    0 -0.22523711101E-01  0.81284441876E-02  0.21855186681E-02  0.24045075557E-01  0.00000000000E+00 0.  1.
     999901    1    3    3    0    0  0.42782709250E-01 -0.13279267755E+00 -0.16374675491E-01  0.89114105809E+00  0.88000000000E+00 0. -1.
        -11    1    4    4    0    0 -0.19117447156E-01  0.91666807781E-01  0.18475471657E-01  0.95445715506E-01  0.51100000000E-03 0.  1.
         11    1    4    4    0    0 -0.11415509926E-02  0.32997425583E-01 -0.42863148344E-02  0.33298150844E-01  0.51100000000E-03 0. -1.
</event>
<event>
 8    1  0.1091347E+005  0.1043930E+01  0.7957747E-01            NaN
         13   -1    0    0    0    0  0.00000000000E+00  0.00000000000E+00  0.74505805969E-08  0.10566000000E+00  0.10566000000E+00 0. -1.
     999900   -1    0    0    0    0 -0.00000000000E+00 -0.00000000000E+00 -0.74505805969E-08  0.93827000000E+00  0.93827000000E+00 0. -1.
     999902    2    1    2    0    0 -0.45125261127E-02 -0.19296188624E-01  0.12543806469E-01  0.10204767941E+01  0.10202072507E+01 0.  0.
     999903    2    3    3    0    0 -0.43614702758E-01  0.11927900265E+00  0.92295627771E-02  0.12876885531E+00  0.19144463927E-01 0.  0.
         14    1    1    2    0    0  0.45125261127E-02  0.19296188624E-01 -0.12543806469E-01  0.23453205922E-01  0.00000000000E+00 0. -1.
     999901    1    3    3    0    0  0.39102176645E-01 -0.13857519127E+00  0.33142436915E-02  0.89170793877E+00  0.88000000000E+00 0.  1.
        -11    1    4    4    0    0 -0.24547325452E-01  0.85355500025E-01  0.20003836636E-03  0.88816854863E-01  0.51100000000E-03 0.  1.
         11    1    4    4    0    0 -0.19067377305E-01  0.33923502623E-01  0.90295244107E-02  0.39952000445E-01  0.51100000000E-03 0. -1.
</event>
<event>
 8    1  0.1091347E+005  0.1043930E+01  0.7957747E-01            NaN
         13   -1    0    0    0    0  0.00000000000E+00  0.00000000000E+00  0.74505805969E-08  0.10566000000E+00  0.10566000000E+00 0. -1.
     999900   -1    0    0    0    0 -0.00000000000E+00 -0.00000000000E+00 -0.74505805969E-08  0.93827000000E+00  0.93827000000E+00 0. -1.
     999902    2    1    2    0    0  0.35807347161E-02  0.20087581143E-01 -0.81664788426E-02  0.10219521941E+01  0.10217158426E+01 0.  0.
     999903    2    3    3    0    0  0.33056359570E-01 -0.97166881677E-02 -0.12653388160E+00  0.13303827867E+00  0.22388020505E-01 0.  0.
         14    1    1    2    0    0 -0.35807347161E-02 -0.20087581143E-01  0.81664788426E-02  0.21977805941E-01  0.00000000000E+00 0. -1.
     999901    1    3    3    0    0 -0.29475624854E-01  0.29804269311E-01  0.11836740276E+00  0.88891391539E+00  0.88000000000E+00 0.  1.
        -11    1    4    4    0    0  0.23903382159E-01  0.16325273581E-02 -0.54411186402E-01  0.59454816045E-01  0.51100000000E-03 0. -1.
         11    1    4    4    0    0  0.91529774110E-02 -0.11349215526E-01 -0.72122695200E-01  0.73583462629E-01  0.51100000000E-03 0.  1.
</event>
<event>
 8    1  0.1091347E+005  0.1043930E+01  0.7957747E-01            NaN
         13   -1    0    0    0    0  0.00000000000E+00  0.00000000000E+00  0.74505805969E-08  0.10566000000E+00  0.10566000000E+00 0. -1.
     999900   -1    0    0    0    0 -0.00000000000E+00 -0.00000000000E+00 -0.74505805969E-08  0.93827000000E+00  0.93827000000E+00 0.  1.
     999902    2    1    2    0    0  0.16710458122E-01  0.17173187942E-01 -0.70292167249E-02  0.10189586628E+01  0.10186526340E+01 0.  0.
     999903    2    3    3    0    0 -0.59181646259E-01  0.10473230466E+00  0.44449278113E-01  0.12987135219E+00  0.20481867637E-01 0.  0.
         14    1    1    2    0    0 -0.16710458122E-01 -0.17173187942E-01  0.70292167249E-02  0.24971337219E-01  0.00000000000E+00 0.  1.
     999901    1    3    3    0    0  0.75892104381E-01 -0.87559116713E-01 -0.51478494838E-01  0.88908731059E+00  0.88000000000E+00 0.  1.
        -11    1    4    4    0    0 -0.35857172861E-01  0.43474842607E-01  0.23443140407E-01  0.61038026987E-01  0.51100000000E-03 0.  1.
         11    1    4    4    0    0 -0.23324473398E-01  0.61257462048E-01  0.21006137706E-01  0.68833325201E-01  0.51100000000E-03 0. -1.
</event>
<event>
 8    1  0.1091347E+005  0.1043930E+01  0.7957747E-01            NaN
         13   -1    0    0    0    0  0.00000000000E+00  0.00000000000E+00  0.74505805969E-08  0.10566000000E+00  0.10566000000E+00 0.  1.
     999900   -1    0    0    0    0 -0.00000000000E+00 -0.00000000000E+00 -0.74505805969E-08  0.93827000000E+00  0.93827000000E+00 0. -1.
     999902    2    1    2    0    0 -0.30329846582E-02  0.23013840875E-01 -0.16253475689E-02  0.10206603283E+01  0.10203950353E+01 0.  0.
     999903    2    3    3    0    0  0.85840629375E-01  0.80968255339E-01 -0.57279117559E-01  0.13254176887E+00  0.19025014158E-01 0.  0.
         14    1    1    2    0    0  0.30329846582E-02 -0.23013840875E-01  0.16253475689E-02  0.23269671731E-01  0.00000000000E+00 0.  1.
     999901    1    3    3    0    0 -0.88873614034E-01 -0.57954414464E-01  0.55653769990E-01  0.88811855939E+00  0.88000000000E+00 0.  1.
        -11    1    4    4    0    0  0.70992687203E-01  0.65222357677E-01 -0.38244215302E-01  0.10371498784E+00  0.51100000000E-03 0.  1.
         11    1    4    4    0    0  0.14847942172E-01  0.15745897662E-01 -0.19034902257E-01  0.28826781036E-01  0.51100000000E-03 0. -1.
</event>
<event>
 8    1  0.1091347E+005  0.1043930E+01  0.7957747E-01            NaN
         13   -1    0    0    0    0  0.00000000000E+00  0.00000000000E+00  0.74505805969E-08  0.10566000000E+00  0.10566000000E+00 0.  1.
     999900   -1    0    0    0    0 -0.00000000000E+00 -0.00000000000E+00 -0.74505805969E-08  0.93827000000E+00  0.93827000000E+00 0.  1.
     999902    2    1    2    0    0  0.19379125860E-02  0.23693192281E-01  0.50900354689E-02  0.10196188641E+01  0.10193289934E+01 0.  0.
     999903    2    3    3    0    0  0.50272915256E-01 -0.67903194369E-01 -0.93993191810E-01  0.12802273558E+00  0.20417906499E-01 0.  0.
         14    1    1    2    0    0 -0.19379125860E-02 -0.23693192281E-01 -0.50900354689E-02  0.24311135859E-01  0.00000000000E+00 0.  1.
     999901    1    3    3    0    0 -0.48335002670E-01  0.91596386650E-01  0.99083227279E-01  0.89159612856E+00  0.88000000000E+00 0. -1.
        -11    1    4    4    0    0  0.33863745663E-02 -0.10087713557E-01 -0.43636694815E-02  0.11512264324E-01  0.51100000000E-03 0.  1.
         11    1    4    4    0    0  0.46886540690E-01 -0.57815480812E-01 -0.89629522329E-01  0.11651047126E+00  0.51100000000E-03 0. -1.
</event>
<event>
 8    1  0.1091347E+005  0.1043930E+01  0.7957747E-01            NaN
         13   -1    0    0    0    0  0.00000000000E+00  0.00000000000E+00  0.74505805969E-08  0.10566000000E+00  0.10566000000E+00 0.  1.
     999900   -1    0    0    0    0 -0.00000000000E+00 -0.00000000000E+00 -0.74505805969E-08  0.93827000000E+00  0.93827000000E+00 0. -1.
     999902    2    1    2    0    0 -0.62277928180E-02  0.12453888258E-01  0.19765439320E-01  0.10197523796E+01  0.10194657220E+01 0.  0.
     999903    2    3    3    0    0 -0.75711434995E-01 -0.46243520816E-01 -0.90590804580E-01  0.12820772962E+00  0.18969540145E-01 0.  0.
         14    1    1    2    0    0  0.62277928180E-02 -0.12453888258E-01 -0.19765439320E-01  0.24177620388E-01  0.00000000000E+00 0. -1.
     999901    1    3    3    0    0  0.69483642177E-01  0.58697409073E-01  0.11035624390E+00  0.89154464999E+00  0.88000000000E+00 0.  1.
        -11    1    4    4    0    0 -0.89269344191E-02 -0.13667927568E-01 -0.14281687301E-01  0.21696315707E-01  0.51100000000E-03 0.  1.
         11    1    4    4    0    0 -0.66784500576E-01 -0.32575593248E-01 -0.76309117279E-01  0.10651141391E+00  0.51100000000E-03 0. -1.
</event>
<event>
 8    1  0.1091347E+005  0.1043930E+01  0.7957747E-01            NaN
         13   -1    0    0    0    0  0.00000000000E+00  0.00000000000E+00  0.74505805969E-08  0.10566000000E+00  0.10566000000E+00 0.  1.
     999900   -1    0    0    0    0 -0.00000000000E+00 -0.00000000000E+00 -0.74505805969E-08  0.93827000000E+00  0.93827000000E+00 0. -1.
     999902    2    1    2    0    0  0.15816053388E-01 -0.13836014531E-01  0.11994374343E-01  0.10197339702E+01  0.10194468707E+01 0.  0.
     999903    2    3    3    0    0 -0.63769008588E-01 -0.16590526923E-01  0.11103324444E+00  0.13060514531E+00  0.19687320066E-01 0.  0.
         14    1    1    2    0    0 -0.15816053388E-01  0.13836014531E-01 -0.11994374343E-01  0.24196029814E-01  0.00000000000E+00 0. -1.
     999901    1    3    3    0    0  0.79585061976E-01  0.27545123921E-02 -0.99038870099E-01  0.88912882487E+00  0.88000000000E+00 0. -1.
        -11    1    4    4    0    0 -0.26564146540E-01 -0.16950121756E-01  0.53264310256E-01  0.61889485190E-01  0.51100000000E-03 0. -1.
         11    1    4    4    0    0 -0.37204862047E-01  0.35959483309E-03  0.57768934185E-01  0.68715660124E-01  0.51100000000E-03 0.  1.
</event>
<event>
 8    1  0.1219588E+005  0.1043930E+01  0.7957747E-01            NaN
         13   -1    0    0    0    0  0.00000000000E+00  0.00000000000E+00  0.74505805969E-08  0.10566000000E+00  0.10566000000E+00 0.  1.
     999900   -1    0    0    0    0 -0.00000000000E+00 -0.00000000000E+00 -0.74505805969E-08  0.93827000000E+00  0.93827000000E+00 0. -1.
     999902    2    1    2    0    0 -0.11806487003E-01 -0.45298624091E-03  0.21306355235E-01  0.10195669315E+01  0.10192758060E+01 0.  0.
     999903    2    3    3    0    0 -0.92469313394E-01  0.72248728413E-01 -0.51970323773E-01  0.12986950962E+00  0.19867619329E-01 0.  0.
         14    1    1    2    0    0  0.11806487003E-01  0.45298624091E-03 -0.21306355235E-01  0.24363068470E-01  0.00000000000E+00 0. -1.
     999901    1    3    3    0    0  0.80662826391E-01 -0.72701714654E-01  0.73276679008E-01  0.88969742191E+00  0.88000000000E+00 0.  1.
        -11    1    4    4    0    0 -0.28145090303E-01  0.33993721172E-01 -0.20903512365E-01  0.48835818182E-01  0.51100000000E-03 0.  1.
         11    1    4    4    0    0 -0.64324223091E-01  0.38255007241E-01 -0.31066811408E-01  0.81033691434E-01  0.51100000000E-03 0. -1.
</event>
<event>
 8    1  0.1091347E+005  0.1043930E+01  0.7957747E-01            NaN
         13   -1    0    0    0    0  0.00000000000E+00  0.00000000000E+00  0.74505805969E-08  0.10566000000E+00  0.10566000000E+00 0.  1.
     999900   -1    0    0    0    0 -0.00000000000E+00 -0.00000000000E+00 -0.74505805969E-08  0.93827000000E+00  0.93827000000E+00 0. -1.
     999902    2    1    2    0    0 -0.23241224693E-01  0.80745542112E-02  0.12421043974E-02  0.10192947453E+01  0.10189969980E+01 0.  0.
     999903    2    3    3    0    0 -0.85634823933E-01  0.21663658362E-01  0.95924503676E-01  0.13191524265E+00  0.19936992640E-01 0.  0.
         14    1    1    2    0    0  0.23241224693E-01 -0.80745542112E-02 -0.12421043974E-02  0.24635254703E-01  0.00000000000E+00 0.  1.
     999901    1    3    3    0    0  0.62393599240E-01 -0.13589104151E-01 -0.94682399278E-01  0.88737950264E+00  0.88000000000E+00 0. -1.
        -11    1    4    4    0    0 -0.27928950708E-01  0.15277749479E-01  0.26591882785E-01  0.41482831001E-01  0.51100000000E-03 0. -1.
         11    1    4    4    0    0 -0.57705873225E-01  0.63859088830E-02  0.69332620891E-01  0.90432411654E-01  0.51100000000E-03 0.  1.
</event>
<event>
 8    1  0.1091347E+005  0.1043930E+01  0.7957747E-01            NaN
         13   -1    0    0    0    0  0.00000000000E+00  0.00000000000E+00  0.74505805969E-08  0.10566000000E+00  0.10566000000E+00 0.  1.
     999900   -1    0    0    0    0 -0.00000000000E+00 -0.00000000000E+00 -0.74505805969E-08  0.93827000000E+00  0.93827000000E+00 0. -1.
     999902    2    1    2    0    0  0.12957471362E-01  0.17101173444E-01 -0.96411204456E-02  0.10204077254E+01  0.10201365736E+01 0.  0.
     999903    2    3    3    0    0 -0.12160615971E+00 -0.37999215182E-01 -0.54894149841E-02  0.12846565316E+00  0.15533574363E-01 0.  0.
         14    1    1    2    0    0 -0.12957471362E-01 -0.17101173444E-01  0.96411204456E-02  0.23522274565E-01  0.00000000000E+00 0.  1.
     999901    1    3    3    0    0  0.13456363107E+00  0.55100388626E-01 -0.41517054615E-02  0.89194207227E+00  0.88000000000E+00 0. -1.
        -11    1    4    4    0    0 -0.96196339860E-01 -0.24250364268E-01 -0.75678958929E-02  0.99495477982E-01  0.51100000000E-03 0.  1.
         11    1    4    4    0    0 -0.25409819846E-01 -0.13748850914E-01  0.20784809088E-02  0.28970175180E-01  0.51100000000E-03 0. -1.
</event>
<event>
 8    1  0.1091347E+005  0.1043930E+01  0.7957747E-01            NaN
         13   -1    0    0    0    0  0.00000000000E+00  0.00000000000E+00  0.74505805969E-08  0.10566000000E+00  0.10566000000E+00 0.  1.
     999900   -1    0    0    0    0 -0.00000000000E+00 -0.00000000000E+00 -0.74505805969E-08  0.93827000000E+00  0.93827000000E+00 0. -1.
     999902    2    1    2    0    0 -0.11890119719E-01 -0.10308623917E-01 -0.16541375863E-01  0.10210988855E+01  0.10208436091E+01 0.  0.
     999903    2    3    3    0    0 -0.58398466190E-01  0.10815881608E+00  0.38213082115E-01  0.13025905068E+00  0.19961720606E-01 0.  0.
         14    1    1    2    0    0  0.11890119719E-01  0.10308623917E-01  0.16541375863E-01  0.22831114503E-01  0.00000000000E+00 0.  1.
     999901    1    3    3    0    0  0.46508346472E-01 -0.11846744000E+00 -0.54754457979E-01  0.89083983482E+00  0.88000000000E+00 0. -1.
        -11    1    4    4    0    0 -0.24483931511E-01  0.26940508188E-01  0.87739373856E-02  0.37449926327E-01  0.51100000000E-03 0.  1.
         11    1    4    4    0    0 -0.33914534680E-01  0.81218307893E-01  0.29439144730E-01  0.92809124352E-01  0.51100000000E-03 0. -1.
</event>
<event>
 8    1  0.1091347E+005  0.1043930E+01  0.7957747E-01            NaN
         13   -1    0    0    0    0  0.00000000000E+00  0.00000000000E+00  0.74505805969E-08  0.10566000000E+00  0.10566000000E+00 0.  1.
     999900   -1    0    0    0    0 -0.00000000000E+00 -0.00000000000E+00 -0.74505805969E-08  0.93827000000E+00  0.93827000000E+00 0. -1.
     999902    2    1    2    0    0  0.15371807569E-01  0.16855042637E-01  0.50151631540E-02  0.10205732710E+01  0.10203059662E+01 0.  0.
     999903    2    3    3    0    0 -0.56513745039E-01 -0.11077334406E+00  0.24697660964E-01  0.12824825254E+00  0.19315866276E-01 0.  0.
         14    1    1    2    0    0 -0.15371807569E-01 -0.16855042637E-01 -0.50151631540E-02  0.23356729045E-01  0.00000000000E+00 0. -1.
     999901    1    3    3    0    0  0.71885552607E-01  0.12762838670E+00 -0.19682497810E-01  0.89232501841E+00  0.88000000000E+00 0. -1.
        -11    1    4    4    0    0 -0.97754115160E-02 -0.37049266124E-01  0.11157819835E-01  0.39911963809E-01  0.51100000000E-03 0.  1.
         11    1    4    4    0    0 -0.46738333523E-01 -0.73724077938E-01  0.13539841130E-01  0.88336288733E-01  0.51100000000E-03 0. -1.
</event>
<event>
 8    1  0.1091347E+005  0.1043930E+01  0.7957747E-01            NaN
         13   -1    0    0    0    0  0.00000000000E+00  0.00000000000E+00  0.74505805969E-08  0.10566000000E+00  0.10566000000E+00 0.  1.
     999900   -1    0    0    0    0 -0.00000000000E+00 -0.00000000000E+00 -0.74505805969E-08  0.93827000000E+00  0.93827000000E+00 0. -1.
     999902    2    1    2    0    0  0.17021888277E-01  0.11683587186E-01  0.11520871436E-01  0.10202872132E+01  0.10200132431E+01 0.  0.
     999903    2    3    3    0    0  0.59621886529E-01  0.11427599685E+00  0.27344669856E-01  0.13316244463E+00  0.19254424997E-01 0.  0.
         14    1    1    2    0    0 -0.17021888277E-01 -0.11683587186E-01 -0.11520871436E-01  0.23642786822E-01  0.00000000000E+00 0. -1.
     999901    1    3    3    0    0 -0.42599998251E-01 -0.10259240966E+00 -0.15823798420E-01  0.88712476855E+00  0.88000000000E+00 0. -1.
        -11    1    4    4    0    0  0.27188646993E-01  0.56298437267E-01  0.22883241979E-01  0.66578077837E-01  0.51100000000E-03 0.  1.
         11    1    4    4    0    0  0.32433239536E-01  0.57977559581E-01  0.44614278766E-02  0.66584366795E-01  0.51100000000E-03 0. -1.
</event>
<event>
 8    1  0.1091347E+005  0.1043930E+01  0.7957747E-01            NaN
         13   -1    0    0    0    0  0.00000000000E+00  0.00000000000E+00  0.74505805969E-08  0.10566000000E+00  0.10566000000E+00 0.  1.
     999900   -1    0    0    0    0 -0.00000000000E+00 -0.00000000000E+00 -0.74505805969E-08  0.93827000000E+00  0.93827000000E+00 0.  1.
     999902    2    1    2    0    0 -0.21760966928E-01 -0.79923348065E-02  0.68420265843E-02  0.10197591410E+01  0.10194726456E+01 0.  0.
     999903    2    3    3    0    0  0.40469095014E-01  0.55437296487E-01 -0.10647180908E+00  0.12805519680E+00  0.18730878408E-01 0.  0.
         14    1    1    2    0    0  0.21760966928E-01  0.79923348065E-02 -0.68420265843E-02  0.24170859006E-01  0.00000000000E+00 0. -1.
     999901    1    3    3    0    0 -0.62230061942E-01 -0.63429631294E-01  0.11331383566E+00  0.89170394419E+00  0.88000000000E+00 0. -1.
        -11    1    4    4    0    0  0.18362683691E-01  0.20936776734E-01 -0.27811485397E-01  0.39360851278E-01  0.51100000000E-03 0.  1.
         11    1    4    4    0    0  0.22106411323E-01  0.34500519753E-01 -0.78660323684E-01  0.88694345523E-01  0.51100000000E-03 0. -1.
</event>
<event>
 8    1  0.1091347E+005  0.1043930E+01  0.7957747E-01            NaN
         13   -1    0    0    0    0  0.00000000000E+00  0.00000000000E+00  0.74505805969E-08  0.10566000000E+00  0.10566000000E+00 0. -1.
     999900   -1    0    0    0    0 -0.00000000000E+00 -0.00000000000E+00 -0.74505805969E-08  0.93827000000E+00  0.93827000000E+00 0. -1.
     999902    2    1    2    0    0 -0.58389451129E-02 -0.82164726894E-02 -0.21855523528E-01  0.10198620210E+01  0.10195779883E+01 0.  0.
     999903    2    3    3    0    0  0.54660462709E-01  0.59097014439E-01  0.96546071361E-01  0.12733178536E+00  0.20298186338E-01 0.  0.
         14    1    1    2    0    0  0.58389451129E-02  0.82164726894E-02  0.21855523528E-01  0.24067978979E-01  0.00000000000E+00 0. -1.
     999901    1    3    3    0    0 -0.60499407822E-01 -0.67313487129E-01 -0.11840159489E+00  0.89253023566E+00  0.88000000000E+00 0. -1.
        -11    1    4    4    0    0  0.27546853341E-01  0.32325495655E-01  0.35440408597E-01  0.55317723026E-01  0.51100000000E-03 0.  1.
         11    1    4    4    0    0  0.27113609368E-01  0.26771518784E-01  0.61105662764E-01  0.72014062334E-01  0.51100000000E-03 0. -1.
</event>
<event>
 8    1  0.1091347E+005  0.1043930E+01  0.7957747E-01            NaN
         13   -1    0    0    0    0  0.00000000000E+00  0.00000000000E+00  0.74505805969E-08  0.10566000000E+00  0.10566000000E+00 0.  1.
     999900   -1    0    0    0    0 -0.00000000000E+00 -0.00000000000E+00 -0.74505805969E-08  0.93827000000E+00  0.93827000000E+00 0. -1.
     999902    2    1    2    0    0  0.14416101749E-01 -0.98340472954E-02 -0.15872220650E-01  0.10203405985E+01  0.10200678786E+01 0.  0.
     999903    2    3    3    0    0  0.71692059262E-01  0.67708431923E-01  0.82008165658E-01  0.12968132501E+00  0.19176123349E-01 0.  0.
         14    1    1    2    0    0 -0.14416101749E-01  0.98340472954E-02  0.15872220650E-01  0.23589401523E-01  0.00000000000E+00 0.  1.
     999901    1    3    3    0    0 -0.57275957513E-01 -0.77542479218E-01 -0.97880386308E-01  0.89065927347E+00  0.88000000000E+00 0. -1.
        -11    1    4    4    0    0  0.14040009123E-01  0.97093724559E-02  0.23835558349E-01  0.29322154295E-01  0.51100000000E-03 0.  1.
         11    1    4    4    0    0  0.57652050139E-01  0.57999059467E-01  0.58172607309E-01  0.10035917071E+00  0.51100000000E-03 0. -1.
</event>
<event>
 8    1  0.1091347E+005  0.1043930E+01  0.7957747E-01            NaN
         13   -1    0    0    0    0  0.00000000000E+00  0.00000000000E+00  0.74505805969E-08  0.10566000000E+00  0.10566000000E+00 0. -1.
     999900   -1    0    0    0    0 -0.00000000000E+00 -0.00000000000E+00 -0.74505805969E-08  0.93827000000E+00  0.93827000000E+00 0. -1.
     999902    2    1    2    0    0  0.19000512301E-01  0.60277674184E-02 -0.13717281704E-01  0.10197325360E+01  0.10194454020E+01 0.  0.
     999903    2    3    3    0    0 -0.12999225838E-01  0.11129503851E+00  0.63118439932E-01  0.12955900811E+00  0.15685459889E-01 0.  0.
         14    1    1    2    0    0 -0.19000512301E-01 -0.60277674184E-02  0.13717281704E-01  0.24197464022E-01  0.00000000000E+00 0.  1.
     999901    1    3    3    0    0  0.31999738139E-01 -0.10526727109E+00 -0.76835721636E-01  0.89017352787E+00  0.88000000000E+00 0. -1.
        -11    1    4    4    0    0 -0.12874877548E-01  0.58778920836E-01  0.39449693918E-01  0.71953203388E-01  0.51100000000E-03 0. -1.
         11    1    4    4    0    0 -0.12434829025E-03  0.52516117677E-01  0.23668746014E-01  0.57605804718E-01  0.51100000000E-03 0.  1.
</event>
<event>
 8    1  0.1091347E+005  0.1043930E+01  0.7957747E-01            NaN
         13   -1    0    0    0    0  0.00000000000E+00  0.00000000000E+00  0.74505805969E-08  0.10566000000E+00  0.10566000000E+00 0. -1.
     999900   -1    0    0    0    0 -0.00000000000E+00 -0.00000000000E+00 -0.74505805969E-08  0.93827000000E+00  0.93827000000E+00 0. -1.
     999902    2    1    2    0    0  0.36960935958E-02  0.24755844032E-01  0.47320183852E-02  0.10184563878E+01  0.10181377652E+01 0.  0.
     999903    2    3    3    0    0  0.51763928579E-02  0.22437917236E-01 -0.12525236005E+00  0.12890397071E+00  0.19945545753E-01 0.  0.
         14    1    1    2    0    0 -0.36960935958E-02 -0.24755844032E-01 -0.47320183852E-02  0.25473612222E-01  0.00000000000E+00 0. -1.
     999901    1    3    3    0    0 -0.14802992621E-02  0.23179267969E-02  0.12998437843E+00  0.88955241707E+00  0.88000000000E+00 0.  1.
        -11    1    4    4    0    0 -0.36328503054E-02 -0.21823239052E-02 -0.20051759166E-01  0.20501080596E-01  0.51100000000E-03 0. -1.
         11    1    4    4    0    0  0.88092431634E-02  0.24620241141E-01 -0.10520060088E+00  0.10840289012E+00  0.51100000000E-03 0.  1.
</event>
<event>
 8    1  0.1091347E+005  0.1043930E+01  0.7957747E-01            NaN
         13   -1    0    0    0    0  0.00000000000E+00  0.00000000000E+00  0.74505805969E-08  0.10566000000E+00  0.10566000000E+00 0. -1.
     999900   -1    0    0    0    0 -0.00000000000E+00 -0.00000000000E+00 -0.74505805969E-08  0.93827000000E+00  0.93827000000E+00 0. -1.
     999902    2    1    2    0    0 -0.18135264378E-01  0.97492730314E-02  0.11929306260E-01  0.10201341078E+01  0.10198565357E+01 0.  0.
     999903    2    3    3    0    0  0.22037803851E-01 -0.11320183395E+00  0.55634052709E-01  0.12960563829E+00  0.20053768899E-01 0.  0.
         14    1    1    2    0    0  0.18135264378E-01 -0.97492730314E-02 -0.11929306260E-01  0.23795892220E-01  0.00000000000E+00 0. -1.
     999901    1    3    3    0    0 -0.40173068229E-01  0.12295110698E+00 -0.43704746449E-01  0.89052846949E+00  0.88000000000E+00 0. -1.
        -11    1    4    4    0    0  0.15007333740E-01 -0.82904025987E-01  0.50060906950E-01  0.98003332170E-01  0.51100000000E-03 0. -1.
         11    1    4    4    0    0  0.70304701107E-02 -0.30297807959E-01  0.55731457593E-02  0.31602306115E-01  0.51100000000E-03 0.  1.
</event>
<event>
 8    1  0.1091347E+005  0.1043930E+01  0.7957747E-01            NaN
         13   -1    0    0    0    0  0.00000000000E+00  0.00000000000E+00  0.74505805969E-08  0.10566000000E+00  0.10566000000E+00 0. -1.
     999900   -1    0    0    0    0 -0.00000000000E+00 -0.00000000000E+00 -0.74505805969E-08  0.93827000000E+00  0.93827000000E+00 0. -1.
     999902    2    1    2    0    0  0.21673591867E-01  0.96957622283E-02 -0.39715290843E-02  0.10198566655E+01  0.10195725049E+01 0.  0.
     999903    2    3    3    0    0 -0.36624964280E-01  0.88590844869E-01 -0.86423622879E-01  0.13057521205E+00  0.19776693559E-01 0.  0.
         14    1    1    2    0    0 -0.21673591867E-01 -0.96957622283E-02  0.39715290843E-02  0.24073334477E-01  0.00000000000E+00 0. -1.
     999901    1    3    3    0    0  0.58298556147E-01 -0.78895082640E-01  0.82452093795E-01  0.88928145347E+00  0.88000000000E+00 0. -1.
        -11    1    4    4    0    0 -0.95759534360E-02  0.17092535110E-01 -0.28836540933E-01  0.34866328380E-01  0.51100000000E-03 0. -1.
         11    1    4    4    0    0 -0.27049010844E-01  0.71498309759E-01 -0.57587081946E-01  0.95708883674E-01  0.51100000000E-03 0.  1.
</event>
<event>
 8    1  0.1091347E+005  0.1043930E+01  0.7957747E-01            NaN
         13   -1    0    0    0    0  0.00000000000E+00  0.00000000000E+00  0.74505805969E-08  0.10566000000E+00  0.10566000000E+00 0.  1.
     999900   -1    0    0    0    0 -0.00000000000E+00 -0.00000000000E+00 -0.74505805969E-08  0.93827000000E+00  0.93827000000E+00 0.  1.
     999902    2    1    2    0    0  0.54249847116E-02  0.27613325690E-02 -0.23351842213E-01  0.10197977819E+01  0.10195122128E+01 0.  0.
     999903    2    3    3    0    0  0.78269473596E-01  0.90615337395E-01 -0.51375579256E-01  0.13198587862E+00  0.21061152487E-01 0.  0.
         14    1    1    2    0    0 -0.54249847116E-02 -0.27613325690E-02  0.23351842213E-01  0.24132218121E-01  0.00000000000E+00 0.  1.
     999901    1    3    3    0    0 -0.72844488884E-01 -0.87854004825E-01  0.28023737042E-01  0.88781190326E+00  0.88000000000E+00 0.  1.
        -11    1    4    4    0    0  0.34041750392E-01  0.46241623304E-01 -0.14269213654E-01  0.59169249402E-01  0.51100000000E-03 0.  1.
         11    1    4    4    0    0  0.44227723203E-01  0.44373714091E-01 -0.37106365601E-01  0.72816629221E-01  0.51100000000E-03 0. -1.
</event>
<event>
 8    1  0.1091347E+005  0.1043930E+01  0.7957747E-01            NaN
         13   -1    0    0    0    0  0.00000000000E+00  0.00000000000E+00  0.74505805969E-08  0.10566000000E+00  0.10566000000E+00 0. -1.
     999900   -1    0    0    0    0 -0.00000000000E+00 -0.00000000000E+00 -0.74505805969E-08  0.93827000000E+00  0.93827000000E+00 0. -1.
     999902    2    1    2    0    0  0.20368039493E-01 -0.49306493487E-02  0.34467593445E-02  0.10226920979E+01  0.10224715539E+01 0.  0.
     999903    2    3    3    0    0 -0.11957959839E+00 -0.39872810194E-01  0.28087132463E-01  0.13060833280E+00  0.19507133129E-01 0.  0.
         14    1    1    2    0    0 -0.20368039493E-01  0.49306493487E-02 -0.34467593445E-02  0.21237902104E-01  0.00000000000E+00 0. -1.
     999901    1    3    3    0    0  0.13994763789E+00  0.34942160845E-01 -0.24640373118E-01  0.89208376509E+00  0.88000000000E+00 0.  1.
        -11    1    4    4    0    0 -0.41047731691E-01 -0.12386530288E-01  0.19030365268E-01  0.46912240757E-01  0.51100000000E-03 0. -1.
         11    1    4    4    0    0 -0.78531866703E-01 -0.27486279906E-01  0.90567671944E-02  0.83696092047E-01  0.51100000000E-03 0.  1.
</event>
<event>
 8    1  0.1091347E+005  0.1043930E+01  0.7957747E-01            NaN
         13   -1    0    0    0    0  0.00000000000E+00  0.00000000000E+00  0.74505805969E-08  0.10566000000E+00  0.10566000000E+00 0. -1.
     999900   -1    0    0    0    0 -0.00000000000E+00 -0.00000000000E+00 -0.74505805969E-08  0.93827000000E+00  0.93827000000E+00 0.  1.
     999902    2    1    2    0    0  0.15768206782E-01 -0.20658730404E-01 -0.96940755715E-03  0.10179230925E+01  0.10175908131E+01 0.  0.
     999903    2    3    3    0    0  0.11459495632E+00  0.45833807731E-01  0.32714107021E-01  0.12925973486E+00  0.20127700096E-01 0.  0.
         14    1    1    2    0    0 -0.15768206782E-01  0.20658730404E-01  0.96940755715E-03  0.26006907506E-01  0.00000000000E+00 0. -1.
     999901    1    3    3    0    0 -0.98826749541E-01 -0.66492538135E-01 -0.33683514579E-01  0.88866335764E+00  0.88000000000E+00 0.  1.
        -11    1    4    4    0    0  0.68941944342E-01  0.30310738936E-01  0.10062206321E-01  0.75981851132E-01  0.51100000000E-03 0. -1.
         11    1    4    4    0    0  0.45653011982E-01  0.15523068795E-01  0.22651900700E-01  0.53277883724E-01  0.51100000000E-03 0.  1.
</event>
<event>
 8    1  0.1091347E+005  0.1043930E+01  0.7957747E-01            NaN
         13   -1    0    0    0    0  0.00000000000E+00  0.00000000000E+00  0.74505805969E-08  0.10566000000E+00  0.10566000000E+00 0. -1.
     999900   -1    0    0    0    0 -0.00000000000E+00 -0.00000000000E+00 -0.74505805969E-08  0.93827000000E+00  0.93827000000E+00 0.  1.
     999902    2    1    2    0    0 -0.13743635302E-01  0.17655569404E-01 -0.62683635742E-02  0.10206942727E+01  0.10204297620E+01 0.  0.
     999903    2    3    3    0    0  0.88388679066E-01 -0.87411567806E-01 -0.25049243144E-01  0.12838107968E+00  0.20022394074E-01 0.  0.
         14    1    1    2    0    0  0.13743635302E-01 -0.17655569404E-01  0.62683635742E-02  0.23235727323E-01  0.00000000000E+00 0. -1.
     999901    1    3    3    0    0 -0.10213231437E+00  0.10506713721E+00  0.18780879570E-01  0.89231319300E+00  0.88000000000E+00 0.  1.
        -11    1    4    4    0    0  0.65893143023E-01 -0.52868208637E-01 -0.13373981420E-01  0.85534076729E-01  0.51100000000E-03 0.  1.
         11    1    4    4    0    0  0.22495536043E-01 -0.34543359169E-01 -0.11675261724E-01  0.42847002951E-01  0.51100000000E-03 0. -1.
</event>
<event>
 8    1  0.1091347E+005  0.1043930E+01  0.7957747E-01            NaN
         13   -1    0    0    0    0  0.00000000000E+00  0.00000000000E+00  0.74505805969E-08  0.10566000000E+00  0.10566000000E+00 0.  1.
     999900   -1    0    0    0    0 -0.00000000000E+00 -0.00000000000E+00 -0.74505805969E-08  0.93827000000E+00  0.93827000000E+00 0.  1.
     999902    2    1    2    0    0 -0.16732184842E-02 -0.11874902890E-01  0.20203738508E-01  0.10204352340E+01  0.10201647234E+01 0.  0.
     999903    2    3    3    0    0  0.80648183997E-01  0.23852538887E-01 -0.95204985751E-01  0.12837445300E+00  0.18518576547E-01 0.  0.
         14    1    1    2    0    0  0.16732184842E-02  0.11874902890E-01 -0.20203738508E-01  0.23494765980E-01  0.00000000000E+00 0. -1.
     999901    1    3    3    0    0 -0.82321402481E-01 -0.35727441778E-01  0.11540872426E+00  0.89206078102E+00  0.88000000000E+00 0. -1.
        -11    1    4    4    0    0  0.79106151217E-01  0.19535413305E-01 -0.90699321089E-01  0.12192638558E+00  0.51100000000E-03 0.  1.
         11    1    4    4    0    0  0.15420327793E-02  0.43171255827E-02 -0.45056646626E-02  0.64480674191E-02  0.51100000000E-03 0. -1.
</event>
<event>
 8    1  0.1091347E+005  0.1043930E+01  0.7957747E-01            NaN
         13   -1    0    0    0    0  0.00000000000E+00  0.00000000000E+00  0.74505805969E-08  0.10566000000E+00  0.10566000000E+00 0. -1.
     999900   -1    0    0    0    0 -0.00000000000E+00 -0.00000000000E+00 -0.74505805969E-08  0.93827000000E+00  0.93827000000E+00 0. -1.
     999902    2    1    2    0    0 -0.16259946979E-02 -0.23160688816E-01  0.11953304648E-03  0.10207119972E+01  0.10204478946E+01 0.  0.
     999903    2    3    3    0    0 -0.10002510695E+00  0.70597292571E-01 -0.36421716336E-01  0.12952839813E+00  0.21495691733E-01 0.  0.
         14    1    1    2    0    0  0.16259946979E-02  0.23160688816E-01 -0.11953304648E-03  0.23218002786E-01  0.00000000000E+00 0.  1.
     999901    1    3    3    0    0  0.98399112252E-01 -0.93757981388E-01  0.36541249383E-01  0.89118359908E+00  0.88000000000E+00 0. -1.
        -11    1    4    4    0    0 -0.19923193177E-02  0.54373131236E-02  0.12254652529E-02  0.59410938684E-02  0.51100000000E-03 0.  1.
         11    1    4    4    0    0 -0.98032787632E-01  0.65159979448E-01 -0.37647181589E-01  0.12358730426E+00  0.51100000000E-03 0. -1.
</event>
<event>
 8    1  0.1091347E+005  0.1043930E+01  0.7957747E-01            NaN
         13   -1    0    0    0    0  0.00000000000E+00  0.00000000000E+00  0.74505805969E-08  0.10566000000E+00  0.10566000000E+00 0. -1.
     999900   -1    0    0    0    0 -0.00000000000E+00 -0.00000000000E+00 -0.74505805969E-08  0.93827000000E+00  0.93827000000E+00 0.  1.
     999902    2    1    2    0    0  0.19178906184E-01 -0.14936071479E-01 -0.41171786892E-02  0.10192750242E+01  0.10189767942E+01 0.  0.
     999903    2    3    3    0    0 -0.90435142911E-01 -0.55383453426E-01 -0.71065354870E-01  0.12903163678E+00  0.18789269309E-01 0.  0.
         14    1    1    2    0    0 -0.19178906184E-01  0.14936071479E-01  0.41171786892E-02  0.24654975846E-01  0.00000000000E+00 0. -1.
     999901    1    3    3    0    0  0.10961404909E+00  0.40447381947E-01  0.66948176180E-01  0.89024338737E+00  0.88000000000E+00 0.  1.
        -11    1    4    4    0    0 -0.22183124720E-01 -0.49692070685E-02 -0.12726895420E-01  0.26057993577E-01  0.51100000000E-03 0. -1.
         11    1    4    4    0    0 -0.68252018191E-01 -0.50414246358E-01 -0.58338459450E-01  0.10297364320E+00  0.51100000000E-03 0.  1.
</event>
<event>
 8    1  0.1091347E+005  0.1043930E+01  0.7957747E-01            NaN
         13   -1    0    0    0    0  0.00000000000E+00  0.00000000000E+00  0.74505805969E-08  0.10566000000E+00  0.10566000000E+00 0. -1.
     999900   -1    0    0    0    0 -0.00000000000E+00 -0.00000000000E+00 -0.74505805969E-08  0.93827000000E+00  0.93827000000E+00 0.  1.
     999902    2    1    2    0    0  0.83857000955E-02 -0.46862224602E-02  0.21792305635E-01  0.10201143490E+01  0.10198363103E+01 0.  0.
     999903    2    3    3    0    0 -0.86718240890E-01 -0.95090920460E-01  0.27272990282E-02  0.13018106866E+00  0.19425138848E-01 0.  0.
         14    1    1    2    0    0 -0.83857000955E-02  0.46862224602E-02 -0.21792305635E-01  0.23815650987E-01  0.00000000000E+00 0.  1.
     999901    1    3    3    0    0  0.95103940985E-01  0.90404698000E-01  0.19065006607E-01  0.88993328036E+00  0.88000000000E+00 0. -1.
        -11    1    4    4    0    0 -0.63259448755E-01 -0.64488689572E-01 -0.63647834879E-02  0.90561142491E-01  0.51100000000E-03 0. -1.
         11    1    4    4    0    0 -0.23458792135E-01 -0.30602230888E-01  0.90920825161E-02  0.39619926164E-01  0.51100000000E-03 0.  1.
</event>
<event>
 8    1  0.1091347E+005  0.1043930E+01  0.7957747E-01            NaN
         13   -1    0    0    0    0  0.00000000000E+00  0.00000000000E+00  0.74505805969E-08  0.10566000000E+00  0.10566000000E+00 0. -1.
     999900   -1    0    0    0    0 -0.00000000000E+00 -0.00000000000E+00 -0.74505805969E-08  0.93827000000E+00  0.93827000000E+00 0.  1.
     999902    2    1    2    0    0 -0.18906470233E-01  0.11750259384E-01  0.99579059768E-02  0.10195438748E+01  0.10192521913E+01 0.  0.
     999903    2    3    3    0    0 -0.29935667193E-01  0.70003711181E-01  0.10638877909E+00  0.13229305278E+00  0.19652372620E-01 0.  0.
         14    1    1    2    0    0  0.18906470233E-01 -0.11750259384E-01 -0.99579059768E-02  0.24386125229E-01  0.00000000000E+00 0. -1.
     999901    1    3    3    0    0  0.11029196960E-01 -0.58253451797E-01 -0.96430873108E-01  0.88725082199E+00  0.88000000000E+00 0.  1.
        -11    1    4    4    0    0 -0.62725484286E-02  0.33431585930E-01  0.36131773935E-01  0.49626424516E-01  0.51100000000E-03 0.  1.
         11    1    4    4    0    0 -0.23663118765E-01  0.36572125251E-01  0.70257005151E-01  0.82666628266E-01  0.51100000000E-03 0. -1.
</event>
<event>
 8    1  0.1091347E+005  0.1043930E+01  0.7957747E-01            NaN
         13   -1    0    0    0    0  0.00000000000E+00  0.00000000000E+00  0.74505805969E-08  0.10566000000E+00  0.10566000000E+00 0. -1.
     999900   -1    0    0    0    0 -0.00000000000E+00 -0.00000000000E+00 -0.74505805969E-08  0.93827000000E+00  0.93827000000E+00 0.  1.
     999902    2    1    2    0    0 -0.12308573329E-01 -0.18989826700E-01  0.71133108727E-02  0.10202084131E+01  0.10199325921E+01 0.  0.
     999903    2    3    3    0    0 -0.54352380267E-01  0.61889091715E-01  0.99354918854E-01  0.13070428412E+00  0.20682578992E-01 0.  0.
         14    1    1    2    0    0  0.12308573329E-01  0.18989826700E-01 -0.71133108727E-02  0.23721586943E-01  0.00000000000E+00 0.  1.
     999901    1    3    3    0    0  0.42043806937E-01 -0.80878918416E-01 -0.92241607982E-01  0.88950412893E+00  0.88000000000E+00 0.  1.
        -11    1    4    4    0    0 -0.29078428349E-01  0.17882249736E-01  0.41758523999E-01  0.53938532595E-01  0.51100000000E-03 0. -1.
         11    1    4    4    0    0 -0.25273951917E-01  0.44006841979E-01  0.57596394855E-01  0.76765751529E-01  0.51100000000E-03 0.  1.
</event>
<event>
 8    1  0.1091347E+005  0.1043930E+01  0.7957747E-01            NaN
         13   -1    0    0    0    0  0.00000000000E+00  0.00000000000E+00  0.74505805969E-08  0.10566000000E+00  0.10566000000E+00 0. -1.
     999900   -1    0    0    0    0 -0.00000000000E+00 -0.00000000000E+00 -0.74505805969E-08  0.93827000000E+00  0.93827000000E+00 0.  1.
     999902    2    1    2    0    0 -0.13935232146E-01 -0.18168306764E-01 -0.28019162989E-02  0.10208620829E+01  0.10206014224E+01 0.  0.
     999903    2    3    3    0    0 -0.67473532965E-01  0.87858640494E-01 -0.65972525361E-01  0.13063818460E+00  0.21027192252E-01 0.  0.
         14    1    1    2    0    0  0.13935232146E-01  0.18168306764E-01  0.28019162989E-02  0.23067917127E-01  0.00000000000E+00 0. -1.
     999901    1    3    3    0    0  0.53538300819E-01 -0.10602694726E+00  0.63170609063E-01  0.89022389827E+00  0.88000000000E+00 0. -1.
        -11    1    4    4    0    0 -0.48003067191E-01  0.49008361830E-01 -0.33243186777E-01  0.76233093714E-01  0.51100000000E-03 0.  1.
         11    1    4    4    0    0 -0.19470465774E-01  0.38850278664E-01 -0.32729338584E-01  0.54405090891E-01  0.51100000000E-03 0. -1.
</event>
<event>
 8    1  0.1091347E+005  0.1043930E+01  0.7957747E-01            NaN
         13   -1    0    0    0    0  0.00000000000E+00  0.00000000000E+00  0.74505805969E-08  0.10566000000E+00  0.10566000000E+00 0.  1.
     999900   -1    0    0    0    0 -0.00000000000E+00 -0.00000000000E+00 -0.74505805969E-08  0.93827000000E+00  0.93827000000E+00 0. -1.
     999902    2    1    2    0    0 -0.19027597273E-01  0.89950157881E-02  0.92825019360E-02  0.10209272913E+01  0.10206681191E+01 0.  0.
     999903    2    3    3    0    0 -0.73597150213E-01 -0.42374890126E-02  0.10944037330E+00  0.13346769529E+00  0.20048280381E-01 0.  0.
         14    1    1    2    0    0  0.19027597273E-01 -0.89950157881E-02 -0.92825019360E-02  0.23002708736E-01  0.00000000000E+00 0. -1.
     999901    1    3    3    0    0  0.54569552940E-01  0.13232504801E-01 -0.10015787136E+00  0.88745959597E+00  0.88000000000E+00 0. -1.
        -11    1    4    4    0    0 -0.37763747480E-01 -0.26677439262E-02  0.38633139113E-01  0.54092495229E-01  0.51100000000E-03 0.  1.
         11    1    4    4    0    0 -0.35833402733E-01 -0.15697450863E-02  0.70807234183E-01  0.79375200060E-01  0.51100000000E-03 0. -1.
</event>
<event>
 8    1  0.1091347E+005  0.1043930E+01  0.7957747E-01            NaN
         13   -1    0    0    0    0  0.00000000000E+00  0.00000000000E+00  0.74505805969E-08  0.10566000000E+00  0.10566000000E+00 0.  1.
     999900   -1    0    0    0    0 -0.00000000000E+00 -0.00000000000E+00 -0.74505805969E-08  0.93827000000E+00  0.93827000000E+00 0.  1.
     999902    2    1    2    0    0 -0.11889707345E-01  0.19027652806E-02 -0.20649048781E-01  0.10200266765E+01  0.10197465626E+01 0.  0.
     999903    2    3    3    0    0 -0.32150785985E-01 -0.15688015191E-01 -0.12674414400E+00  0.13324817202E+00  0.20278324575E-01 0.  0.
         14    1    1    2    0    0  0.11889707345E-01 -0.19027652806E-02  0.20649048781E-01  0.23903323451E-01  0.00000000000E+00 0.  1.
     999901    1    3    3    0    0  0.20261078641E-01  0.17590780472E-01  0.10609509522E+00  0.88677850453E+00  0.88000000000E+00 0. -1.
        -11    1    4    4    0    0 -0.11164578672E-01 -0.12449088118E-01 -0.82375911261E-01  0.84057596260E-01  0.51100000000E-03 0. -1.
         11    1    4    4    0    0 -0.20986207314E-01 -0.32389270734E-02 -0.44368232741E-01  0.49190575759E-01  0.51100000000E-03 0.  1.
</event>
<event>
 8    1  0.1484923E+005  0.1043930E+01  0.7957747E-01            NaN
         13   -1    0    0    0    0  0.00000000000E+00  0.00000000000E+00  0.74505805969E-08  0.10566000000E+00  0.10566000000E+00 0.  1.
     999900   -1    0    0    0    0 -0.00000000000E+00 -0.00000000000E+00 -0.74505805969E-08  0.93827000000E+00  0.93827000000E+00 0. -1.
     999902    2    1    2    0    0 -0.24281069434E-01  0.70302980398E-02 -0.48835749800E-02  0.10181842289E+01  0.10178586735E+01 0.  0.
     999903    2    3    3    0    0  0.73601327111E-02 -0.51481337329E-01 -0.11594042822E+00  0.12871337398E+00  0.20504879905E-01 0.  0.
         14    1    1    2    0    0  0.24281069434E-01 -0.70302980398E-02  0.48835749800E-02  0.25745771070E-01  0.00000000000E+00 0.  1.
     999901    1    3    3    0    0 -0.31641202145E-01  0.58511635369E-01  0.11105685324E+00  0.88947085495E+00  0.88000000000E+00 0.  1.
        -11    1    4    4    0    0 -0.56353866182E-02 -0.16506195854E-01 -0.49859968440E-01  0.52825085497E-01  0.51100000000E-03 0. -1.
         11    1    4    4    0    0  0.12995519329E-01 -0.34975141476E-01 -0.66080459780E-01  0.75888288487E-01  0.51100000000E-03 0.  1.
</event>
<event>
 8    1  0.1091347E+005  0.1043930E+01  0.7957747E-01            NaN
         13   -1    0    0    0    0  0.00000000000E+00  0.00000000000E+00  0.74505805969E-08  0.10566000000E+00  0.10566000000E+00 0.  1.
     999900   -1    0    0    0    0 -0.00000000000E+00 -0.00000000000E+00 -0.74505805969E-08  0.93827000000E+00  0.93827000000E+00 0.  1.
     999902    2    1    2    0    0 -0.45260988770E-02 -0.22886403371E-01  0.43479970085E-02  0.10201986261E+01  0.10199225748E+01 0.  0.
     999903    2    3    3    0    0 -0.56726973601E-01  0.30473532977E-01 -0.11103151038E+00  0.12953334391E+00  0.17444344094E-01 0.  0.
         14    1    1    2    0    0  0.45260988770E-02  0.22886403371E-01 -0.43479970085E-02  0.23731373924E-01  0.00000000000E+00 0. -1.
     999901    1    3    3    0    0  0.52200874724E-01 -0.53359936348E-01  0.11537950739E+00  0.89066528217E+00  0.88000000000E+00 0. -1.
        -11    1    4    4    0    0 -0.36823961076E-01  0.12150242313E-01 -0.75445791618E-01  0.84829010907E-01  0.51100000000E-03 0.  1.
         11    1    4    4    0    0 -0.19903012525E-01  0.18323290664E-01 -0.35585718765E-01  0.44704333004E-01  0.51100000000E-03 0. -1.
</event>
<event>
 8    1  0.1091347E+005  0.1043930E+01  0.7957747E-01            NaN
         13   -1    0    0    0    0  0.00000000000E+00  0.00000000000E+00  0.74505805969E-08  0.10566000000E+00  0.10566000000E+00 0. -1.
     999900   -1    0    0    0    0 -0.00000000000E+00 -0.00000000000E+00 -0.74505805969E-08  0.93827000000E+00  0.93827000000E+00 0. -1.
     999902    2    1    2    0    0 -0.10788884778E-01 -0.92184636321E-02  0.18807505806E-01  0.10203693892E+01  0.10200973424E+01 0.  0.
     999903    2    3    3    0    0  0.79980513345E-01  0.83747265816E-01 -0.51012805886E-01  0.12809331846E+00  0.19877243877E-01 0.  0.
         14    1    1    2    0    0  0.10788884778E-01  0.92184636321E-02 -0.18807505806E-01  0.23560610797E-01  0.00000000000E+00 0.  1.
     999901    1    3    3    0    0 -0.90769398123E-01 -0.92965729449E-01  0.69820311692E-01  0.89227607074E+00  0.88000000000E+00 0. -1.
        -11    1    4    4    0    0  0.14293300871E-01  0.26126425333E-01 -0.88433828787E-02  0.31070164020E-01  0.51100000000E-03 0.  1.
         11    1    4    4    0    0  0.65687212474E-01  0.57620840484E-01 -0.42169423007E-01  0.97023154445E-01  0.51100000000E-03 0. -1.
</event>
<event>
 8    1  0.1091347E+005  0.1043930E+01  0.7957747E-01            NaN
         13   -1    0    0    0    0  0.00000000000E+00  0.00000000000E+00  0.74505805969E-08  0.10566000000E+00  0.10566000000E+00 0. -1.
     999900   -1    0    0    0    0 -0.00000000000E+00 -0.00000000000E+00 -0.74505805969E-08  0.93827000000E+00  0.93827000000E+00 0. -1.
     999902    2    1    2    0    0 -0.19265835460E-02 -0.21070306430E-01  0.12168050804E-01  0.10195223988E+01  0.10192301951E+01 0.  0.
     999903    2    3    3    0    0 -0.20411627248E-01 -0.72357406296E-01 -0.10397587907E+00  0.13021847103E+00  0.22217965611E-01 0.  0.
         14    1    1    2    0    0  0.19265835460E-02  0.21070306430E-01 -0.12168050804E-01  0.24407601226E-01  0.00000000000E+00 0.  1.
     999901    1    3    3    0    0  0.18485043702E-01  0.51287099865E-01  0.11614392988E+00  0.88930392774E+00  0.88000000000E+00 0.  1.
        -11    1    4    4    0    0 -0.73416676739E-02 -0.26413523355E-01 -0.56843660426E-01  0.63111307639E-01  0.51100000000E-03 0. -1.
         11    1    4    4    0    0 -0.13069959575E-01 -0.45943882941E-01 -0.47132218646E-01  0.67107163392E-01  0.51100000000E-03 0.  1.
</event>
<event>
 8    1  0.1091347E+005  0.1043930E+01  0.7957747E-01            NaN
         13   -1    0    0    0    0  0.00000000000E+00  0.00000000000E+00  0.74505805969E-08  0.10566000000E+00  0.10566000000E+00 0.  1.
     999900   -1    0    0    0    0 -0.00000000000E+00 -0.00000000000E+00 -0.74505805969E-08  0.93827000000E+00  0.93827000000E+00 0.  1.
     999902    2    1    2    0    0 -0.14612433380E-01 -0.10530895624E-01  0.15960877941E-01  0.10198639950E+01  0.10195800095E+01 0.  0.
     999903    2    3    3    0    0 -0.16732115820E-01 -0.50782224372E-01 -0.11564815728E+00  0.12916449423E+00  0.21217263651E-01 0.  0.
         14    1    1    2    0    0  0.14612433380E-01  0.10530895624E-01 -0.15960877941E-01  0.24066004999E-01  0.00000000000E+00 0. -1.
     999901    1    3    3    0    0  0.21196824399E-02  0.40251328748E-01  0.13160903522E+00  0.89069950077E+00  0.88000000000E+00 0. -1.
        -11    1    4    4    0    0 -0.53274770864E-02 -0.41065081297E-01 -0.72602478764E-01  0.83582916662E-01  0.51100000000E-03 0.  1.
         11    1    4    4    0    0 -0.11404638734E-01 -0.97171430748E-02 -0.43045678512E-01  0.45581577570E-01  0.51100000000E-03 0. -1.
</event>
<event>
 8    1  0.1091347E+005  0.1043930E+01  0.7957747E-01            NaN
         13   -1    0    0    0    0  0.00000000000E+00  0.00000000000E+00  0.74505805969E-08  0.10566000000E+00  0.10566000000E+00 0. -1.
     999900   -1    0    0    0    0 -0.00000000000E+00 -0.00000000000E+00 -0.74505805969E-08  0.93827000000E+00  0.93827000000E+00 0.  1.
     999902    2    1    2    0    0  0.15653571220E-01  0.15671896351E-01 -0.13072971661E-03  0.10217791599E+01  0.10215390310E+01 0.  0.
     999903    2    3    3    0    0  0.39340715765E-01 -0.11839615726E+00 -0.33290308120E-01  0.13069281085E+00  0.20174841292E-01 0.  0.
         14    1    1    2    0    0 -0.15653571220E-01 -0.15671896351E-01  0.13072971661E-03  0.22150840107E-01  0.00000000000E+00 0.  1.
     999901    1    3    3    0    0 -0.23687144544E-01  0.13406805361E+00  0.33159578403E-01  0.89108634905E+00  0.88000000000E+00 0. -1.
        -11    1    4    4    0    0  0.17339851750E-01 -0.41349144214E-01 -0.21405927865E-01  0.49687997089E-01  0.51100000000E-03 0.  1.
         11    1    4    4    0    0  0.22000864014E-01 -0.77047013048E-01 -0.11884380255E-01  0.81004813758E-01  0.51100000000E-03 0. -1.
</event>
<event>
 8    1  0.1091347E+005  0.1043930E+01  0.7957747E-01            NaN
         13   -1    0    0    0    0  0.00000000000E+00  0.00000000000E+00  0.74505805969E-08  0.10566000000E+00  0.10566000000E+00 0.  1.
     999900   -1    0    0    0    0 -0.00000000000E+00 -0.00000000000E+00 -0.74505805969E-08  0.93827000000E+00  0.93827000000E+00 0. -1.
     999902    2    1    2    0    0  0.44818783641E-02  0.97811506314E-02  0.20742861751E-01  0.10205628338E+01  0.10202952873E+01 0.  0.
     999903    2    3    3    0    0 -0.53122855662E-01 -0.95540469842E-01 -0.64366193920E-01  0.12834397027E+00  0.19471738879E-01 0.  0.
         14    1    1    2    0    0 -0.44818783641E-02 -0.97811506314E-02 -0.20742861751E-01  0.23367166173E-01  0.00000000000E+00 0. -1.
     999901    1    3    3    0    0  0.57604734026E-01  0.10532162047E+00  0.85109055671E-01  0.89221886355E+00  0.88000000000E+00 0. -1.
        -11    1    4    4    0    0 -0.10591340802E-01 -0.36752566300E-01 -0.18389242942E-01  0.42442349211E-01  0.51100000000E-03 0. -1.
         11    1    4    4    0    0 -0.42531514859E-01 -0.58787903542E-01 -0.45976950979E-01  0.85901621064E-01  0.51100000000E-03 0.  1.
</event>
<event>
 8    1  0.1091347E+005  0.1043930E+01  0.7957747E-01            NaN
         13   -1    0    0    0    0  0.00000000000E+00  0.00000000000E+00  0.74505805969E-08  0.10566000000E+00  0.10566000000E+00 0.  1.
     999900   -1    0    0    0    0 -0.00000000000E+00 -0.00000000000E+00 -0.74505805969E-08  0.93827000000E+00  0.93827000000E+00 0. -1.
     999902    2    1    2    0    0 -0.62319023666E-02  0.16339127508E-01 -0.16667073996E-01  0.10197722880E+01  0.10194861079E+01 0.  0.
     999903    2    3    3    0    0 -0.62197839231E-01 -0.10997146055E+00 -0.16325379702E-01  0.12899360193E+00  0.20261736768E-01 0.  0.
         14    1    1    2    0    0  0.62319023666E-02 -0.16339127508E-01  0.16667073996E-01  0.24157712028E-01  0.00000000000E+00 0. -1.
     999901    1    3    3    0    0  0.55965936864E-01  0.12631058806E+00 -0.34169429373E-03  0.89077868604E+00  0.88000000000E+00 0.  1.
        -11    1    4    4    0    0 -0.25762972465E-01 -0.63503760331E-01 -0.13672400269E-01  0.69883145153E-01  0.51100000000E-03 0.  1.
         11    1    4    4    0    0 -0.36434866766E-01 -0.46467700220E-01 -0.26529794335E-02  0.59110456781E-01  0.51100000000E-03 0. -1.
</event>
<event>
 8    1  0.1091347E+005  0.1043930E+01  0.7957747E-01            NaN
         13   -1    0    0    0    0  0.00000000000E+00  0.00000000000E+00  0.74505805969E-08  0.10566000000E+00  0.10566000000E+00 0.  1.
     999900   -1    0    0    0    0 -0.00000000000E+00 -0.00000000000E+00 -0.74505805969E-08  0.93827000000E+00  0.93827000000E+00 0.  1.
     999902    2    1    2    0    0  0.73237592961E-02  0.11268655651E-01 -0.17192228392E-01  0.10221081585E+01  0.10218751856E+01 0.  0.
     999903    2    3    3    0    0 -0.36469771438E-01 -0.99145693050E-01  0.72996918410E-01  0.12955940130E+00  0.17238784448E-01 0.  0.
         14    1    1    2    0    0 -0.73237592961E-02 -0.11268655651E-01  0.17192228392E-01  0.21821841524E-01  0.00000000000E+00 0.  1.
     999901    1    3    3    0    0  0.43793530734E-01  0.11041434870E+00 -0.90189146802E-01  0.89254875717E+00  0.88000000000E+00 0. -1.
        -11    1    4    4    0    0 -0.15326524071E-01 -0.56585663468E-01  0.48524000460E-01  0.76103083984E-01  0.51100000000E-03 0. -1.
         11    1    4    4    0    0 -0.21143247367E-01 -0.42560029582E-01  0.24472917951E-01  0.53456317318E-01  0.51100000000E-03 0.  1.
</event>
<event>
 8    1  0.1091347E+005  0.1043930E+01  0.7957747E-01            NaN
         13   -1    0    0    0    0  0.00000000000E+00  0.00000000000E+00  0.74505805969E-08  0.10566000000E+00  0.10566000000E+00 0. -1.
     999900   -1    0    0    0    0 -0.00000000000E+00 -0.00000000000E+00 -0.74505805969E-08  0.93827000000E+00  0.93827000000E+00 0. -1.
     999902    2    1    2    0    0  0.17570277142E-01 -0.59856356102E-02 -0.21587501545E-01  0.10154596172E+01  0.10150604275E+01 0.  0.
     999903    2    3    3    0    0 -0.56034404680E-01 -0.50825984753E-01  0.95200668313E-01  0.12356961127E+00  0.21980590273E-01 0.  0.
         14    1    1    2    0    0 -0.17570277142E-01  0.59856356102E-02  0.21587501545E-01  0.28470382777E-01  0.00000000000E+00 0. -1.
     999901    1    3    3    0    0  0.73604681822E-01  0.44840349143E-01 -0.11678816986E+00  0.89189000595E+00  0.88000000000E+00 0. -1.
        -11    1    4    4    0    0 -0.34410104589E-01 -0.27965747930E-01  0.38522235931E-01  0.58739783258E-01  0.51100000000E-03 0. -1.
         11    1    4    4    0    0 -0.21624300091E-01 -0.22860236823E-01  0.56678432382E-01  0.64829828014E-01  0.51100000000E-03 0.  1.
</event>
<event>
 7    1  0.1091347E+005  0.1043930E+01  0.7957747E-01            NaN
         13   -1    0    0    0    0  0.00000000000E+00  0.00000000000E+00  0.74505805969E-08  0.10566000000E+00  0.10566000000E+00 0. -1.
     999900   -1    0    0    0    0 -0.00000000000E+00 -0.00000000000E+00 -0.74505805969E-08  0.93827000000E+00  0.93827000000E+00 0. -1.
     999903    2    1    2    0    0  0.80128437388E-01 -0.67239331198E-01  0.12882063809E-01  0.10754679262E+00  0.21416603321E-01 0.  0.
         14    1    1    2    0    0  0.20919928301E-01  0.19071370313E-01  0.38520807296E-01  0.47803903192E-01  0.00000000000E+00 0. -1.
     999901    1    1    2    0    0 -0.10104836569E+00  0.48167960884E-01 -0.51402871104E-01  0.88857930418E+00  0.88000000000E+00 0.  1.
        -11    1    3    3    0    0  0.32844736782E-01 -0.15730007992E-01 -0.14307227473E-03  0.36421030688E-01  0.51100000000E-03 0. -1.
         11    1    3    3    0    0  0.47283700606E-01 -0.51509323206E-01  0.13025136083E-01  0.71125761937E-01  0.51100000000E-03 0.  1.
</event>
<event>
 8    1  0.1091347E+005  0.1043930E+01  0.7957747E-01            NaN
         13   -1    0    0    0    0  0.00000000000E+00  0.00000000000E+00  0.74505805969E-08  0.10566000000E+00  0.10566000000E+00 0.  1.
     999900   -1    0    0    0    0 -0.00000000000E+00 -0.00000000000E+00 -0.74505805969E-08  0.93827000000E+00  0.93827000000E+00 0. -1.
     999902    2    1    2    0    0 -0.12771563010E-01 -0.21412392921E-01  0.67269442186E-03  0.10189889513E+01  0.10186836737E+01 0.  0.
     999903    2    3    3    0    0 -0.83712521000E-01 -0.49524671139E-01  0.85636777595E-01  0.13160976790E+00  0.22956352198E-01 0.  0.
         14    1    1    2    0    0  0.12771563010E-01  0.21412392921E-01 -0.67269442186E-03  0.24941048697E-01  0.00000000000E+00 0.  1.
     999901    1    3    3    0    0  0.70940957990E-01  0.28112278219E-01 -0.84964083173E-01  0.88737918340E+00  0.88000000000E+00 0. -1.
        -11    1    4    4    0    0 -0.42363085965E-01 -0.16899547199E-01  0.27957277446E-01  0.53498562889E-01  0.51100000000E-03 0.  1.
         11    1    4    4    0    0 -0.41349435036E-01 -0.32625123940E-01  0.57679500149E-01  0.78111205012E-01  0.51100000000E-03 0. -1.
</event>
<event>
 8    1  0.1091347E+005  0.1043930E+01  0.7957747E-01            NaN
         13   -1    0    0    0    0  0.00000000000E+00  0.00000000000E+00  0.74505805969E-08  0.10566000000E+00  0.10566000000E+00 0.  1.
     999900   -1    0    0    0    0 -0.00000000000E+00 -0.00000000000E+00 -0.74505805969E-08  0.93827000000E+00  0.93827000000E+00 0. -1.
     999902    2    1    2    0    0  0.13167636330E-01  0.91812842583E-02  0.16927466363E-01  0.10206014393E+01  0.10203347863E+01 0.  0.
     999903    2    3    3    0    0  0.18987089116E-01  0.48848713023E-01  0.12122154403E+00  0.13353626380E+00  0.19762709739E-01 0.  0.
         14    1    1    2    0    0 -0.13167636330E-01 -0.91812842583E-02 -0.16927466363E-01  0.23328560706E-01  0.00000000000E+00 0. -1.
     999901    1    3    3    0    0 -0.58194527864E-02 -0.39667428765E-01 -0.10429407767E+00  0.88706517549E+00  0.88000000000E+00 0. -1.
        -11    1    4    4    0    0  0.11296766629E-01  0.15832197368E-01  0.26104669481E-01  0.32557492217E-01  0.51100000000E-03 0.  1.
         11    1    4    4    0    0  0.76903224877E-02  0.33016515655E-01  0.95116874547E-01  0.10097877158E+00  0.51100000000E-03 0. -1.
</event>
<event>
 8    1  0.1091347E+005  0.1043930E+01  0.7957747E-01            NaN
         13   -1    0    0    0    0  0.00000000000E+00  0.00000000000E+00  0.74505805969E-08  0.10566000000E+00  0.10566000000E+00 0.  1.
     999900   -1    0    0    0    0 -0.00000000000E+00 -0.00000000000E+00 -0.74505805969E-08  0.93827000000E+00  0.93827000000E+00 0. -1.
     999902    2    1    2    0    0  0.13935244883E-02  0.52284494623E-02  0.22852618776E-01  0.10204455205E+01  0.10201752494E+01 0.  0.
     999903    2    3    3    0    0 -0.11058676818E+00 -0.46062981666E-01 -0.44394592944E-01  0.12932679418E+00  0.20082535513E-01 0.  0.
         14    1    1    2    0    0 -0.13935244883E-02 -0.52284494623E-02 -0.22852618776E-01  0.23484479539E-01  0.00000000000E+00 0. -1.
     999901    1    3    3    0    0  0.11198029267E+00  0.51291431128E-01  0.67247211720E-01  0.89111872629E+00  0.88000000000E+00 0. -1.
        -11    1    4    4    0    0 -0.77368797946E-01 -0.21998094105E-01 -0.28647750811E-01  0.85386192018E-01  0.51100000000E-03 0. -1.
         11    1    4    4    0    0 -0.33217970234E-01 -0.24064887561E-01 -0.15746842134E-01  0.43940602157E-01  0.51100000000E-03 0.  1.
</event>
<event>
 8    1  0.1091347E+005  0.1043930E+01  0.7957747E-01            NaN
         13   -1    0    0    0    0  0.00000000000E+00  0.00000000000E+00  0.74505805969E-08  0.10566000000E+00  0.10566000000E+00 0.  1.
     999900   -1    0    0    0    0 -0.00000000000E+00 -0.00000000000E+00 -0.74505805969E-08  0.93827000000E+00  0.93827000000E+00 0. -1.
     999902    2    1    2    0    0 -0.32678809186E-02 -0.23302261530E-01  0.17985234547E-02  0.10203310779E+01  0.10200581353E+01 0.  0.
     999903    2    3    3    0    0 -0.12513990257E-01 -0.11594331309E+00  0.61540082120E-01  0.13340554054E+00  0.20258448553E-01 0.  0.
         14    1    1    2    0    0  0.32678809186E-02  0.23302261530E-01 -0.17985234547E-02  0.23598922109E-01  0.00000000000E+00 0. -1.
     999901    1    3    3    0    0  0.92461093388E-02  0.92641051558E-01 -0.59741558665E-01  0.88692553735E+00  0.88000000000E+00 0. -1.
        -11    1    4    4    0    0 -0.12863208754E-01 -0.99063379946E-01  0.44327955177E-01  0.10928972558E+00  0.51100000000E-03 0.  1.
         11    1    4    4    0    0  0.34921849625E-03 -0.16879933142E-01  0.17212126943E-01  0.24115814963E-01  0.51100000000E-03 0. -1.
</event>
<event>
 8    1  0.1091347E+005  0.1043930E+01  0.7957747E-01            NaN
         13   -1    0    0    0    0  0.00000000000E+00  0.00000000000E+00  0.74505805969E-08  0.10566000000E+00  0.10566000000E+00 0. -1.
     999900   -1    0    0    0    0 -0.00000000000E+00 -0.00000000000E+00 -0.74505805969E-08  0.93827000000E+00  0.93827000000E+00 0. -1.
     999902    2    1    2    0    0 -0.22992540872E-01 -0.12722675505E-02  0.96292724358E-02  0.10189700623E+01  0.10186643164E+01 0.  0.
     999903    2    3    3    0    0 -0.69330655573E-01 -0.63879713078E-01 -0.87634421039E-01  0.13019160897E+00  0.19562866587E-01 0.  0.
         14    1    1    2    0    0  0.22992540872E-01  0.12722675505E-02 -0.96292724358E-02  0.24959937663E-01  0.00000000000E+00 0.  1.
     999901    1    3    3    0    0  0.46338114701E-01  0.62607445527E-01  0.97263693475E-01  0.88877845337E+00  0.88000000000E+00 0.  1.
        -11    1    4    4    0    0 -0.10398696146E-01 -0.92993303824E-02 -0.23792235172E-01  0.27585177225E-01  0.51100000000E-03 0. -1.
         11    1    4    4    0    0 -0.58931959428E-01 -0.54580382695E-01 -0.63842185868E-01  0.10260643174E+00  0.51100000000E-03 0.  1.
</event>
<event>
 8    1  0.1091347E+005  0.1043930E+01  0.7957747E-01            NaN
         13   -1    0    0    0    0  0.00000000000E+00  0.00000000000E+00  0.74505805969E-08  0.10566000000E+00  0.10566000000E+00 0. -1.
     999900   -1    0    0    0    0 -0.00000000000E+00 -0.00000000000E+00 -0.74505805969E-08  0.93827000000E+00  0.93827000000E+00 0.  1.
     999902    2    1    2    0    0 -0.13447735924E-01 -0.66199550808E-02 -0.17843943076E-01  0.10206261009E+01  0.10203600179E+01 0.  0.
     999903    2    3    3    0    0 -0.11247740177E+00 -0.67444072527E-01 -0.81967991126E-02  0.13293273307E+00  0.20101123818E-01 0.  0.
         14    1    1    2    0    0  0.13447735924E-01  0.66199550808E-02  0.17843943076E-01  0.23303899057E-01  0.00000000000E+00 0. -1.
     999901    1    3    3    0    0  0.99029665842E-01  0.60824117446E-01 -0.96471439638E-02  0.88769336787E+00  0.88000000000E+00 0. -1.
        -11    1    4    4    0    0 -0.72224184361E-01 -0.36876729737E-01  0.30392982100E-02  0.81152476593E-01  0.51100000000E-03 0.  1.
         11    1    4    4    0    0 -0.40253217405E-01 -0.30567342790E-01 -0.11236097323E-01  0.51780256476E-01  0.51100000000E-03 0. -1.
</event>
<event>
 8    1  0.1091347E+005  0.1043930E+01  0.7957747E-01            NaN
         13   -1    0    0    0    0  0.00000000000E+00  0.00000000000E+00  0.74505805969E-08  0.10566000000E+00  0.10566000000E+00 0. -1.
     999900   -1    0    0    0    0 -0.00000000000E+00 -0.00000000000E+00 -0.74505805969E-08  0.93827000000E+00  0.93827000000E+00 0.  1.
     999902    2    1    2    0    0 -0.18918153143E-01 -0.50693372298E-02  0.13577516308E-01  0.10200984317E+01  0.10198200168E+01 0.  0.
     999903    2    3    3    0    0  0.37351741938E-01 -0.57488961554E-01 -0.10689951250E+00  0.12856669779E+00  0.20043868914E-01 0.  0.
         14    1    1    2    0    0  0.18918153143E-01  0.50693372298E-02 -0.13577516308E-01  0.23831568294E-01  0.00000000000E+00 0.  1.
     999901    1    3    3    0    0 -0.56269895081E-01  0.52419624324E-01  0.12047702881E+00  0.89153173392E+00  0.88000000000E+00 0. -1.
        -11    1    4    4    0    0  0.19908739014E-01 -0.41834544291E-01 -0.83200547460E-01  0.95231713225E-01  0.51100000000E-03 0. -1.
         11    1    4    4    0    0  0.17443002925E-01 -0.15654417263E-01 -0.23698965043E-01  0.33334984565E-01  0.51100000000E-03 0.  1.
</event>
<event>
 8    1  0.1091347E+005  0.1043930E+01  0.7957747E-01            NaN
         13   -1    0    0    0    0  0.00000000000E+00  0.00000000000E+00  0.74505805969E-08  0.10566000000E+00  0.10566000000E+00 0.  1.
     999900   -1    0    0    0    0 -0.00000000000E+00 -0.00000000000E+00 -0.74505805969E-08  0.93827000000E+00  0.93827000000E+00 0.  1.
     999902    2    1    2    0    0 -0.26964527937E-01 -0.40716772998E-02  0.33846397437E-02  0.10164505512E+01  0.10160790337E+01 0.  0.
     999903    2    3    3    0    0 -0.26401156166E-02  0.12321890926E+00  0.21046342643E-01  0.12678403711E+00  0.21008896145E-01 0.  0.
         14    1    1    2    0    0  0.26964527937E-01  0.40716772998E-02 -0.33846397437E-02  0.27479448850E-01  0.00000000000E+00 0. -1.
     999901    1    3    3    0    0 -0.24324412320E-01 -0.12729058656E+00 -0.17661702900E-01  0.88966651404E+00  0.88000000000E+00 0.  1.
        -11    1    4    4    0    0 -0.10995352942E-01  0.78157414370E-01  0.17272442513E-01  0.80796519719E-01  0.51100000000E-03 0. -1.
         11    1    4    4    0    0  0.83552373256E-02  0.45061494888E-01  0.37739001308E-02  0.45987517388E-01  0.51100000000E-03 0.  1.
</event>
<event>
 8    1  0.1091347E+005  0.1043930E+01  0.7957747E-01            NaN
         13   -1    0    0    0    0  0.00000000000E+00  0.00000000000E+00  0.74505805969E-08  0.10566000000E+00  0.10566000000E+00 0. -1.
     999900   -1    0    0    0    0 -0.00000000000E+00 -0.00000000000E+00 -0.74505805969E-08  0.93827000000E+00  0.93827000000E+00 0. -1.
     999902    2    1    2    0    0 -0.22957893868E-02  0.86026650882E-02  0.19981681084E-01  0.10220543497E+01  0.10218202140E+01 0.  0.
     999903    2    3    3    0    0  0.19851887989E-02 -0.12064144509E+00 -0.44309582033E-01  0.13028322815E+00  0.21262201868E-01 0.  0.
         14    1    1    2    0    0  0.22957893868E-02 -0.86026650882E-02 -0.19981681084E-01  0.21875650264E-01  0.00000000000E+00 0.  1.
     999901    1    3    3    0    0 -0.42809781857E-02  0.12924411018E+00  0.64291263117E-01  0.89177112159E+00  0.88000000000E+00 0.  1.
        -11    1    4    4    0    0 -0.91094352442E-02 -0.57833205573E-01 -0.24792083212E-01  0.63581207824E-01  0.51100000000E-03 0.  1.
         11    1    4    4    0    0  0.11094624043E-01 -0.62808239516E-01 -0.19517498820E-01  0.66702020321E-01  0.51100000000E-03 0. -1.
</event>
<event>
 8    1  0.1091347E+005  0.1043930E+01  0.7957747E-01            NaN
         13   -1    0    0    0    0  0.00000000000E+00  0.00000000000E+00  0.74505805969E-08  0.10566000000E+00  0.10566000000E+00 0.  1.
     999900   -1    0    0    0    0 -0.00000000000E+00 -0.00000000000E+00 -0.74505805969E-08  0.93827000000E+00  0.93827000000E+00 0. -1.
     999902    2    1    2    0    0  0.11442213778E-01  0.69006619063E-03  0.21562014632E-01  0.10195103169E+01  0.10192178204E+01 0.  0.
     999903    2    3    3    0    0 -0.28088399033E-01  0.11261455622E+00 -0.54126225244E-01  0.12832095966E+00  0.81008637799E-02 0.  0.
         14    1    1    2    0    0 -0.11442213778E-01 -0.69006619063E-03 -0.21562014632E-01  0.24419683096E-01  0.00000000000E+00 0. -1.
     999901    1    3    3    0    0  0.39530612811E-01 -0.11192449003E+00  0.75688239877E-01  0.89118935725E+00  0.88000000000E+00 0.  1.
        -11    1    4    4    0    0 -0.25679046740E-01  0.10244539747E+00 -0.46641552314E-01  0.11545634858E+00  0.51100000000E-03 0. -1.
         11    1    4    4    0    0 -0.24093522934E-02  0.10169158750E-01 -0.74846729301E-02  0.12864611072E-01  0.51100000000E-03 0.  1.
</event>
<event>
 8    1  0.1091347E+005  0.1043930E+01  0.7957747E-01            NaN
         13   -1    0    0    0    0  0.00000000000E+00  0.00000000000E+00  0.74505805969E-08  0.10566000000E+00  0.10566000000E+00 0. -1.
     999900   -1    0    0    0    0 -0.00000000000E+00 -0.00000000000E+00 -0.74505805969E-08  0.93827000000E+00  0.93827000000E+00 0. -1.
     999902    2    1    2    0    0 -0.94243464962E-02 -0.15883900916E-01 -0.14630642045E-01  0.10203679054E+01  0.10200958240E+01 0.  0.
     999903    2    3    3    0    0 -0.61059362328E-01 -0.31677631723E-01  0.10864401655E+00  0.13013632977E+00  0.20005597097E-01 0.  0.
         14    1    1    2    0    0  0.94243464962E-02  0.15883900916E-01  0.14630642045E-01  0.23562094598E-01  0.00000000000E+00 0.  1.
     999901    1    3    3    0    0  0.51635015832E-01  0.15793730806E-01 -0.12327465860E+00  0.89023157563E+00  0.88000000000E+00 0. -1.
        -11    1    4    4    0    0 -0.56882529477E-01 -0.22309709514E-01  0.96663924158E-01  0.11435698777E+00  0.51100000000E-03 0. -1.
         11    1    4    4    0    0 -0.41768328512E-02 -0.93679222091E-02  0.11980092393E-01  0.15779342000E-01  0.51100000000E-03 0.  1.
</event>
<event>
 8    1  0.1091347E+005  0.1043930E+01  0.7957747E-01            NaN
         13   -1    0    0    0    0  0.00000000000E+00  0.00000000000E+00  0.74505805969E-08  0.10566000000E+00  0.10566000000E+00 0. -1.
     999900   -1    0    0    0    0 -0.00000000000E+00 -0.00000000000E+00 -0.74505805969E-08  0.93827000000E+00  0.93827000000E+00 0. -1.
     999902    2    1    2    0    0  0.71291091248E-04 -0.19953358147E-01 -0.11811746339E-01  0.10207425263E+01  0.10204791258E+01 0.  0.
     999903    2    3    3    0    0 -0.50829201437E-01 -0.12767909401E-01 -0.11874521589E+00  0.13278010723E+00  0.27991129838E-01 0.  0.
         14    1    1    2    0    0 -0.71291091248E-04  0.19953358147E-01  0.11811746339E-01  0.23187473673E-01  0.00000000000E+00 0. -1.
     999901    1    3    3    0    0  0.50900492528E-01 -0.71854487459E-02  0.10693346955E+00  0.88796241909E+00  0.88000000000E+00 0.  1.
        -11    1    4    4    0    0 -0.24332007384E-01 -0.33341327620E-02 -0.25598955554E-01  0.35478594547E-01  0.51100000000E-03 0. -1.
         11    1    4    4    0    0 -0.26497194053E-01 -0.94337766393E-02 -0.93146260340E-01  0.97301512685E-01  0.51100000000E-03 0.  1.
</event>
<event>
 8    1  0.1091347E+005  0.1043930E+01  0.7957747E-01            NaN
         13   -1    0    0    0    0  0.00000000000E+00  0.00000000000E+00  0.74505805969E-08  0.10566000000E+00  0.10566000000E+00 0. -1.
     999900   -1    0    0    0    0 -0.00000000000E+00 -0.00000000000E+00 -0.74505805969E-08  0.93827000000E+00  0.93827000000E+00 0.  1.
     999902    2    1    2    0    0  0.92513265950E-03 -0.20494508868E-02  0.27459998983E-01  0.10163780915E+01  0.10160045852E+01 0.  0.
     999903    2    3    3    0    0 -0.97897745175E-01  0.76783899885E-01 -0.11270415136E-01  0.12650130036E+00  0.19895249283E-01 0.  0.
         14    1    1    2    0    0 -0.92513265950E-03  0.20494508868E-02 -0.27459998983E-01  0.27551908528E-01  0.00000000000E+00 0.  1.
     999901    1    3    3    0    0  0.98822877835E-01 -0.78833350772E-01  0.38730414120E-01  0.88987679111E+00  0.88000000000E+00 0. -1.
        -11    1    4    4    0    0 -0.56476850488E-01  0.53410947433E-01 -0.13445233589E-01  0.78888524984E-01  0.51100000000E-03 0. -1.
         11    1    4    4    0    0 -0.41420894687E-01  0.23372952452E-01  0.21748184523E-02  0.47612775379E-01  0.51100000000E-03 0.  1.
</event>
<event>
 8    1  0.1091347E+005  0.1043930E+01  0.7957747E-01            NaN
         13   -1    0    0    0    0  0.00000000000E+00  0.00000000000E+00  0.74505805969E-08  0.10566000000E+00  0.10566000000E+00 0.  1.
     999900   -1    0    0    0    0 -0.00000000000E+00 -0.00000000000E+00 -0.74505805969E-08  0.93827000000E+00  0.93827000000E+00 0. -1.
     999902    2    1    2    0    0 -0.19319136604E-01  0.12733767771E-01  0.94078745230E-02  0.10189522903E+01  0.10186461033E+01 0.  0.
     999903    2    3    3    0    0  0.83791597144E-01  0.29865242739E-01  0.91525890003E-01  0.12896988633E+00  0.18527778128E-01 0.  0.
         14    1    1    2    0    0  0.19319136604E-01 -0.12733767771E-01 -0.94078745230E-02  0.24977709739E-01  0.00000000000E+00 0.  1.
     999901    1    3    3    0    0 -0.10311073375E+00 -0.17131474967E-01 -0.82118015479E-01  0.88998240394E+00  0.88000000000E+00 0. -1.
        -11    1    4    4    0    0  0.40265230854E-01  0.46738359215E-02  0.42547932572E-01  0.58768369427E-01  0.51100000000E-03 0.  1.
         11    1    4    4    0    0  0.43526366290E-01  0.25191406817E-01  0.48977957430E-01  0.70201516899E-01  0.51100000000E-03 0. -1.
</event>
<event>
 8    1  0.1091347E+005  0.1043930E+01  0.7957747E-01            NaN
         13   -1    0    0    0    0  0.00000000000E+00  0.00000000000E+00  0.74505805969E-08  0.10566000000E+00  0.10566000000E+00 0.  1.
     999900   -1    0    0    0    0 -0.00000000000E+00 -0.00000000000E+00 -0.74505805969E-08  0.93827000000E+00  0.93827000000E+00 0. -1.
     999902    2    1    2    0    0  0.10668518220E-01  0.12713815697E-01 -0.15873433038E-01  0.10209642806E+01  0.10207059508E+01 0.  0.
     999903    2    3    3    0    0 -0.47764049996E-01  0.90708205059E-01 -0.82608894244E-01  0.13307289560E+00  0.19359318104E-01 0.  0.
         14    1    1    2    0    0 -0.10668518220E-01 -0.12713815697E-01  0.15873433038E-01  0.22965719388E-01  0.00000000000E+00 0.  1.
     999901    1    3    3    0    0  0.58432568217E-01 -0.77994389362E-01  0.66735461206E-01  0.88789138501E+00  0.88000000000E+00 0.  1.
        -11    1    4    4    0    0 -0.46258722119E-01  0.83464429288E-01 -0.69650569512E-01  0.11814247028E+00  0.51100000000E-03 0.  1.
         11    1    4    4    0    0 -0.15053278771E-02  0.72437757709E-02 -0.12958324732E-01  0.14930425322E-01  0.51100000000E-03 0. -1.
</event>
<event>
 8    1  0.1091347E+005  0.1043930E+01  0.7957747E-01            NaN
         13   -1    0    0    0    0  0.00000000000E+00  0.00000000000E+00  0.74505805969E-08  0.10566000000E+00  0.10566000000E+00 0. -1.
     999900   -1    0    0    0    0 -0.00000000000E+00 -0.00000000000E+00 -0.74505805969E-08  0.93827000000E+00  0.93827000000E+00 0. -1.
     999902    2    1    2    0    0  0.69899335783E-02  0.21824634672E-01 -0.34596454722E-02  0.10207536544E+01  0.10204905095E+01 0.  0.
     999903    2    3    3    0    0  0.28538686155E-01 -0.12375486745E+00  0.24947209799E-03  0.12852526560E+00  0.19722013976E-01 0.  0.
         14    1    1    2    0    0 -0.69899335783E-02 -0.21824634672E-01  0.34596454722E-02  0.23176345630E-01  0.00000000000E+00 0.  1.
     999901    1    3    3    0    0 -0.21548752576E-01  0.14557950212E+00 -0.37091175701E-02  0.89222838877E+00  0.88000000000E+00 0.  1.
        -11    1    4    4    0    0  0.17202165119E-01 -0.35670020975E-01  0.25054584366E-02  0.39683791706E-01  0.51100000000E-03 0. -1.
         11    1    4    4    0    0  0.11336521035E-01 -0.88084846477E-01 -0.22559863386E-02  0.88841473893E-01  0.51100000000E-03 0.  1.
</event>
<event>
 8    1  0.1091347E+005  0.1043930E+01  0.7957747E-01            NaN
         13   -1    0    0    0    0  0.00000000000E+00  0.00000000000E+00  0.74505805969E-08  0.10566000000E+00  0.10566000000E+00 0. -1.
     999900   -1    0    0    0    0 -0.00000000000E+00 -0.00000000000E+00 -0.74505805969E-08  0.93827000000E+00  0.93827000000E+00 0.  1.
     999902    2    1    2    0    0 -0.33211845932E-02  0.15294927702E-02  0.23772678576E-01  0.10198777680E+01  0.10195941113E+01 0.  0.
     999903    2    3    3    0    0 -0.86489305160E-01  0.19757832994E-01 -0.90600088829E-01  0.12840127448E+00  0.20192556041E-01 0.  0.
         14    1    1    2    0    0  0.33211845932E-02 -0.15294927702E-02 -0.23772678576E-01  0.24052231953E-01  0.00000000000E+00 0.  1.
     999901    1    3    3    0    0  0.83168120567E-01 -0.18228340224E-01  0.11437276741E+00  0.89147649357E+00  0.88000000000E+00 0. -1.
        -11    1    4    4    0    0 -0.54820506318E-01  0.22163635315E-01 -0.56211663164E-01  0.81587540961E-01  0.51100000000E-03 0. -1.
         11    1    4    4    0    0 -0.31668798842E-01 -0.24058023207E-02 -0.34388425665E-01  0.46813733515E-01  0.51100000000E-03 0.  1.
</event>
<event>
 8    1  0.1091347E+005  0.1043930E+01  0.7957747E-01            NaN
         13   -1    0    0    0    0  0.00000000000E+00  0.00000000000E+00  0.74505805969E-08  0.10566000000E+00  0.10566000000E+00 0. -1.
     999900   -1    0    0    0    0 -0.00000000000E+00 -0.00000000000E+00 -0.74505805969E-08  0.93827000000E+00  0.93827000000E+00 0. -1.
     999902    2    1    2    0    0 -0.37651647066E-02  0.99078764137E-03  0.24052438563E-01  0.10195644931E+01  0.10192733086E+01 0.  0.
     999903    2    3    3    0    0  0.28477184292E-01 -0.20058379255E-01  0.12657990069E+00  0.13277561350E+00  0.19839447572E-01 0.  0.
         14    1    1    2    0    0  0.37651647066E-02 -0.99078764137E-03 -0.24052438563E-01  0.24365506895E-01  0.00000000000E+00 0.  1.
     999901    1    3    3    0    0 -0.32242348998E-01  0.21049166896E-01 -0.10252746212E+00  0.88678887960E+00  0.88000000000E+00 0. -1.
        -11    1    4    4    0    0  0.58302430975E-02  0.24653370525E-02  0.39786872379E-01  0.40290519431E-01  0.51100000000E-03 0. -1.
         11    1    4    4    0    0  0.22646941194E-01 -0.22523716307E-01  0.86793028307E-01  0.92485094072E-01  0.51100000000E-03 0.  1.
</event>
<event>
 8    1  0.1091347E+005  0.1043930E+01  0.7957747E-01            NaN
         13   -1    0    0    0    0  0.00000000000E+00  0.00000000000E+00  0.74505805969E-08  0.10566000000E+00  0.10566000000E+00 0. -1.
     999900   -1    0    0    0    0 -0.00000000000E+00 -0.00000000000E+00 -0.74505805969E-08  0.93827000000E+00  0.93827000000E+00 0. -1.
     999902    2    1    2    0    0 -0.15533505634E-01 -0.14015019622E-01  0.73254958771E-02  0.10217630547E+01  0.10215225727E+01 0.  0.
     999903    2    3    3    0    0 -0.68736614687E-01  0.71259330076E-01  0.85766788045E-01  0.13257504209E+00  0.20434909621E-01 0.  0.
         14    1    1    2    0    0  0.15533505634E-01  0.14015019622E-01 -0.73254958771E-02  0.22166945260E-01  0.00000000000E+00 0.  1.
     999901    1    3    3    0    0  0.53203109053E-01 -0.85274349698E-01 -0.78441292168E-01  0.88918801265E+00  0.88000000000E+00 0. -1.
        -11    1    4    4    0    0 -0.11764907296E-01  0.22424890206E-01  0.28859568844E-01  0.38398236669E-01  0.51100000000E-03 0. -1.
         11    1    4    4    0    0 -0.56971707392E-01  0.48834439870E-01  0.56907219201E-01  0.94176805418E-01  0.51100000000E-03 0.  1.
</event>
<event>
 8    1  0.1091347E+005  0.1043930E+01  0.7957747E-01            NaN
         13   -1    0    0    0    0  0.00000000000E+00  0.00000000000E+00  0.74505805969E-08  0.10566000000E+00  0.10566000000E+00 0.  1.
     999900   -1    0    0    0    0 -0.00000000000E+00 -0.00000000000E+00 -0.74505805969E-08  0.93827000000E+00  0.93827000000E+00 0. -1.
     999902    2    1    2    0    0 -0.12157838308E-01 -0.12933080122E-01 -0.14000409559E-01  0.10213227210E+01  0.10210724810E+01 0.  0.
     999903    2    3    3    0    0  0.24034432051E-01  0.94073986525E-01  0.81812305008E-01  0.12894361494E+00  0.22486300686E-01 0.  0.
         14    1    1    2    0    0  0.12157838308E-01  0.12933080122E-01  0.14000409559E-01  0.22607278951E-01  0.00000000000E+00 0.  1.
     999901    1    3    3    0    0 -0.36192270359E-01 -0.10700706665E+00 -0.95812714566E-01  0.89237910611E+00  0.88000000000E+00 0. -1.
        -11    1    4    4    0    0  0.11081437310E-01  0.55227919632E-01  0.60912249979E-01  0.82966768517E-01  0.51100000000E-03 0.  1.
         11    1    4    4    0    0  0.12952994741E-01  0.38846066893E-01  0.20900055029E-01  0.45976846423E-01  0.51100000000E-03 0. -1.
</event>
<event>
 8    1  0.1091347E+005  0.1043930E+01  0.7957747E-01            NaN
         13   -1    0    0    0    0  0.00000000000E+00  0.00000000000E+00  0.74505805969E-08  0.10566000000E+00  0.10566000000E+00 0. -1.
     999900   -1    0    0    0    0 -0.00000000000E+00 -0.00000000000E+00 -0.74505805969E-08  0.93827000000E+00  0.93827000000E+00 0.  1.
     999902    2    1    2    0    0 -0.20704453498E-01 -0.94619697135E-02  0.55348838977E-02  0.10205027038E+01  0.10202337626E+01 0.  0.
     999903    2    3    3    0    0 -0.12891288596E+00  0.26046282948E-01 -0.71634435812E-02  0.13307318643E+00  0.18979383569E-01 0.  0.
         14    1    1    2    0    0  0.20704453498E-01  0.94619697135E-02 -0.55348838977E-02  0.23427296158E-01  0.00000000000E+00 0.  1.
     999901    1    3    3    0    0  0.10820843246E+00 -0.35508252661E-01  0.12698327479E-01  0.88742951742E+00  0.88000000000E+00 0.  1.
        -11    1    4    4    0    0 -0.34071570036E-01  0.85255881047E-02 -0.10203846869E-01  0.36577823188E-01  0.51100000000E-03 0.  1.
         11    1    4    4    0    0 -0.94841315920E-01  0.17520694843E-01  0.30404032878E-02  0.96495363237E-01  0.51100000000E-03 0. -1.
</event>
<event>
 8    1  0.1091347E+005  0.1043930E+01  0.7957747E-01            NaN
         13   -1    0    0    0    0  0.00000000000E+00  0.00000000000E+00  0.74505805969E-08  0.10566000000E+00  0.10566000000E+00 0. -1.
     999900   -1    0    0    0    0 -0.00000000000E+00 -0.00000000000E+00 -0.74505805969E-08  0.93827000000E+00  0.93827000000E+00 0.  1.
     999902    2    1    2    0    0 -0.13783570274E-01 -0.15156469541E-01 -0.81532822618E-02  0.10218804787E+01  0.10216425653E+01 0.  0.
     999903    2    3    3    0    0  0.87469745486E-01  0.54619673627E-01  0.75568439867E-01  0.12939503294E+00  0.19955458510E-01 0.  0.
         14    1    1    2    0    0  0.13783570274E-01  0.15156469541E-01  0.81532822618E-02  0.22049521312E-01  0.00000000000E+00 0. -1.
     999901    1    3    3    0    0 -0.10125331576E+00 -0.69776143167E-01 -0.83721722128E-01  0.89248544574E+00  0.88000000000E+00 0.  1.
        -11    1    4    4    0    0  0.65686287573E-01  0.49303789351E-01  0.64216902903E-01  0.10425748778E+00  0.51100000000E-03 0. -1.
         11    1    4    4    0    0  0.21783457913E-01  0.53158842760E-02  0.11351536963E-01  0.25137545161E-01  0.51100000000E-03 0.  1.
</event>
<event>
 8    1  0.1091347E+005  0.1043930E+01  0.7957747E-01            NaN
         13   -1    0    0    0    0  0.00000000000E+00  0.00000000000E+00  0.74505805969E-08  0.10566000000E+00  0.10566000000E+00 0. -1.
     999900   -1    0    0    0    0 -0.00000000000E+00 -0.00000000000E+00 -0.74505805969E-08  0.93827000000E+00  0.93827000000E+00 0. -1.
     999902    2    1    2    0    0 -0.28928445440E-02  0.87042690192E-02 -0.23106493540E-01  0.10190695315E+01  0.10187662476E+01 0.  0.
     999903    2    3    3    0    0  0.97491860219E-02 -0.10872985335E+00  0.62052836229E-01  0.12710389011E+00  0.19687985162E-01 0.  0.
         14    1    1    2    0    0  0.28928445440E-02 -0.87042690192E-02  0.23106493540E-01  0.24860468468E-01  0.00000000000E+00 0. -1.
     999901    1    3    3    0    0 -0.12642030566E-01  0.11743412237E+00 -0.85159329770E-01  0.89196564142E+00  0.88000000000E+00 0. -1.
        -11    1    4    4    0    0  0.12799363301E-01 -0.70621520240E-01  0.48114469141E-01  0.86408831051E-01  0.51100000000E-03 0. -1.
         11    1    4    4    0    0 -0.30501772786E-02 -0.38108333106E-01  0.13938367089E-01  0.40695059057E-01  0.51100000000E-03 0.  1.
</event>
<event>
 8    1  0.1091347E+005  0.1043930E+01  0.7957747E-01            NaN
         13   -1    0    0    0    0  0.00000000000E+00  0.00000000000E+00  0.74505805969E-08  0.10566000000E+00  0.10566000000E+00 0. -1.
     999900   -1    0    0    0    0 -0.00000000000E+00 -0.00000000000E+00 -0.74505805969E-08  0.93827000000E+00  0.93827000000E+00 0. -1.
     999902    2    1    2    0    0  0.16166542062E-01  0.11890238827E-01  0.12044375980E-01  0.10205248327E+01  0.10202564052E+01 0.  0.
     999903    2    3    3    0    0 -0.49796698383E-03  0.94490730922E-01  0.91327446691E-01  0.13295153861E+00  0.20165884515E-01 0.  0.
         14    1    1    2    0    0 -0.16166542062E-01 -0.11890238827E-01 -0.12044375980E-01  0.23405167257E-01  0.00000000000E+00 0.  1.
     999901    1    3    3    0    0  0.16664509046E-01 -0.82600492095E-01 -0.79283070711E-01  0.88757329413E+00  0.88000000000E+00 0. -1.
        -11    1    4    4    0    0 -0.38261296844E-02  0.21654269963E-01  0.11442878113E-01  0.24794097211E-01  0.51100000000E-03 0. -1.
         11    1    4    4    0    0  0.33281627006E-02  0.72836460959E-01  0.79884568579E-01  0.10815744140E+00  0.51100000000E-03 0.  1.
</event>
<event>
 8    1  0.1091347E+005  0.1043930E+01  0.7957747E-01            NaN
         13   -1    0    0    0    0  0.00000000000E+00  0.00000000000E+00  0.74505805969E-08  0.10566000000E+00  0.10566000000E+00 0. -1.
     999900   -1    0    0    0    0 -0.00000000000E+00 -0.00000000000E+00 -0.74505805969E-08  0.93827000000E+00  0.93827000000E+00 0. -1.
     999902    2    1    2    0    0 -0.19387333696E-01  0.86628346857E-02 -0.10390721651E-01  0.10202893463E+01  0.10200154262E+01 0.  0.
     999903    2    3    3    0    0 -0.94941738680E-01  0.33934190044E-01 -0.85599168621E-01  0.13349544687E+00  0.18120531664E-01 0.  0.
         14    1    1    2    0    0  0.19387333696E-01 -0.86628346857E-02  0.10390721651E-01  0.23640653736E-01  0.00000000000E+00 0. -1.
     999901    1    3    3    0    0  0.75554404985E-01 -0.25271355358E-01  0.75208446970E-01  0.88679389940E+00  0.88000000000E+00 0.  1.
        -11    1    4    4    0    0 -0.49463744054E-01  0.26501814945E-01 -0.51496498989E-01  0.76165337920E-01  0.51100000000E-03 0.  1.
         11    1    4    4    0    0 -0.45477994626E-01  0.74323750991E-02 -0.34102669632E-01  0.57330108946E-01  0.51100000000E-03 0. -1.
</event>
<event>
 8    1  0.1091347E+005  0.1043930E+01  0.7957747E-01            NaN
         13   -1    0    0    0    0  0.00000000000E+00  0.00000000000E+00  0.74505805969E-08  0.10566000000E+00  0.10566000000E+00 0.  1.
     999900   -1    0    0    0    0 -0.00000000000E+00 -0.00000000000E+00 -0.74505805969E-08  0.93827000000E+00  0.93827000000E+00 0.  1.
     999902    2    1    2    0    0  0.12784891545E-01  0.18437222718E-01  0.75238935858E-02  0.10202658159E+01  0.10199913439E+01 0.  0.
     999903    2    3    3    0    0  0.65004171026E-01 -0.65442618239E-01  0.90676803968E-01  0.13084067159E+00  0.19715984154E-01 0.  0.
         14    1    1    2    0    0 -0.12784891545E-01 -0.18437222718E-01 -0.75238935858E-02  0.23664184077E-01  0.00000000000E+00 0. -1.
     999901    1    3    3    0    0 -0.52219279481E-01  0.83879840957E-01 -0.83152910382E-01  0.88942514433E+00  0.88000000000E+00 0. -1.
        -11    1    4    4    0    0  0.57196275255E-02 -0.16378457778E-01  0.15883795102E-01  0.23527092597E-01  0.51100000000E-03 0. -1.
         11    1    4    4    0    0  0.59284543501E-01 -0.49064160461E-01  0.74793008866E-01  0.10731357899E+00  0.51100000000E-03 0.  1.
</event>
<event>
 8    1  0.1091347E+005  0.1043930E+01  0.7957747E-01            NaN
         13   -1    0    0    0    0  0.00000000000E+00  0.00000000000E+00  0.74505805969E-08  0.10566000000E+00  0.10566000000E+00 0.  1.
     999900   -1    0    0    0    0 -0.00000000000E+00 -0.00000000000E+00 -0.74505805969E-08  0.93827000000E+00  0.93827000000E+00 0.  1.
     999902    2    1    2    0    0 -0.10543472409E-01 -0.18473463821E-01  0.59579222327E-03  0.10226511691E+01  0.10224297653E+01 0.  0.
     999903    2    3    3    0    0  0.12072923372E+00 -0.52104213244E-01  0.62607420127E-02  0.13226044457E+00  0.12776204201E-01 0.  0.
         14    1    1    2    0    0  0.10543472409E-01  0.18473463821E-01 -0.59579222327E-03  0.21278830897E-01  0.00000000000E+00 0.  1.
     999901    1    3    3    0    0 -0.13127270613E+00  0.33630749423E-01 -0.56649497895E-02  0.89039072454E+00  0.88000000000E+00 0.  1.
        -11    1    4    4    0    0  0.10801120749E+00 -0.46197961321E-01  0.94956738450E-02  0.11786051721E+00  0.51100000000E-03 0. -1.
         11    1    4    4    0    0  0.12718026234E-01 -0.59062519225E-02 -0.32349318322E-02  0.14399927362E-01  0.51100000000E-03 0.  1.
</event>
<event>
 8    1  0.1091347E+005  0.1043930E+01  0.7957747E-01            NaN
         13   -1    0    0    0    0  0.00000000000E+00  0.00000000000E+00  0.74505805969E-08  0.10566000000E+00  0.10566000000E+00 0. -1.
     999900   -1    0    0    0    0 -0.00000000000E+00 -0.00000000000E+00 -0.74505805969E-08  0.93827000000E+00  0.93827000000E+00 0. -1.
     999902    2    1    2    0    0  0.15363281323E-01 -0.43421248073E-02 -0.16534578387E-01  0.10209457283E+01  0.10206869763E+01 0.  0.
     999903    2    3    3    0    0 -0.40927389592E-01  0.68025415375E-01  0.99243475053E-01  0.12863958236E+00  0.19908954131E-01 0.  0.
         14    1    1    2    0    0 -0.15363281323E-01  0.43421248073E-02  0.16534578387E-01  0.22984271650E-01  0.00000000000E+00 0. -1.
     999901    1    3    3    0    0  0.56290670915E-01 -0.72367540182E-01 -0.11577805344E+00  0.89230614598E+00  0.88000000000E+00 0. -1.
        -11    1    4    4    0    0 -0.13894585383E-01  0.37433407199E-01  0.59531851684E-01  0.71684182101E-01  0.51100000000E-03 0.  1.
         11    1    4    4    0    0 -0.27032804209E-01  0.30592008175E-01  0.39711623369E-01  0.56955400264E-01  0.51100000000E-03 0. -1.
</event>
<event>
 8    1  0.1091347E+005  0.1043930E+01  0.7957747E-01            NaN
         13   -1    0    0    0    0  0.00000000000E+00  0.00000000000E+00  0.74505805969E-08  0.10566000000E+00  0.10566000000E+00 0. -1.
     999900   -1    0    0    0    0 -0.00000000000E+00 -0.00000000000E+00 -0.74505805969E-08  0.93827000000E+00  0.93827000000E+00 0.  1.
     999902    2    1    2    0    0 -0.16148465792E-01 -0.32708117434E-02 -0.17062688154E-01  0.10202106728E+01  0.10199349050E+01 0.  0.
     999903    2    3    3    0    0 -0.39983452763E-01 -0.12366254895E+00 -0.52283419256E-02  0.13161496677E+00  0.20101278808E-01 0.  0.
         14    1    1    2    0    0  0.16148465792E-01  0.32708117434E-02  0.17062688154E-01  0.23719327223E-01  0.00000000000E+00 0. -1.
     999901    1    3    3    0    0  0.23834986971E-01  0.12039173721E+00 -0.11834346228E-01  0.88859570601E+00  0.88000000000E+00 0.  1.
        -11    1    4    4    0    0 -0.78197476098E-02 -0.35468875549E-01 -0.98120250708E-02  0.37626141742E-01  0.51100000000E-03 0. -1.
         11    1    4    4    0    0 -0.32163705153E-01 -0.88193673401E-01  0.45836831452E-02  0.93988825023E-01  0.51100000000E-03 0.  1.
</event>
<event>
 8    1  0.1091347E+005  0.1043930E+01  0.7957747E-01            NaN
         13   -1    0    0    0    0  0.00000000000E+00  0.00000000000E+00  0.74505805969E-08  0.10566000000E+00  0.10566000000E+00 0. -1.
     999900   -1    0    0    0    0 -0.00000000000E+00 -0.00000000000E+00 -0.74505805969E-08  0.93827000000E+00  0.93827000000E+00 0.  1.
     999902    2    1    2    0    0 -0.13834556589E-01 -0.89221396357E-02  0.43262978378E-02  0.10269089429E+01  0.10267678709E+01 0.  0.
     999903    2    3    3    0    0  0.10416997461E-01 -0.13572678809E+00  0.73591935394E-03  0.13748190961E+00  0.19247312783E-01 0.  0.
         14    1    1    2    0    0  0.13834556589E-01  0.89221396357E-02 -0.43262978378E-02  0.17021057097E-01  0.00000000000E+00 0. -1.
     999901    1    3    3    0    0 -0.24251554050E-01  0.12680464846E+00  0.35903784839E-02  0.88942703330E+00  0.88000000000E+00 0.  1.
        -11    1    4    4    0    0  0.76692160359E-02 -0.38560461834E-01  0.75480812396E-02  0.40036992181E-01  0.51100000000E-03 0. -1.
         11    1    4    4    0    0  0.27477814251E-02 -0.97166326258E-01 -0.68121618857E-02  0.97444917425E-01  0.51100000000E-03 0.  1.
</event>
<event>
 8    1  0.1091347E+005  0.1043930E+01  0.7957747E-01            NaN
         13   -1    0    0    0    0  0.00000000000E+00  0.00000000000E+00  0.74505805969E-08  0.10566000000E+00  0.10566000000E+00 0. -1.
     999900   -1    0    0    0    0 -0.00000000000E+00 -0.00000000000E+00 -0.74505805969E-08  0.93827000000E+00  0.93827000000E+00 0.  1.
     999902    2    1    2    0    0  0.11686524189E-02  0.17768069078E-01 -0.15545964347E-01  0.10202921694E+01  0.10200183155E+01 0.  0.
     999903    2    3    3    0    0 -0.17325063418E-02 -0.40338902124E-01  0.11996986758E+00  0.12802013829E+00  0.19135257445E-01 0.  0.
         14    1    1    2    0    0 -0.11686524189E-02 -0.17768069078E-01  0.15545964347E-01  0.23637830584E-01  0.00000000000E+00 0.  1.
     999901    1    3    3    0    0  0.29011587607E-02  0.58106971202E-01 -0.13551583193E+00  0.89227203113E+00  0.88000000000E+00 0. -1.
        -11    1    4    4    0    0 -0.10419616271E-01 -0.20155300597E-01  0.59875607261E-01  0.64032444989E-01  0.51100000000E-03 0. -1.
         11    1    4    4    0    0  0.86871099294E-02 -0.20183601527E-01  0.60094260322E-01  0.63987693302E-01  0.51100000000E-03 0.  1.
</event>
<event>
 7    1  0.1091347E+005  0.1043930E+01  0.7957747E-01            NaN
         13   -1    0    0    0    0  0.00000000000E+00  0.00000000000E+00  0.74505805969E-08  0.10566000000E+00  0.10566000000E+00 0. -1.
     999900   -1    0    0    0    0 -0.00000000000E+00 -0.00000000000E+00 -0.74505805969E-08  0.93827000000E+00  0.93827000000E+00 0.  1.
     999903    2    1    2    0    0  0.11197970214E+00  0.53101771011E-02  0.52856051343E-02  0.11387502557E+00  0.19285542615E-01 0.  0.
         14    1    1    2    0    0 -0.80902227938E-02 -0.12812730558E-01  0.39981356221E-01  0.42756597321E-01  0.00000000000E+00 0.  1.
     999901    1    1    2    0    0 -0.10388947935E+00  0.75025534572E-02 -0.45266961356E-01  0.88729837711E+00  0.88000000000E+00 0.  1.
        -11    1    3    3    0    0  0.24665699314E-02 -0.29099187760E-02  0.96409425928E-03  0.39676432867E-02  0.51100000000E-03 0. -1.
         11    1    3    3    0    0  0.10951313221E+00  0.82200958770E-02  0.43215108750E-02  0.10990738228E+00  0.51100000000E-03 0.  1.
</event>
<event>
 8    1  0.1091347E+005  0.1043930E+01  0.7957747E-01            NaN
         13   -1    0    0    0    0  0.00000000000E+00  0.00000000000E+00  0.74505805969E-08  0.10566000000E+00  0.10566000000E+00 0.  1.
     999900   -1    0    0    0    0 -0.00000000000E+00 -0.00000000000E+00 -0.74505805969E-08  0.93827000000E+00  0.93827000000E+00 0. -1.
     999902    2    1    2    0    0 -0.67326434946E-02 -0.21039676644E-01  0.89050192588E-02  0.10201120268E+01  0.10198339332E+01 0.  0.
     999903    2    3    3    0    0  0.10963997753E+00  0.11773892912E-01 -0.64419321938E-01  0.12882319798E+00  0.16912068855E-01 0.  0.
         14    1    1    2    0    0  0.67326434946E-02  0.21039676644E-01 -0.89050192588E-02  0.23817973249E-01  0.00000000000E+00 0.  1.
     999901    1    3    3    0    0 -0.11637262103E+00 -0.32813569555E-01  0.73324341197E-01  0.89128882877E+00  0.88000000000E+00 0. -1.
        -11    1    4    4    0    0  0.45603519709E-01  0.80872776209E-02 -0.36009458200E-01  0.58668792983E-01  0.51100000000E-03 0.  1.
         11    1    4    4    0    0  0.64036457822E-01  0.36866152907E-02 -0.28409863737E-01  0.70154405002E-01  0.51100000000E-03 0. -1.
</event>
<event>
 8    1  0.1111204E+005  0.1043930E+01  0.7957747E-01            NaN
         13   -1    0    0    0    0  0.00000000000E+00  0.00000000000E+00  0.74505805969E-08  0.10566000000E+00  0.10566000000E+00 0.  1.
     999900   -1    0    0    0    0 -0.00000000000E+00 -0.00000000000E+00 -0.74505805969E-08  0.93827000000E+00  0.93827000000E+00 0.  1.
     999902    2    1    2    0    0  0.16781788035E-02 -0.89063212643E-02 -0.22616009343E-01  0.10195656260E+01  0.10192744689E+01 0.  0.
     999903    2    3    3    0    0 -0.66594309324E-01  0.17505998349E-01 -0.11097946937E+00  0.13211599680E+00  0.19923151776E-01 0.  0.
         14    1    1    2    0    0 -0.16781788035E-02  0.89063212643E-02  0.22616009343E-01  0.24364374016E-01  0.00000000000E+00 0.  1.
     999901    1    3    3    0    0  0.68272488127E-01 -0.26412319614E-01  0.88363460031E-01  0.88744962918E+00  0.88000000000E+00 0. -1.
        -11    1    4    4    0    0 -0.22423094196E-01  0.15690276944E-02 -0.21744845242E-01  0.31278689500E-01  0.51100000000E-03 0. -1.
         11    1    4    4    0    0 -0.44171215127E-01  0.15936970655E-01 -0.89234624133E-01  0.10083730731E+00  0.51100000000E-03 0.  1.
</event>
<event>
 8    1  0.1091347E+005  0.1043930E+01  0.7957747E-01            NaN
         13   -1    0    0    0    0  0.00000000000E+00  0.00000000000E+00  0.74505805969E-08  0.10566000000E+00  0.10566000000E+00 0. -1.
     999900   -1    0    0    0    0 -0.00000000000E+00 -0.00000000000E+00 -0.74505805969E-08  0.93827000000E+00  0.93827000000E+00 0. -1.
     999902    2    1    2    0    0  0.10363679475E-01  0.14428523617E-01  0.14313541101E-01  0.10211162847E+01  0.10208614016E+01 0.  0.
     999903    2    3    3    0    0  0.27502797637E-01 -0.31039387564E-01  0.12558702747E+00  0.13277914766E+00  0.11762360493E-01 0.  0.
         14    1    1    2    0    0 -0.10363679475E-01 -0.14428523617E-01 -0.14313541101E-01  0.22813715280E-01  0.00000000000E+00 0.  1.
     999901    1    3    3    0    0 -0.17139118162E-01  0.45467911181E-01 -0.11127348637E+00  0.88833713706E+00  0.88000000000E+00 0. -1.
        -11    1    4    4    0    0  0.24805892133E-01 -0.23067924256E-01  0.88913028032E-01  0.95148563251E-01  0.51100000000E-03 0. -1.
         11    1    4    4    0    0  0.26969055035E-02 -0.79714633076E-02  0.36673999442E-01  0.37630584404E-01  0.51100000000E-03 0.  1.
</event>
<event>
 8    1  0.1091347E+005  0.1043930E+01  0.7957747E-01            NaN
         13   -1    0    0    0    0  0.00000000000E+00  0.00000000000E+00  0.74505805969E-08  0.10566000000E+00  0.10566000000E+00 0.  1.
     999900   -1    0    0    0    0 -0.00000000000E+00 -0.00000000000E+00 -0.74505805969E-08  0.93827000000E+00  0.93827000000E+00 0. -1.
     999902    2    1    2    0    0  0.23758535464E-01 -0.52394800027E-02  0.64310688401E-02  0.10187649686E+01  0.10184541141E+01 0.  0.
     999903    2    3    3    0    0  0.83398379441E-01  0.94558374852E-01 -0.27008648976E-01  0.13048869541E+00  0.20031389390E-01 0.  0.
         14    1    1    2    0    0 -0.23758535464E-01  0.52394800027E-02 -0.64310688401E-02  0.25165031383E-01  0.00000000000E+00 0.  1.
     999901    1    3    3    0    0 -0.59639843977E-01 -0.99797854855E-01  0.33439717816E-01  0.88827627321E+00  0.88000000000E+00 0.  1.
        -11    1    4    4    0    0  0.39982456999E-01  0.59874566863E-01 -0.12772907109E-01  0.73122971094E-01  0.51100000000E-03 0. -1.
         11    1    4    4    0    0  0.43415922443E-01  0.34683807990E-01 -0.14235741867E-01  0.57365724311E-01  0.51100000000E-03 0.  1.
</event>
<event>
 8    1  0.1091347E+005  0.1043930E+01  0.7957747E-01            NaN
         13   -1    0    0    0    0  0.00000000000E+00  0.00000000000E+00  0.74505805969E-08  0.10566000000E+00  0.10566000000E+00 0.  1.
     999900   -1    0    0    0    0 -0.00000000000E+00 -0.00000000000E+00 -0.74505805969E-08  0.93827000000E+00  0.93827000000E+00 0.  1.
     999902    2    1    2    0    0 -0.15278925508E-01  0.85730869352E-02  0.15598571328E-01  0.10204724040E+01  0.10202027585E+01 0.  0.
     999903    2    3    3    0    0 -0.12196891460E+00 -0.27871770470E-01  0.40573584173E-01  0.13292818948E+00  0.19246716827E-01 0.  0.
         14    1    1    2    0    0  0.15278925508E-01 -0.85730869352E-02 -0.15598571328E-01  0.23457596035E-01  0.00000000000E+00 0.  1.
     999901    1    3    3    0    0  0.10668998909E+00  0.36444857405E-01 -0.24975012844E-01  0.88754421449E+00  0.88000000000E+00 0. -1.
        -11    1    4    4    0    0 -0.27146091747E-02 -0.22133063165E-02 -0.15655631618E-02  0.38703923361E-02  0.51100000000E-03 0. -1.
         11    1    4    4    0    0 -0.11925430542E+00 -0.25658464153E-01  0.42139147334E-01  0.12905779714E+00  0.51100000000E-03 0.  1.
</event>
<event>
 8    1  0.1091347E+005  0.1043930E+01  0.7957747E-01            NaN
         13   -1    0    0    0    0  0.00000000000E+00  0.00000000000E+00  0.74505805969E-08  0.10566000000E+00  0.10566000000E+00 0.  1.
     999900   -1    0    0    0    0 -0.00000000000E+00 -0.00000000000E+00 -0.74505805969E-08  0.93827000000E+00  0.93827000000E+00 0. -1.
     999902    2    1    2    0    0 -0.11399113318E-01 -0.11263775999E-01  0.17004421540E-01  0.10205641534E+01  0.10202966375E+01 0.  0.
     999903    2    3    3    0    0 -0.61224191757E-01 -0.30989753352E-01 -0.10868240059E+00  0.13002003331E+00  0.19610670416E-01 0.  0.
         14    1    1    2    0    0  0.11399113318E-01  0.11263775999E-01 -0.17004421540E-01  0.23365846574E-01  0.00000000000E+00 0. -1.
     999901    1    3    3    0    0  0.49825078439E-01  0.19725977353E-01  0.12568682213E+00  0.89054412012E+00  0.88000000000E+00 0.  1.
        -11    1    4    4    0    0 -0.16915167427E-01 -0.25435421076E-02 -0.16020740908E-01  0.23441795063E-01  0.51100000000E-03 0. -1.
         11    1    4    4    0    0 -0.44309024329E-01 -0.28446211244E-01 -0.92661659681E-01  0.10657823824E+00  0.51100000000E-03 0.  1.
</event>
<event>
 8    1  0.1091347E+005  0.1043930E+01  0.7957747E-01            NaN
         13   -1    0    0    0    0  0.00000000000E+00  0.00000000000E+00  0.74505805969E-08  0.10566000000E+00  0.10566000000E+00 0. -1.
     999900   -1    0    0    0    0 -0.00000000000E+00 -0.00000000000E+00 -0.74505805969E-08  0.93827000000E+00  0.93827000000E+00 0. -1.
     999902    2    1    2    0    0 -0.17176916163E-01  0.17170964910E-01  0.67480283940E-03  0.10196330075E+01  0.10193434780E+01 0.  0.
     999903    2    3    3    0    0  0.35543953336E-02  0.71369270696E-01 -0.10786490632E+00  0.13106780896E+00  0.20921902508E-01 0.  0.
         14    1    1    2    0    0  0.17176916163E-01 -0.17170964910E-01 -0.67480283940E-03  0.24296992482E-01  0.00000000000E+00 0. -1.
     999901    1    3    3    0    0 -0.20731311497E-01 -0.54198305786E-01  0.10853970916E+00  0.88856519856E+00  0.88000000000E+00 0.  1.
        -11    1    4    4    0    0  0.76784340090E-02  0.63511175237E-01 -0.83909665470E-01  0.10551644805E+00  0.51100000000E-03 0.  1.
         11    1    4    4    0    0 -0.41240386754E-02  0.78580954591E-02 -0.23955240847E-01  0.25551360908E-01  0.51100000000E-03 0. -1.
</event>
<event>
 8    1  0.1091347E+005  0.1043930E+01  0.7957747E-01            NaN
         13   -1    0    0    0    0  0.00000000000E+00  0.00000000000E+00  0.74505805969E-08  0.10566000000E+00  0.10566000000E+00 0.  1.
     999900   -1    0    0    0    0 -0.00000000000E+00 -0.00000000000E+00 -0.74505805969E-08  0.93827000000E+00  0.93827000000E+00 0. -1.
     999902    2    1    2    0    0 -0.21176044049E-01 -0.47738325449E-02  0.31101808786E-02  0.10220008517E+01  0.10217655570E+01 0.  0.
     999903    2    3    3    0    0 -0.10936755356E+00  0.38383251497E-01 -0.63798497979E-01  0.13401602778E+00  0.21342717533E-01 0.  0.
         14    1    1    2    0    0  0.21176044049E-01  0.47738325449E-02 -0.31101808786E-02  0.21929148269E-01  0.00000000000E+00 0.  1.
     999901    1    3    3    0    0  0.88191509511E-01 -0.43157084041E-01  0.66908678858E-01  0.88798482395E+00  0.88000000000E+00 0.  1.
        -11    1    4    4    0    0 -0.38246476497E-01  0.23654966782E-01 -0.20182732134E-01  0.49294565778E-01  0.51100000000E-03 0. -1.
         11    1    4    4    0    0 -0.71121077063E-01  0.14728284714E-01 -0.43615765845E-01  0.84721462006E-01  0.51100000000E-03 0.  1.
</event>
<event>
 8    1  0.1157607E+005  0.1043930E+01  0.7957747E-01            NaN
         13   -1    0    0    0    0  0.00000000000E+00  0.00000000000E+00  0.74505805969E-08  0.10566000000E+00  0.10566000000E+00 0. -1.
     999900   -1    0    0    0    0 -0.00000000000E+00 -0.00000000000E+00 -0.74505805969E-08  0.93827000000E+00  0.93827000000E+00 0.  1.
     999902    2    1    2    0    0  0.21316229747E-01 -0.13384082197E-02  0.15051846899E-02  0.10225188214E+01  0.10222946256E+01 0.  0.
     999903    2    3    3    0    0 -0.24730819762E-02  0.12658049095E+00 -0.32546531299E-01  0.13230047996E+00  0.20381449286E-01 0.  0.
         14    1    1    2    0    0 -0.21316229747E-01  0.13384082197E-02 -0.15051846899E-02  0.21411178579E-01  0.00000000000E+00 0. -1.
     999901    1    3    3    0    0  0.23789311723E-01 -0.12791889917E+00  0.34051715989E-01  0.89021834146E+00  0.88000000000E+00 0. -1.
        -11    1    4    4    0    0 -0.94948034755E-02  0.72043993083E-01 -0.12298989299E-01  0.73702201400E-01  0.51100000000E-03 0.  1.
         11    1    4    4    0    0  0.70217214993E-02  0.54536497862E-01 -0.20247542000E-01  0.58598278558E-01  0.51100000000E-03 0. -1.
</event>
<event>
 8    1  0.1091347E+005  0.1043930E+01  0.7957747E-01            NaN
         13   -1    0    0    0    0  0.00000000000E+00  0.00000000000E+00  0.74505805969E-08  0.10566000000E+00  0.10566000000E+00 0.  1.
     999900   -1    0    0    0    0 -0.00000000000E+00 -0.00000000000E+00 -0.74505805969E-08  0.93827000000E+00  0.93827000000E+00 0.  1.
     999902    2    1    2    0    0 -0.21256130231E-01  0.18806687897E-02 -0.93984826273E-02  0.10206128076E+01  0.10203464174E+01 0.  0.
     999903    2    3    3    0    0 -0.21414043671E-01  0.69568629733E-01  0.10636382140E+00  0.13045405991E+00  0.20165409365E-01 0.  0.
         14    1    1    2    0    0  0.21256130231E-01 -0.18806687897E-02  0.93984826273E-02  0.23317192438E-01  0.00000000000E+00 0.  1.
     999901    1    3    3    0    0  0.15791343993E-03 -0.67687960943E-01 -0.11576230402E+00  0.89015874765E+00  0.88000000000E+00 0.  1.
        -11    1    4    4    0    0  0.32500137618E-02  0.16618973653E-01  0.20333958957E-01  0.26466656052E-01  0.51100000000E-03 0.  1.
         11    1    4    4    0    0 -0.24664057432E-01  0.52949656080E-01  0.86029862440E-01  0.10398740386E+00  0.51100000000E-03 0. -1.
</event>
<event>
 8    1  0.1091347E+005  0.1043930E+01  0.7957747E-01            NaN
         13   -1    0    0    0    0  0.00000000000E+00  0.00000000000E+00  0.74505805969E-08  0.10566000000E+00  0.10566000000E+00 0. -1.
     999900   -1    0    0    0    0 -0.00000000000E+00 -0.00000000000E+00 -0.74505805969E-08  0.93827000000E+00  0.93827000000E+00 0.  1.
     999902    2    1    2    0    0 -0.56605633489E-02  0.20320005315E-01  0.10003622771E-01  0.10205843995E+01  0.10203173523E+01 0.  0.
     999903    2    3    3    0    0  0.69631956811E-01  0.11214082319E+00 -0.74507671410E-03  0.13254410723E+00  0.11967104373E-01 0.  0.
         14    1    1    2    0    0  0.56605633489E-02 -0.20320005315E-01 -0.10003622771E-01  0.23345600484E-01  0.00000000000E+00 0.  1.
     999901    1    3    3    0    0 -0.75292520160E-01 -0.91820817873E-01  0.10748699485E-01  0.88804029229E+00  0.88000000000E+00 0. -1.
        -11    1    4    4    0    0  0.40416647070E-01  0.61289476071E-01 -0.59886734292E-02  0.73661594931E-01  0.51100000000E-03 0.  1.
         11    1    4    4    0    0  0.29215309741E-01  0.50851347116E-01  0.52435967151E-02  0.58882512297E-01  0.51100000000E-03 0. -1.
</event>
<event>
 8    1  0.1091347E+005  0.1043930E+01  0.7957747E-01            NaN
         13   -1    0    0    0    0  0.00000000000E+00  0.00000000000E+00  0.74505805969E-08  0.10566000000E+00  0.10566000000E+00 0. -1.
     999900   -1    0    0    0    0 -0.00000000000E+00 -0.00000000000E+00 -0.74505805969E-08  0.93827000000E+00  0.93827000000E+00 0. -1.
     999902    2    1    2    0    0 -0.18955590347E-01  0.20776818091E-02  0.12965968746E-01  0.10208703488E+01  0.10206098773E+01 0.  0.
     999903    2    3    3    0    0  0.47763124916E-01 -0.10479975125E+00  0.58575411768E-01  0.13072744234E+00  0.19856519136E-01 0.  0.
         14    1    1    2    0    0  0.18955590347E-01 -0.20776818091E-02 -0.12965968746E-01  0.23059651182E-01  0.00000000000E+00 0.  1.
     999901    1    3    3    0    0 -0.66718715263E-01  0.10687743306E+00 -0.45609443023E-01  0.89014290648E+00  0.88000000000E+00 0.  1.
        -11    1    4    4    0    0  0.42634605408E-01 -0.72620838018E-01  0.40211844247E-01  0.93320679549E-01  0.51100000000E-03 0.  1.
         11    1    4    4    0    0  0.51285195085E-02 -0.32178913234E-01  0.18363567521E-01  0.37406762789E-01  0.51100000000E-03 0. -1.
</event>
<event>
 8    1  0.1091347E+005  0.1043930E+01  0.7957747E-01            NaN
         13   -1    0    0    0    0  0.00000000000E+00  0.00000000000E+00  0.74505805969E-08  0.10566000000E+00  0.10566000000E+00 0.  1.
     999900   -1    0    0    0    0 -0.00000000000E+00 -0.00000000000E+00 -0.74505805969E-08  0.93827000000E+00  0.93827000000E+00 0.  1.
     999902    2    1    2    0    0 -0.86355129751E-02 -0.83940403561E-02  0.18913235613E-01  0.10215080804E+01  0.10212619722E+01 0.  0.
     999903    2    3    3    0    0 -0.11785336700E+00  0.51131364025E-01 -0.22804760726E-01  0.13178216494E+00  0.18510791014E-01 0.  0.
         14    1    1    2    0    0  0.86355129751E-02  0.83940403561E-02 -0.18913235613E-01  0.22421919614E-01  0.00000000000E+00 0. -1.
     999901    1    3    3    0    0  0.10921785402E+00 -0.59525404381E-01  0.41717996339E-01  0.88972591545E+00  0.88000000000E+00 0. -1.
        -11    1    4    4    0    0 -0.45026498489E-01  0.21791323627E-01 -0.15093058703E-04  0.50025080713E-01  0.51100000000E-03 0.  1.
         11    1    4    4    0    0 -0.72826868508E-01  0.29340040399E-01 -0.22789667668E-01  0.81757084223E-01  0.51100000000E-03 0. -1.
</event>
<event>
 8    1  0.1091347E+005  0.1043930E+01  0.7957747E-01            NaN
         13   -1    0    0    0    0  0.00000000000E+00  0.00000000000E+00  0.74505805969E-08  0.10566000000E+00  0.10566000000E+00 0. -1.
     999900   -1    0    0    0    0 -0.00000000000E+00 -0.00000000000E+00 -0.74505805969E-08  0.93827000000E+00  0.93827000000E+00 0. -1.
     999902    2    1    2    0    0 -0.76099797704E-02  0.67945889620E-02 -0.21895663524E-01  0.10197742903E+01  0.10194881582E+01 0.  0.
     999903    2    3    3    0    0 -0.12671558724E+00  0.18620838077E-01 -0.23187350201E-01  0.13167087605E+00  0.19899515817E-01 0.  0.
         14    1    1    2    0    0  0.76099797704E-02 -0.67945889620E-02  0.21895663524E-01  0.24155709727E-01  0.00000000000E+00 0. -1.
     999901    1    3    3    0    0  0.11910560747E+00 -0.11826249115E-01  0.12916866771E-02  0.88810341422E+00  0.88000000000E+00 0. -1.
        -11    1    4    4    0    0 -0.86241860790E-01  0.94924744673E-02 -0.67025500075E-02  0.87022703484E-01  0.51100000000E-03 0. -1.
         11    1    4    4    0    0 -0.40473726452E-01  0.91283636101E-02 -0.16484800194E-01  0.44648172566E-01  0.51100000000E-03 0.  1.
</event>
<event>
 8    1  0.1091347E+005  0.1043930E+01  0.7957747E-01            NaN
         13   -1    0    0    0    0  0.00000000000E+00  0.00000000000E+00  0.74505805969E-08  0.10566000000E+00  0.10566000000E+00 0. -1.
     999900   -1    0    0    0    0 -0.00000000000E+00 -0.00000000000E+00 -0.74505805969E-08  0.93827000000E+00  0.93827000000E+00 0.  1.
     999902    2    1    2    0    0  0.15395279959E-01  0.87049494409E-02 -0.15096236858E-01  0.10206773194E+01  0.10204124181E+01 0.  0.
     999903    2    3    3    0    0  0.93955693295E-01 -0.79905196136E-01  0.40814854896E-01  0.13098661657E+00  0.16707144239E-01 0.  0.
         14    1    1    2    0    0 -0.15395279959E-01 -0.87049494409E-02  0.15096236858E-01  0.23252680643E-01  0.00000000000E+00 0.  1.
     999901    1    3    3    0    0 -0.78560413336E-01  0.88610145577E-01 -0.55911091754E-01  0.88969070279E+00  0.88000000000E+00 0. -1.
        -11    1    4    4    0    0  0.63920585203E-01 -0.44052532583E-01  0.23499883847E-01  0.81110865496E-01  0.51100000000E-03 0.  1.
         11    1    4    4    0    0  0.30035108092E-01 -0.35852663553E-01  0.17314971049E-01  0.49875751075E-01  0.51100000000E-03 0. -1.
</event>
<event>
 8    1  0.1091347E+005  0.1043930E+01  0.7957747E-01            NaN
         13   -1    0    0    0    0  0.00000000000E+00  0.00000000000E+00  0.74505805969E-08  0.10566000000E+00  0.10566000000E+00 0. -1.
     999900   -1    0    0    0    0 -0.00000000000E+00 -0.00000000000E+00 -0.74505805969E-08  0.93827000000E+00  0.93827000000E+00 0.  1.
     999902    2    1    2    0    0 -0.14194619672E-02 -0.88802054185E-02  0.21615790843E-01  0.10205181369E+01  0.10202495540E+01 0.  0.
     999903    2    3    3    0    0  0.81668852970E-01 -0.13908384528E-01 -0.96494476565E-01  0.12873397806E+00  0.19950147748E-01 0.  0.
         14    1    1    2    0    0  0.14194619672E-02  0.88802054185E-02 -0.21615790843E-01  0.23411863111E-01  0.00000000000E+00 0.  1.
     999901    1    3    3    0    0 -0.83088314937E-01  0.50281791093E-02  0.11811026741E+00  0.89178415883E+00  0.88000000000E+00 0. -1.
        -11    1    4    4    0    0  0.32137562912E-01 -0.15015690524E-01 -0.36055281483E-01  0.50581996358E-01  0.51100000000E-03 0. -1.
         11    1    4    4    0    0  0.49531290058E-01  0.11073059960E-02 -0.60439195082E-01  0.78151981706E-01  0.51100000000E-03 0.  1.
</event>
<event>
 8    1  0.1091347E+005  0.1043930E+01  0.7957747E-01            NaN
         13   -1    0    0    0    0  0.00000000000E+00  0.00000000000E+00  0.74505805969E-08  0.10566000000E+00  0.10566000000E+00 0.  1.
     999900   -1    0    0    0    0 -0.00000000000E+00 -0.00000000000E+00 -0.74505805969E-08  0.93827000000E+00  0.93827000000E+00 0. -1.
     999902    2    1    2    0    0 -0.88343768758E-03  0.23283849094E-01 -0.54718286936E-02  0.10199955270E+01  0.10197146738E+01 0.  0.
     999903    2    3    3    0    0 -0.32525012943E-01  0.38049465889E-01 -0.12017430447E+00  0.13186497874E+00  0.20996924597E-01 0.  0.
         14    1    1    2    0    0  0.88343768758E-03 -0.23283849094E-01  0.54718286936E-02  0.23934473047E-01  0.00000000000E+00 0.  1.
     999901    1    3    3    0    0  0.31641575255E-01 -0.14765616795E-01  0.11470247577E+00  0.88813054821E+00  0.88000000000E+00 0.  1.
        -11    1    4    4    0    0 -0.20228896740E-01  0.23962219036E-01 -0.97775656442E-01  0.10268269727E+00  0.51100000000E-03 0. -1.
         11    1    4    4    0    0 -0.12296116202E-01  0.14087246853E-01 -0.22398648023E-01  0.29182281471E-01  0.51100000000E-03 0.  1.
</event>
<event>
 8    1  0.1091347E+005  0.1043930E+01  0.7957747E-01            NaN
         13   -1    0    0    0    0  0.00000000000E+00  0.00000000000E+00  0.74505805969E-08  0.10566000000E+00  0.10566000000E+00 0.  1.
     999900   -1    0    0    0    0 -0.00000000000E+00 -0.00000000000E+00 -0.74505805969E-08  0.93827000000E+00  0.93827000000E+00 0. -1.
     999902    2    1    2    0    0  0.77001255314E-02  0.20637198452E-01  0.11163174641E-01  0.10192358233E+01  0.10189366326E+01 0.  0.
     999903    2    3    3    0    0 -0.52920951649E-01  0.10458798112E-01 -0.11497780254E+00  0.12811851290E+00  0.16865488075E-01 0.  0.
         14    1    1    2    0    0 -0.77001255314E-02 -0.20637198452E-01 -0.11163174641E-01  0.24694176666E-01  0.00000000000E+00 0. -1.
     999901    1    3    3    0    0  0.60621077181E-01  0.10178400341E-01  0.12614097719E+00  0.89111731044E+00  0.88000000000E+00 0.  1.
        -11    1    4    4    0    0 -0.12787860965E-01  0.10226710913E-01 -0.33126728792E-01  0.36956140026E-01  0.51100000000E-03 0. -1.
         11    1    4    4    0    0 -0.40133090684E-01  0.23208719828E-03 -0.81851073752E-01  0.91162372872E-01  0.51100000000E-03 0.  1.
</event>
<event>
 8    1  0.1091347E+005  0.1043930E+01  0.7957747E-01            NaN
         13   -1    0    0    0    0  0.00000000000E+00  0.00000000000E+00  0.74505805969E-08  0.10566000000E+00  0.10566000000E+00 0.  1.
     999900   -1    0    0    0    0 -0.00000000000E+00 -0.00000000000E+00 -0.74505805969E-08  0.93827000000E+00  0.93827000000E+00 0.  1.
     999902    2    1    2    0    0  0.21724421693E-01  0.80766739084E-02 -0.42653800765E-02  0.10203635699E+01  0.10200913872E+01 0.  0.
     999903    2    3    3    0    0  0.16045689744E-01 -0.74723819766E-01 -0.10421500819E+00  0.13082543251E+00  0.20332546815E-01 0.  0.
         14    1    1    2    0    0 -0.21724421693E-01 -0.80766739084E-02  0.42653800765E-02  0.23566430076E-01  0.00000000000E+00 0. -1.
     999901    1    3    3    0    0  0.56787319489E-02  0.82800493674E-01  0.99949628115E-01  0.88953813741E+00  0.88000000000E+00 0. -1.
        -11    1    4    4    0    0  0.12436116152E-01 -0.19757081168E-01 -0.39017849687E-01  0.45471452104E-01  0.51100000000E-03 0. -1.
         11    1    4    4    0    0  0.36095735925E-02 -0.54966738597E-01 -0.65197158505E-01  0.85353980409E-01  0.51100000000E-03 0.  1.
</event>
<event>
 8    1  0.1091347E+005  0.1043930E+01  0.7957747E-01            NaN
         13   -1    0    0    0    0  0.00000000000E+00  0.00000000000E+00  0.74505805969E-08  0.10566000000E+00  0.10566000000E+00 0.  1.
     999900   -1    0    0    0    0 -0.00000000000E+00 -0.00000000000E+00 -0.74505805969E-08  0.93827000000E+00  0.93827000000E+00 0. -1.
     999902    2    1    2    0    0 -0.63820879596E-02 -0.21548841715E-01 -0.76979028853E-02  0.10201741305E+01  0.10198975023E+01 0.  0.
     999903    2    3    3    0    0  0.56261310658E-02 -0.43293113801E-01 -0.12322163690E+00  0.13227619505E+00  0.20185958550E-01 0.  0.
         14    1    1    2    0    0  0.63820879596E-02  0.21548841715E-01  0.76979028853E-02  0.23755869481E-01  0.00000000000E+00 0.  1.
     999901    1    3    3    0    0 -0.12008219025E-01  0.21744272086E-01  0.11552373402E+00  0.88789793547E+00  0.88000000000E+00 0.  1.
        -11    1    4    4    0    0 -0.40486927018E-02 -0.30349744346E-01 -0.94231748446E-01  0.99082705002E-01  0.51100000000E-03 0.  1.
         11    1    4    4    0    0  0.96748237676E-02 -0.12943369455E-01 -0.28989888455E-01  0.33193490045E-01  0.51100000000E-03 0. -1.
</event>
<event>
 8    1  0.1091347E+005  0.1043930E+01  0.7957747E-01            NaN
         13   -1    0    0    0    0  0.00000000000E+00  0.00000000000E+00  0.74505805969E-08  0.10566000000E+00  0.10566000000E+00 0. -1.
     999900   -1    0    0    0    0 -0.00000000000E+00 -0.00000000000E+00 -0.74505805969E-08  0.93827000000E+00  0.93827000000E+00 0.  1.
     999902    2    1    2    0    0  0.18535185988E-01 -0.14928342016E-01  0.31406956424E-02  0.10199243239E+01  0.10196417773E+01 0.  0.
     999903    2    3    3    0    0 -0.10733499786E+00 -0.46134920257E-01 -0.50332013438E-01  0.12881463128E+00  0.20264871593E-01 0.  0.
         14    1    1    2    0    0 -0.18535185988E-01  0.14928342016E-01 -0.31406956424E-02  0.24005676080E-01  0.00000000000E+00 0.  1.
     999901    1    3    3    0    0  0.12587018385E+00  0.31206578241E-01  0.53472709081E-01  0.89110969264E+00  0.88000000000E+00 0. -1.
        -11    1    4    4    0    0 -0.46732706146E-01 -0.17758303794E-01 -0.10995142325E-01  0.51190403916E-01  0.51100000000E-03 0.  1.
         11    1    4    4    0    0 -0.60602291717E-01 -0.28376616464E-01 -0.39336871113E-01  0.77624227360E-01  0.51100000000E-03 0. -1.
</event>
<event>
 8    1  0.1091347E+005  0.1043930E+01  0.7957747E-01            NaN
         13   -1    0    0    0    0  0.00000000000E+00  0.00000000000E+00  0.74505805969E-08  0.10566000000E+00  0.10566000000E+00 0. -1.
     999900   -1    0    0    0    0 -0.00000000000E+00 -0.00000000000E+00 -0.74505805969E-08  0.93827000000E+00  0.93827000000E+00 0.  1.
     999902    2    1    2    0    0 -0.64967339580E-02 -0.20129007469E-01  0.96500001186E-02  0.10206811937E+01  0.10204163817E+01 0.  0.
     999903    2    3    3    0    0  0.11212362096E+00 -0.65828901651E-02 -0.61498978582E-01  0.12977353118E+00  0.21071407411E-01 0.  0.
         14    1    1    2    0    0  0.64967339580E-02  0.20129007469E-01 -0.96500001186E-02  0.23248806337E-01  0.00000000000E+00 0. -1.
     999901    1    3    3    0    0 -0.11862035491E+00 -0.13546117304E-01  0.71148978700E-01  0.89090766248E+00  0.88000000000E+00 0. -1.
        -11    1    4    4    0    0  0.60592754704E-01  0.66030526947E-02 -0.29760674314E-01  0.67830974371E-01  0.51100000000E-03 0. -1.
         11    1    4    4    0    0  0.51530866251E-01 -0.13185942860E-01 -0.31738304267E-01  0.61942556812E-01  0.51100000000E-03 0.  1.
</event>
<event>
 8    1  0.1091347E+005  0.1043930E+01  0.7957747E-01            NaN
         13   -1    0    0    0    0  0.00000000000E+00  0.00000000000E+00  0.74505805969E-08  0.10566000000E+00  0.10566000000E+00 0.  1.
     999900   -1    0    0    0    0 -0.00000000000E+00 -0.00000000000E+00 -0.74505805969E-08  0.93827000000E+00  0.93827000000E+00 0.  1.
     999902    2    1    2    0    0  0.16453632966E-01 -0.11021282263E-01 -0.28261683050E-02  0.10239255523E+01  0.10237301201E+01 0.  0.
     999903    2    3    3    0    0 -0.63420666149E-01 -0.79825912061E-01  0.83527189017E-01  0.13343642656E+00  0.20835822441E-01 0.  0.
         14    1    1    2    0    0 -0.16453632966E-01  0.11021282263E-01  0.28261683050E-02  0.20004447701E-01  0.00000000000E+00 0.  1.
     999901    1    3    3    0    0  0.79874299115E-01  0.68804629797E-01 -0.86353357322E-01  0.89048912574E+00  0.88000000000E+00 0.  1.
        -11    1    4    4    0    0 -0.21985939263E-01 -0.39715570894E-01  0.27762273937E-01  0.53213842859E-01  0.51100000000E-03 0. -1.
         11    1    4    4    0    0 -0.41434726886E-01 -0.40110341167E-01  0.55764915080E-01  0.80222583700E-01  0.51100000000E-03 0.  1.
</event>
<event>
 8    1  0.1091347E+005  0.1043930E+01  0.7957747E-01            NaN
         13   -1    0    0    0    0  0.00000000000E+00  0.00000000000E+00  0.74505805969E-08  0.10566000000E+00  0.10566000000E+00 0.  1.
     999900   -1    0    0    0    0 -0.00000000000E+00 -0.00000000000E+00 -0.74505805969E-08  0.93827000000E+00  0.93827000000E+00 0. -1.
     999902    2    1    2    0    0 -0.15822042973E-01  0.16054470124E-01  0.74275536000E-02  0.10201970776E+01  0.10199209898E+01 0.  0.
     999903    2    3    3    0    0 -0.84560084078E-01  0.26729358126E-01 -0.94900421722E-01  0.13154085266E+00  0.20785559180E-01 0.  0.
         14    1    1    2    0    0  0.15822042973E-01 -0.16054470124E-01 -0.74275536000E-02  0.23732922435E-01  0.00000000000E+00 0.  1.
     999901    1    3    3    0    0  0.68738041104E-01 -0.10674888002E-01  0.10232797532E+00  0.88865622490E+00  0.88000000000E+00 0.  1.
        -11    1    4    4    0    0 -0.38188780897E-01  0.18487132166E-01 -0.57144814051E-01  0.71175472854E-01  0.51100000000E-03 0. -1.
         11    1    4    4    0    0 -0.46371303181E-01  0.82422259601E-02 -0.37755607672E-01  0.60365379806E-01  0.51100000000E-03 0.  1.
</event>
<event>
 8    1  0.1091347E+005  0.1043930E+01  0.7957747E-01            NaN
         13   -1    0    0    0    0  0.00000000000E+00  0.00000000000E+00  0.74505805969E-08  0.10566000000E+00  0.10566000000E+00 0.  1.
     999900   -1    0    0    0    0 -0.00000000000E+00 -0.00000000000E+00 -0.74505805969E-08  0.93827000000E+00  0.93827000000E+00 0.  1.
     999902    2    1    2    0    0 -0.15169362046E-02  0.23532166423E-01  0.14792884641E-02  0.10203026378E+01  0.10200290292E+01 0.  0.
     999903    2    3    3    0    0  0.98952642849E-01  0.38155011154E-01  0.74882916708E-01  0.13142916165E+00  0.20463208766E-01 0.  0.
         14    1    1    2    0    0  0.15169362046E-02 -0.23532166423E-01 -0.14792884641E-02  0.23627362239E-01  0.00000000000E+00 0. -1.
     999901    1    3    3    0    0 -0.10046957905E+00 -0.14622844732E-01 -0.73403628244E-01  0.88887347612E+00  0.88000000000E+00 0.  1.
        -11    1    4    4    0    0  0.76000942301E-01  0.19949721967E-01  0.57403544983E-01  0.97311678307E-01  0.51100000000E-03 0. -1.
         11    1    4    4    0    0  0.22951700548E-01  0.18205289188E-01  0.17479371725E-01  0.34117483338E-01  0.51100000000E-03 0.  1.
</event>
<event>
 8    1  0.1091347E+005  0.1043930E+01  0.7957747E-01            NaN
         13   -1    0    0    0    0  0.00000000000E+00  0.00000000000E+00  0.74505805969E-08  0.10566000000E+00  0.10566000000E+00 0. -1.
     999900   -1    0    0    0    0 -0.00000000000E+00 -0.00000000000E+00 -0.74505805969E-08  0.93827000000E+00  0.93827000000E+00 0.  1.
     999902    2    1    2    0    0 -0.23160263442E-02  0.22611472343E-01 -0.71555003241E-02  0.10201005257E+01  0.10198221603E+01 0.  0.
     999903    2    3    3    0    0 -0.91487405969E-01 -0.64466869971E-01 -0.62228064939E-01  0.12961349043E+00  0.20035020862E-01 0.  0.
         14    1    1    2    0    0  0.23160263442E-02 -0.22611472343E-01  0.71555003241E-02  0.23829474279E-01  0.00000000000E+00 0.  1.
     999901    1    3    3    0    0  0.89171379625E-01  0.87078342314E-01  0.55072564615E-01  0.89048703529E+00  0.88000000000E+00 0. -1.
        -11    1    4    4    0    0 -0.63396828285E-01 -0.41334614686E-01 -0.31476538848E-01  0.81967931697E-01  0.51100000000E-03 0.  1.
         11    1    4    4    0    0 -0.28090577684E-01 -0.23132255285E-01 -0.30751526091E-01  0.47645558735E-01  0.51100000000E-03 0. -1.
</event>
<event>
 8    1  0.1091347E+005  0.1043930E+01  0.7957747E-01            NaN
         13   -1    0    0    0    0  0.00000000000E+00  0.00000000000E+00  0.74505805969E-08  0.10566000000E+00  0.10566000000E+00 0. -1.
     999900   -1    0    0    0    0 -0.00000000000E+00 -0.00000000000E+00 -0.74505805969E-08  0.93827000000E+00  0.93827000000E+00 0.  1.
     999902    2    1    2    0    0 -0.16636917748E-01 -0.95391114326E-02  0.12907371266E-01  0.10208132980E+01  0.10205515212E+01 0.  0.
     999903    2    3    3    0    0 -0.10065242668E+00  0.56599313589E-02 -0.82188098029E-01  0.13158173932E+00  0.19897860341E-01 0.  0.
         14    1    1    2    0    0  0.16636917748E-01  0.95391114326E-02 -0.12907371266E-01  0.23116702016E-01  0.00000000000E+00 0.  1.
     999901    1    3    3    0    0  0.84015508929E-01 -0.15199042792E-01  0.95095469295E-01  0.88923155866E+00  0.88000000000E+00 0.  1.
        -11    1    4    4    0    0 -0.40180758204E-01  0.11803096139E-01 -0.36242704952E-01  0.55385929545E-01  0.51100000000E-03 0. -1.
         11    1    4    4    0    0 -0.60471668473E-01 -0.61431647804E-02 -0.45945393077E-01  0.76195809776E-01  0.51100000000E-03 0.  1.
</event>
<event>
 8    1  0.1091347E+005  0.1043930E+01  0.7957747E-01            NaN
         13   -1    0    0    0    0  0.00000000000E+00  0.00000000000E+00  0.74505805969E-08  0.10566000000E+00  0.10566000000E+00 0. -1.
     999900   -1    0    0    0    0 -0.00000000000E+00 -0.00000000000E+00 -0.74505805969E-08  0.93827000000E+00  0.93827000000E+00 0. -1.
     999902    2    1    2    0    0  0.23681181794E-01 -0.24507285339E-02  0.29203053416E-02  0.10199439077E+01  0.10196618274E+01 0.  0.
     999903    2    3    3    0    0  0.10097071633E+00 -0.41027888823E-01  0.73344879836E-01  0.13291431959E+00  0.20208209659E-01 0.  0.
         14    1    1    2    0    0 -0.23681181794E-01  0.24507285339E-02 -0.29203053416E-02  0.23986092320E-01  0.00000000000E+00 0.  1.
     999901    1    3    3    0    0 -0.77289534537E-01  0.38577160289E-01 -0.70424574494E-01  0.88702958808E+00  0.88000000000E+00 0. -1.
        -11    1    4    4    0    0  0.75968030166E-01 -0.31585657728E-01  0.44307308846E-01  0.93446209765E-01  0.51100000000E-03 0. -1.
         11    1    4    4    0    0  0.25002686166E-01 -0.94422310950E-02  0.29037570990E-01  0.39468109830E-01  0.51100000000E-03 0.  1.
</event>
<event>
 8    1  0.1091347E+005  0.1043930E+01  0.7957747E-01            NaN
         13   -1    0    0    0    0  0.00000000000E+00  0.00000000000E+00  0.74505805969E-08  0.10566000000E+00  0.10566000000E+00 0.  1.
     999900   -1    0    0    0    0 -0.00000000000E+00 -0.00000000000E+00 -0.74505805969E-08  0.93827000000E+00  0.93827000000E+00 0. -1.
     999902    2    1    2    0    0  0.21935844658E-01 -0.45239090601E-02  0.97104617533E-02  0.10195181156E+01  0.10192258081E+01 0.  0.
     999903    2    3    3    0    0 -0.75964181992E-01  0.48375089113E-01 -0.87613568090E-01  0.12718707497E+00  0.19741036810E-01 0.  0.
         14    1    1    2    0    0 -0.21935844658E-01  0.45239090601E-02 -0.97104617533E-02  0.24411884431E-01  0.00000000000E+00 0.  1.
     999901    1    3    3    0    0  0.97900026650E-01 -0.52898998173E-01  0.97324029843E-01  0.89233104060E+00  0.88000000000E+00 0.  1.
        -11    1    4    4    0    0 -0.13137645755E-01  0.18277835394E-01 -0.22455033514E-01  0.31798846737E-01  0.51100000000E-03 0. -1.
         11    1    4    4    0    0 -0.62826536237E-01  0.30097253718E-01 -0.65158534576E-01  0.95388228236E-01  0.51100000000E-03 0.  1.
</event>
<event>
 8    1  0.1091347E+005  0.1043930E+01  0.7957747E-01            NaN
         13   -1    0    0    0    0  0.00000000000E+00  0.00000000000E+00  0.74505805969E-08  0.10566000000E+00  0.10566000000E+00 0.  1.
     999900   -1    0    0    0    0 -0.00000000000E+00 -0.00000000000E+00 -0.74505805969E-08  0.93827000000E+00  0.93827000000E+00 0.  1.
     999902    2    1    2    0    0  0.17713417099E-01  0.13463526245E-01 -0.71661253747E-02  0.10205551195E+01  0.10202873943E+01 0.  0.
     999903    2    3    3    0    0  0.76198145633E-01 -0.56222949246E-01 -0.89822509914E-01  0.13201207260E+00  0.19797136277E-01 0.  0.
         14    1    1    2    0    0 -0.17713417099E-01 -0.13463526245E-01  0.71661253747E-02  0.23374880474E-01  0.00000000000E+00 0. -1.
     999901    1    3    3    0    0 -0.58484728534E-01  0.69686475491E-01  0.82656384540E-01  0.88854304693E+00  0.88000000000E+00 0. -1.
        -11    1    4    4    0    0  0.55203810493E-01 -0.34324520264E-01 -0.71198724248E-01  0.96411372980E-01  0.51100000000E-03 0. -1.
         11    1    4    4    0    0  0.20994335139E-01 -0.21898428981E-01 -0.18623785667E-01  0.35600699619E-01  0.51100000000E-03 0.  1.
</event>
<event>
 8    1  0.1091347E+005  0.1043930E+01  0.7957747E-01            NaN
         13   -1    0    0    0    0  0.00000000000E+00  0.00000000000E+00  0.74505805969E-08  0.10566000000E+00  0.10566000000E+00 0.  1.
     999900   -1    0    0    0    0 -0.00000000000E+00 -0.00000000000E+00 -0.74505805969E-08  0.93827000000E+00  0.93827000000E+00 0. -1.
     999902    2    1    2    0    0  0.56053733854E-02  0.20683372128E-01 -0.91394449989E-02  0.10206329713E+01  0.10203670469E+01 0.  0.
     999903    2    3    3    0    0  0.61325074129E-02  0.11024101767E+00 -0.73101826819E-01  0.13377783312E+00  0.19024771398E-01 0.  0.
         14    1    1    2    0    0 -0.56053733854E-02 -0.20683372128E-01  0.91394449989E-02  0.23297028744E-01  0.00000000000E+00 0.  1.
     999901    1    3    3    0    0 -0.52713402747E-03 -0.89557645542E-01  0.63962381820E-01  0.88685513813E+00  0.88000000000E+00 0.  1.
        -11    1    4    4    0    0  0.10842116290E-01  0.38812937788E-01 -0.29697687506E-01  0.50062055388E-01  0.51100000000E-03 0.  1.
         11    1    4    4    0    0 -0.47096088775E-02  0.71428079882E-01 -0.43404139313E-01  0.83715777735E-01  0.51100000000E-03 0. -1.
</event>
<event>
 8    1  0.1091347E+005  0.1043930E+01  0.7957747E-01            NaN
         13   -1    0    0    0    0  0.00000000000E+00  0.00000000000E+00  0.74505805969E-08  0.10566000000E+00  0.10566000000E+00 0.  1.
     999900   -1    0    0    0    0 -0.00000000000E+00 -0.00000000000E+00 -0.74505805969E-08  0.93827000000E+00  0.93827000000E+00 0.  1.
     999902    2    1    2    0    0 -0.85464011360E-02 -0.30983425204E-02 -0.21874056353E-01  0.10202421331E+01  0.10199671049E+01 0.  0.
     999903    2    3    3    0    0  0.73563525377E-01  0.84426408409E-01 -0.65148817008E-01  0.13104287139E+00  0.19709263822E-01 0.  0.
         14    1    1    2    0    0  0.85464011360E-02  0.30983425204E-02  0.21874056353E-01  0.23687866938E-01  0.00000000000E+00 0.  1.
     999901    1    3    3    0    0 -0.82109926513E-01 -0.87524750930E-01  0.43274760656E-01  0.88919926168E+00  0.88000000000E+00 0.  1.
        -11    1    4    4    0    0  0.40256308793E-01  0.56436673785E-01 -0.32050320598E-01  0.76375079162E-01  0.51100000000E-03 0. -1.
         11    1    4    4    0    0  0.33307216584E-01  0.27989734624E-01 -0.33098496410E-01  0.54667792223E-01  0.51100000000E-03 0.  1.
</event>
<event>
 8    1  0.1091347E+005  0.1043930E+01  0.7957747E-01            NaN
         13   -1    0    0    0    0  0.00000000000E+00  0.00000000000E+00  0.74505805969E-08  0.10566000000E+00  0.10566000000E+00 0.  1.
     999900   -1    0    0    0    0 -0.00000000000E+00 -0.00000000000E+00 -0.74505805969E-08  0.93827000000E+00  0.93827000000E+00 0. -1.
     999902    2    1    2    0    0  0.15655163024E-01 -0.16690400989E-01  0.10544457475E-01  0.10187339845E+01  0.10184223544E+01 0.  0.
     999903    2    3    3    0    0 -0.56746605885E-02 -0.60639697900E-01  0.11454060103E+00  0.13126471744E+00  0.20037515436E-01 0.  0.
         14    1    1    2    0    0 -0.15655163024E-01  0.16690400989E-01 -0.10544457475E-01  0.25196015517E-01  0.00000000000E+00 0.  1.
     999901    1    3    3    0    0  0.21329823613E-01  0.43949296911E-01 -0.10399614356E+00  0.88746926704E+00  0.88000000000E+00 0. -1.
        -11    1    4    4    0    0  0.54764122691E-02 -0.53800943483E-02  0.12194612566E-01  0.14418952915E-01  0.51100000000E-03 0.  1.
         11    1    4    4    0    0 -0.11151072858E-01 -0.55259603552E-01  0.10234598847E+00  0.11684576452E+00  0.51100000000E-03 0. -1.
</event>
<event>
 8    1  0.1091347E+005  0.1043930E+01  0.7957747E-01            NaN
         13   -1    0    0    0    0  0.00000000000E+00  0.00000000000E+00  0.74505805969E-08  0.10566000000E+00  0.10566000000E+00 0.  1.
     999900   -1    0    0    0    0 -0.00000000000E+00 -0.00000000000E+00 -0.74505805969E-08  0.93827000000E+00  0.93827000000E+00 0.  1.
     999902    2    1    2    0    0  0.23734484811E-01  0.13745694779E-02  0.29309637512E-02  0.10199757570E+01  0.10196944342E+01 0.  0.
     999903    2    3    3    0    0  0.91999737200E-01 -0.92955246446E-01 -0.15922755843E-03  0.13230024862E+00  0.19967497177E-01 0.  0.
         14    1    1    2    0    0 -0.23734484811E-01 -0.13745694779E-02 -0.29309637512E-02  0.23954243027E-01  0.00000000000E+00 0.  1.
     999901    1    3    3    0    0 -0.68265252389E-01  0.94329815924E-01  0.30901913097E-02  0.88767550836E+00  0.88000000000E+00 0. -1.
        -11    1    4    4    0    0  0.69698808890E-01 -0.69606608753E-01  0.84899087265E-02  0.98870337382E-01  0.51100000000E-03 0.  1.
         11    1    4    4    0    0  0.22300928310E-01 -0.23348637693E-01 -0.86491362849E-02  0.33429911233E-01  0.51100000000E-03 0. -1.
</event>
<event>
 8    1  0.1091347E+005  0.1043930E+01  0.7957747E-01            NaN
         13   -1    0    0    0    0  0.00000000000E+00  0.00000000000E+00  0.74505805969E-08  0.10566000000E+00  0.10566000000E+00 0.  1.
     999900   -1    0    0    0    0 -0.00000000000E+00 -0.00000000000E+00 -0.74505805969E-08  0.93827000000E+00  0.93827000000E+00 0.  1.
     999902    2    1    2    0    0  0.18600721306E-01  0.13175109797E-01 -0.62708602758E-02  0.10202890601E+01  0.10200151333E+01 0.  0.
     999903    2    3    3    0    0  0.78519948101E-01 -0.47848463977E-01 -0.92551136456E-01  0.13194313853E+00  0.19708404064E-01 0.  0.
         14    1    1    2    0    0 -0.18600721306E-01 -0.13175109797E-01  0.62708602758E-02  0.23640939910E-01  0.00000000000E+00 0. -1.
     999901    1    3    3    0    0 -0.59919226796E-01  0.61023573774E-01  0.86280276181E-01  0.88834592156E+00  0.88000000000E+00 0.  1.
        -11    1    4    4    0    0  0.57690913861E-01 -0.34502380306E-01 -0.54429887993E-01  0.86495835835E-01  0.51100000000E-03 0. -1.
         11    1    4    4    0    0  0.20829034240E-01 -0.13346083671E-01 -0.38121248463E-01  0.45447302693E-01  0.51100000000E-03 0.  1.
</event>
<event>
 8    1  0.1091347E+005  0.1043930E+01  0.7957747E-01            NaN
         13   -1    0    0    0    0  0.00000000000E+00  0.00000000000E+00  0.74505805969E-08  0.10566000000E+00  0.10566000000E+00 0.  1.
     999900   -1    0    0    0    0 -0.00000000000E+00 -0.00000000000E+00 -0.74505805969E-08  0.93827000000E+00  0.93827000000E+00 0. -1.
     999902    2    1    2    0    0  0.13970554190E-01  0.68424839421E-02  0.17869951025E-01  0.10202375725E+01  0.10199624372E+01 0.  0.
     999903    2    3    3    0    0  0.10859003577E-01  0.84902523227E-01 -0.95227305372E-01  0.12956701563E+00  0.19824617078E-01 0.  0.
         14    1    1    2    0    0 -0.13970554190E-01 -0.68424839421E-02 -0.17869951025E-01  0.23692427493E-01  0.00000000000E+00 0. -1.
     999901    1    3    3    0    0  0.31115506133E-02 -0.78060039285E-01  0.11309725640E+00  0.89067055688E+00  0.88000000000E+00 0. -1.
        -11    1    4    4    0    0  0.47945494350E-02  0.75484851268E-01 -0.75472925300E-01  0.10685211299E+00  0.51100000000E-03 0. -1.
         11    1    4    4    0    0  0.60644541417E-02  0.94176719586E-02 -0.19754380073E-01  0.22714902646E-01  0.51100000000E-03 0.  1.
</event>
<event>
 8    1  0.1091347E+005  0.1043930E+01  0.7957747E-01            NaN
         13   -1    0    0    0    0  0.00000000000E+00  0.00000000000E+00  0.74505805969E-08  0.10566000000E+00  0.10566000000E+00 0. -1.
     999900   -1    0    0    0    0 -0.00000000000E+00 -0.00000000000E+00 -0.74505805969E-08  0.93827000000E+00  0.93827000000E+00 0.  1.
     999902    2    1    2    0    0 -0.16133902643E-01  0.10566961792E-01 -0.16969299237E-01  0.10182410800E+01  0.10179169791E+01 0.  0.
     999903    2    3    3    0    0 -0.12828997491E-01  0.58254265963E-01  0.11104225458E+00  0.12769520283E+00  0.20433791675E-01 0.  0.
         14    1    1    2    0    0  0.16133902643E-01 -0.10566961792E-01  0.16969299237E-01  0.25688920036E-01  0.00000000000E+00 0. -1.
     999901    1    3    3    0    0 -0.33049051514E-02 -0.47687304171E-01 -0.12801155382E+00  0.89054587714E+00  0.88000000000E+00 0.  1.
        -11    1    4    4    0    0 -0.11437097923E-01  0.51876357212E-01  0.10823731635E+00  0.12057172727E+00  0.51100000000E-03 0.  1.
         11    1    4    4    0    0 -0.13918995684E-02  0.63779087509E-02  0.28049382360E-02  0.71234755528E-02  0.51100000000E-03 0. -1.
</event>
<event>
 8    1  0.1091347E+005  0.1043930E+01  0.7957747E-01            NaN
         13   -1    0    0    0    0  0.00000000000E+00  0.00000000000E+00  0.74505805969E-08  0.10566000000E+00  0.10566000000E+00 0.  1.
     999900   -1    0    0    0    0 -0.00000000000E+00 -0.00000000000E+00 -0.74505805969E-08  0.93827000000E+00  0.93827000000E+00 0.  1.
     999902    2    1    2    0    0 -0.19936212909E-01 -0.54940116987E-02  0.13927157320E-02  0.10232037749E+01  0.10229938360E+01 0.  0.
     999903    2    3    3    0    0 -0.28344893164E-01  0.41903755049E-01  0.12313074042E+00  0.13351989798E+00  0.10345349899E-01 0.  0.
         14    1    1    2    0    0  0.19936212909E-01  0.54940116987E-02 -0.13927157320E-02  0.20726225098E-01  0.00000000000E+00 0. -1.
     999901    1    3    3    0    0  0.84086802553E-02 -0.47397766747E-01 -0.12173802469E+00  0.88968387692E+00  0.88000000000E+00 0. -1.
        -11    1    4    4    0    0 -0.87485582441E-02  0.90885966114E-02  0.21424799207E-01  0.24868112147E-01  0.51100000000E-03 0. -1.
         11    1    4    4    0    0 -0.19596334920E-01  0.32815158437E-01  0.10170594122E+00  0.10865178583E+00  0.51100000000E-03 0.  1.
</event>
<event>
 8    1  0.1091347E+005  0.1043930E+01  0.7957747E-01            NaN
         13   -1    0    0    0    0  0.00000000000E+00  0.00000000000E+00  0.74505805969E-08  0.10566000000E+00  0.10566000000E+00 0. -1.
     999900   -1    0    0    0    0 -0.00000000000E+00 -0.00000000000E+00 -0.74505805969E-08  0.93827000000E+00  0.93827000000E+00 0.  1.
     999902    2    1    2    0    0  0.13395160974E-01 -0.19491657424E-01  0.28547036087E-02  0.10201076496E+01  0.10198294526E+01 0.  0.
     999903    2    3    3    0    0 -0.29781412944E-01 -0.11562861896E+00  0.53292103935E-01  0.13238558539E+00  0.20711948191E-01 0.  0.
         14    1    1    2    0    0 -0.13395160974E-01  0.19491657424E-01 -0.28547036087E-02  0.23822350416E-01  0.00000000000E+00 0. -1.
     999901    1    3    3    0    0  0.43176573918E-01  0.96136961534E-01 -0.50437400327E-01  0.88772206420E+00  0.88000000000E+00 0. -1.
        -11    1    4    4    0    0 -0.32389468071E-02 -0.37008225727E-01  0.86052513617E-02  0.38136741076E-01  0.51100000000E-03 0.  1.
         11    1    4    4    0    0 -0.26542466137E-01 -0.78620393230E-01  0.44686852574E-01  0.94248844312E-01  0.51100000000E-03 0. -1.
</event>
<event>
 8    1  0.1091347E+005  0.1043930E+01  0.7957747E-01            NaN
         13   -1    0    0    0    0  0.00000000000E+00  0.00000000000E+00  0.74505805969E-08  0.10566000000E+00  0.10566000000E+00 0.  1.
     999900   -1    0    0    0    0 -0.00000000000E+00 -0.00000000000E+00 -0.74505805969E-08  0.93827000000E+00  0.93827000000E+00 0.  1.
     999902    2    1    2    0    0 -0.26578022903E-01 -0.17569229834E-02  0.28641572992E-02  0.10171404222E+01  0.10167875673E+01 0.  0.
     999903    2    3    3    0    0 -0.64743179758E-01  0.88287000661E-01 -0.65576326553E-01  0.12908153499E+00  0.19378190329E-01 0.  0.
         14    1    1    2    0    0  0.26578022903E-01  0.17569229834E-02 -0.28641572992E-02  0.26789577766E-01  0.00000000000E+00 0.  1.
     999901    1    3    3    0    0  0.38165156855E-01 -0.90043923644E-01  0.68440483852E-01  0.88805888724E+00  0.88000000000E+00 0. -1.
        -11    1    4    4    0    0 -0.27650851187E-01  0.23179151307E-01 -0.18057983214E-01  0.40350892251E-01  0.51100000000E-03 0.  1.
         11    1    4    4    0    0 -0.37092328571E-01  0.65107849354E-01 -0.47518343338E-01  0.88730642739E-01  0.51100000000E-03 0. -1.
</event>
<event>
 8    1  0.1091347E+005  0.1043930E+01  0.7957747E-01            NaN
         13   -1    0    0    0    0  0.00000000000E+00  0.00000000000E+00  0.74505805969E-08  0.10566000000E+00  0.10566000000E+00 0. -1.
     999900   -1    0    0    0    0 -0.00000000000E+00 -0.00000000000E+00 -0.74505805969E-08  0.93827000000E+00  0.93827000000E+00 0. -1.
     999902    2    1    2    0    0 -0.15199667841E-01  0.15981651670E-01 -0.10510862595E-01  0.10194980266E+01  0.10192052320E+01 0.  0.
     999903    2    3    3    0    0 -0.11004219430E+00 -0.62041536108E-01 -0.27543537424E-01  0.13080638452E+00  0.19829953330E-01 0.  0.
         14    1    1    2    0    0  0.15199667841E-01 -0.15981651670E-01  0.10510862595E-01  0.24431973417E-01  0.00000000000E+00 0.  1.
     999901    1    3    3    0    0  0.94842526459E-01  0.78023187778E-01  0.17032674830E-01  0.88869164206E+00  0.88000000000E+00 0.  1.
        -11    1    4    4    0    0 -0.70087626859E-01 -0.41176820382E-01 -0.27225216065E-01  0.85727938773E-01  0.51100000000E-03 0.  1.
         11    1    4    4    0    0 -0.39954567441E-01 -0.20864715725E-01 -0.31832135933E-03  0.45078445749E-01  0.51100000000E-03 0. -1.
</event>
<event>
 8    1  0.1091347E+005  0.1043930E+01  0.7957747E-01            NaN
         13   -1    0    0    0    0  0.00000000000E+00  0.00000000000E+00  0.74505805969E-08  0.10566000000E+00  0.10566000000E+00 0. -1.
     999900   -1    0    0    0    0 -0.00000000000E+00 -0.00000000000E+00 -0.74505805969E-08  0.93827000000E+00  0.93827000000E+00 0.  1.
     999902    2    1    2    0    0  0.14100213979E-01 -0.18763351928E-01 -0.50308635786E-02  0.10199260629E+01  0.10196435577E+01 0.  0.
     999903    2    3    3    0    0  0.90372102553E-01 -0.39234216399E-01  0.85114812377E-01  0.13180292941E+00  0.20519265542E-01 0.  0.
         14    1    1    2    0    0 -0.14100213979E-01  0.18763351928E-01  0.50308635786E-02  0.24003937139E-01  0.00000000000E+00 0. -1.
     999901    1    3    3    0    0 -0.76271888574E-01  0.20470864471E-01 -0.90145675956E-01  0.88812313345E+00  0.88000000000E+00 0.  1.
        -11    1    4    4    0    0  0.26797444372E-01 -0.22193709582E-01  0.30566905114E-01  0.46316957793E-01  0.51100000000E-03 0.  1.
         11    1    4    4    0    0  0.63574658181E-01 -0.17040506817E-01  0.54547907263E-01  0.85485971616E-01  0.51100000000E-03 0. -1.
</event>
<event>
 8    1  0.1091347E+005  0.1043930E+01  0.7957747E-01            NaN
         13   -1    0    0    0    0  0.00000000000E+00  0.00000000000E+00  0.74505805969E-08  0.10566000000E+00  0.10566000000E+00 0.  1.
     999900   -1    0    0    0    0 -0.00000000000E+00 -0.00000000000E+00 -0.74505805969E-08  0.93827000000E+00  0.93827000000E+00 0.  1.
     999902    2    1    2    0    0 -0.21948858955E-02  0.20473568614E-01 -0.11407638428E-01  0.10203902729E+01  0.10201187138E+01 0.  0.
     999903    2    3    3    0    0  0.41945147390E-01  0.11373772548E+00  0.49071107827E-01  0.13230006116E+00  0.19991672595E-01 0.  0.
         14    1    1    2    0    0  0.21948858955E-02 -0.20473568614E-01  0.11407638428E-01  0.23539727067E-01  0.00000000000E+00 0.  1.
     999901    1    3    3    0    0 -0.44140033286E-01 -0.93264156866E-01 -0.60478746255E-01  0.88809021177E+00  0.88000000000E+00 0.  1.
        -11    1    4    4    0    0  0.18629225491E-01  0.54834187770E-01  0.34081431137E-01  0.67198521265E-01  0.51100000000E-03 0.  1.
         11    1    4    4    0    0  0.23315921899E-01  0.58903537710E-01  0.14989676690E-01  0.65101539898E-01  0.51100000000E-03 0. -1.
</event>
<event>
 8    1  0.1091347E+005  0.1043930E+01  0.7957747E-01            NaN
         13   -1    0    0    0    0  0.00000000000E+00  0.00000000000E+00  0.74505805969E-08  0.10566000000E+00  0.10566000000E+00 0.  1.
     999900   -1    0    0    0    0 -0.00000000000E+00 -0.00000000000E+00 -0.74505805969E-08  0.93827000000E+00  0.93827000000E+00 0.  1.
     999902    2    1    2    0    0  0.18173998445E-01  0.12890899371E-01  0.81003912451E-02  0.10202216503E+01  0.10199461407E+01 0.  0.
     999903    2    3    3    0    0  0.38548001350E-01 -0.67625591645E-01  0.10360141333E+00  0.13116684294E+00  0.20305634405E-01 0.  0.
         14    1    1    2    0    0 -0.18173998445E-01 -0.12890899371E-01 -0.81003912451E-02  0.23708349677E-01  0.00000000000E+00 0. -1.
     999901    1    3    3    0    0 -0.20374002905E-01  0.80516491016E-01 -0.95501022084E-01  0.88905480739E+00  0.88000000000E+00 0.  1.
        -11    1    4    4    0    0  0.10379673870E-01 -0.11851786845E-01  0.34929566152E-01  0.38321510848E-01  0.51100000000E-03 0. -1.
         11    1    4    4    0    0  0.28168327480E-01 -0.55773804800E-01  0.68671847176E-01  0.92845332088E-01  0.51100000000E-03 0.  1.
</event>
<event>
 8    1  0.1091347E+005  0.1043930E+01  0.7957747E-01            NaN
         13   -1    0    0    0    0  0.00000000000E+00  0.00000000000E+00  0.74505805969E-08  0.10566000000E+00  0.10566000000E+00 0.  1.
     999900   -1    0    0    0    0 -0.00000000000E+00 -0.00000000000E+00 -0.74505805969E-08  0.93827000000E+00  0.93827000000E+00 0.  1.
     999902    2    1    2    0    0  0.55720834032E-02  0.21852077524E-01 -0.84412574803E-02  0.10198506264E+01  0.10195663215E+01 0.  0.
     999903    2    3    3    0    0  0.12538032289E+00  0.26381268407E-01  0.19778598211E-01  0.13127261177E+00  0.20618170704E-01 0.  0.
         14    1    1    2    0    0 -0.55720834032E-02 -0.21852077524E-01  0.84412574803E-02  0.24079373609E-01  0.00000000000E+00 0.  1.
     999901    1    3    3    0    0 -0.11980823948E+00 -0.45291908828E-02 -0.28219855691E-01  0.88857801462E+00  0.88000000000E+00 0.  1.
        -11    1    4    4    0    0  0.98872589522E-01  0.11998983579E-01  0.14416200317E-01  0.10063723227E+00  0.51100000000E-03 0. -1.
         11    1    4    4    0    0  0.26507733364E-01  0.14382284827E-01  0.53623978940E-02  0.30635379500E-01  0.51100000000E-03 0.  1.
</event>
<event>
 8    1  0.1091347E+005  0.1043930E+01  0.7957747E-01            NaN
         13   -1    0    0    0    0  0.00000000000E+00  0.00000000000E+00  0.74505805969E-08  0.10566000000E+00  0.10566000000E+00 0.  1.
     999900   -1    0    0    0    0 -0.00000000000E+00 -0.00000000000E+00 -0.74505805969E-08  0.93827000000E+00  0.93827000000E+00 0.  1.
     999902    2    1    2    0    0 -0.82597641579E-02 -0.52927833608E-02  0.20298360288E-01  0.10213853623E+01  0.10211365225E+01 0.  0.
     999903    2    3    3    0    0  0.11440824061E+00 -0.12555221058E-01 -0.55935995400E-01  0.12958277236E+00  0.20395593073E-01 0.  0.
         14    1    1    2    0    0  0.82597641579E-02  0.52927833608E-02 -0.20298360288E-01  0.22544637723E-01  0.00000000000E+00 0. -1.
     999901    1    3    3    0    0 -0.12266800476E+00  0.72624376977E-02  0.76234355688E-01  0.89180258992E+00  0.88000000000E+00 0. -1.
        -11    1    4    4    0    0  0.84375076851E-02 -0.66134379071E-02 -0.45022163642E-02  0.11638735759E-01  0.51100000000E-03 0. -1.
         11    1    4    4    0    0  0.10597073292E+00 -0.59417831514E-02 -0.51433779035E-01  0.11794403660E+00  0.51100000000E-03 0.  1.
</event>
<event>
 8    1  0.1091347E+005  0.1043930E+01  0.7957747E-01            NaN
         13   -1    0    0    0    0  0.00000000000E+00  0.00000000000E+00  0.74505805969E-08  0.10566000000E+00  0.10566000000E+00 0.  1.
     999900   -1    0    0    0    0 -0.00000000000E+00 -0.00000000000E+00 -0.74505805969E-08  0.93827000000E+00  0.93827000000E+00 0. -1.
     999902    2    1    2    0    0  0.16339756963E-02  0.16084795512E-01  0.15556599297E-01  0.10214934605E+01  0.10212470277E+01 0.  0.
     999903    2    3    3    0    0 -0.84211111069E-02 -0.11973241042E+00 -0.44089134844E-01  0.12902215463E+00  0.17207537791E-01 0.  0.
         14    1    1    2    0    0 -0.16339756963E-02 -0.16084795512E-01 -0.15556599297E-01  0.22436539504E-01  0.00000000000E+00 0. -1.
     999901    1    3    3    0    0  0.10055086803E-01  0.13581720593E+00  0.59645734141E-01  0.89247130587E+00  0.88000000000E+00 0. -1.
        -11    1    4    4    0    0  0.15736858258E-02 -0.62872048726E-01 -0.16430765607E-01  0.65004631969E-01  0.51100000000E-03 0.  1.
         11    1    4    4    0    0 -0.99947969327E-02 -0.56860361691E-01 -0.27658369237E-01  0.64017522658E-01  0.51100000000E-03 0. -1.
</event>
<event>
 8    1  0.1091347E+005  0.1043930E+01  0.7957747E-01            NaN
         13   -1    0    0    0    0  0.00000000000E+00  0.00000000000E+00  0.74505805969E-08  0.10566000000E+00  0.10566000000E+00 0. -1.
     999900   -1    0    0    0    0 -0.00000000000E+00 -0.00000000000E+00 -0.74505805969E-08  0.93827000000E+00  0.93827000000E+00 0. -1.
     999902    2    1    2    0    0 -0.23405252569E-01  0.12075989844E-01  0.21124701222E-03  0.10175921944E+01  0.10172512935E+01 0.  0.
     999903    2    3    3    0    0  0.50993368394E-01  0.94527285368E-01  0.67059724822E-01  0.12809678130E+00  0.19391941310E-01 0.  0.
         14    1    1    2    0    0  0.23405252569E-01 -0.12075989844E-01 -0.21124701222E-03  0.26337805600E-01  0.00000000000E+00 0.  1.
     999901    1    3    3    0    0 -0.74398620963E-01 -0.82451295525E-01 -0.66848477809E-01  0.88949541310E+00  0.88000000000E+00 0. -1.
        -11    1    4    4    0    0  0.43913620327E-01  0.71896659636E-01  0.44126416562E-01  0.95104876198E-01  0.51100000000E-03 0. -1.
         11    1    4    4    0    0  0.70797480671E-02  0.22630625733E-01  0.22933308260E-01  0.32991905105E-01  0.51100000000E-03 0.  1.
</event>
<event>
 8    1  0.1091347E+005  0.1043930E+01  0.7957747E-01            NaN
         13   -1    0    0    0    0  0.00000000000E+00  0.00000000000E+00  0.74505805969E-08  0.10566000000E+00  0.10566000000E+00 0. -1.
     999900   -1    0    0    0    0 -0.00000000000E+00 -0.00000000000E+00 -0.74505805969E-08  0.93827000000E+00  0.93827000000E+00 0. -1.
     999902    2    1    2    0    0  0.18828627360E-01 -0.60374373775E-02  0.12854877669E-01  0.10203457735E+01  0.10200731747E+01 0.  0.
     999903    2    3    3    0    0 -0.26489806854E-01  0.31617932970E-01 -0.11997931188E+00  0.12842839546E+00  0.19935243337E-01 0.  0.
         14    1    1    2    0    0 -0.18828627360E-01  0.60374373775E-02 -0.12854877669E-01  0.23584226471E-01  0.00000000000E+00 0. -1.
     999901    1    3    3    0    0  0.45318434214E-01 -0.37655370347E-01  0.13283418955E+00  0.89191737807E+00  0.88000000000E+00 0.  1.
        -11    1    4    4    0    0 -0.42961832827E-02  0.12168850027E-01 -0.17285096013E-01  0.21577158455E-01  0.51100000000E-03 0. -1.
         11    1    4    4    0    0 -0.22193623571E-01  0.19449082942E-01 -0.10269421587E+00  0.10685123700E+00  0.51100000000E-03 0.  1.
</event>
<event>
 8    1  0.1091347E+005  0.1043930E+01  0.7957747E-01            NaN
         13   -1    0    0    0    0  0.00000000000E+00  0.00000000000E+00  0.74505805969E-08  0.10566000000E+00  0.10566000000E+00 0. -1.
     999900   -1    0    0    0    0 -0.00000000000E+00 -0.00000000000E+00 -0.74505805969E-08  0.93827000000E+00  0.93827000000E+00 0.  1.
     999902    2    1    2    0    0  0.16460463374E-01  0.53079284932E-02 -0.15910136050E-01  0.10204299279E+01  0.10201592936E+01 0.  0.
     999903    2    3    3    0    0  0.30466228840E-01  0.12145105208E+00 -0.38239942259E-01  0.13240740180E+00  0.19770627615E-01 0.  0.
         14    1    1    2    0    0 -0.16460463374E-01 -0.53079284932E-02  0.15910136050E-01  0.23500072096E-01  0.00000000000E+00 0.  1.
     999901    1    3    3    0    0 -0.14005765467E-01 -0.11614312359E+00  0.22329806209E-01  0.88802252610E+00  0.88000000000E+00 0. -1.
        -11    1    4    4    0    0 -0.18314324588E-02  0.24351227924E-01 -0.67760896856E-02  0.25347839330E-01  0.51100000000E-03 0.  1.
         11    1    4    4    0    0  0.32297661299E-01  0.97099824157E-01 -0.31463852573E-01  0.10705956247E+00  0.51100000000E-03 0. -1.
</event>
<event>
 8    1  0.1091347E+005  0.1043930E+01  0.7957747E-01            NaN
         13   -1    0    0    0    0  0.00000000000E+00  0.00000000000E+00  0.74505805969E-08  0.10566000000E+00  0.10566000000E+00 0. -1.
     999900   -1    0    0    0    0 -0.00000000000E+00 -0.00000000000E+00 -0.74505805969E-08  0.93827000000E+00  0.93827000000E+00 0.  1.
     999902    2    1    2    0    0 -0.84151190432E-02  0.17071955233E-01  0.13586845295E-01  0.10205447857E+01  0.10202768209E+01 0.  0.
     999903    2    3    3    0    0  0.80424339449E-01  0.62426639025E-01 -0.78909941489E-01  0.13009256781E+00  0.18224645366E-01 0.  0.
         14    1    1    2    0    0  0.84151190432E-02 -0.17071955233E-01 -0.13586845295E-01  0.23385214326E-01  0.00000000000E+00 0.  1.
     999901    1    3    3    0    0 -0.88839458492E-01 -0.45354683792E-01  0.92496786785E-01  0.89045221786E+00  0.88000000000E+00 0. -1.
        -11    1    4    4    0    0  0.51304057060E-01  0.39647871966E-01 -0.60937029395E-01  0.88981136736E-01  0.51100000000E-03 0.  1.
         11    1    4    4    0    0  0.29120282390E-01  0.22778767058E-01 -0.17972912094E-01  0.41111431078E-01  0.51100000000E-03 0. -1.
</event>
<event>
 8    1  0.1091347E+005  0.1043930E+01  0.7957747E-01            NaN
         13   -1    0    0    0    0  0.00000000000E+00  0.00000000000E+00  0.74505805969E-08  0.10566000000E+00  0.10566000000E+00 0.  1.
     999900   -1    0    0    0    0 -0.00000000000E+00 -0.00000000000E+00 -0.74505805969E-08  0.93827000000E+00  0.93827000000E+00 0. -1.
     999902    2    1    2    0    0  0.11831463490E-01 -0.18281437402E-01  0.88730916359E-02  0.10204156164E+01  0.10201446485E+01 0.  0.
     999903    2    3    3    0    0 -0.12586618233E+00 -0.13054039551E-01  0.19868877811E-01  0.12962446540E+00  0.19875259054E-01 0.  0.
         14    1    1    2    0    0 -0.11831463490E-01  0.18281437402E-01 -0.88730916359E-02  0.23514383619E-01  0.00000000000E+00 0.  1.
     999901    1    3    3    0    0  0.13769764582E+00 -0.52273978509E-02 -0.10995786175E-01  0.89079115098E+00  0.88000000000E+00 0.  1.
        -11    1    4    4    0    0 -0.94943088014E-01 -0.83812775979E-02  0.23409661904E-01  0.98146366042E-01  0.51100000000E-03 0. -1.
         11    1    4    4    0    0 -0.30923094314E-01 -0.46727619531E-02 -0.35407840931E-02  0.31478099358E-01  0.51100000000E-03 0.  1.
</event>
<event>
 8    1  0.1091347E+005  0.1043930E+01  0.7957747E-01            NaN
         13   -1    0    0    0    0  0.00000000000E+00  0.00000000000E+00  0.74505805969E-08  0.10566000000E+00  0.10566000000E+00 0. -1.
     999900   -1    0    0    0    0 -0.00000000000E+00 -0.00000000000E+00 -0.74505805969E-08  0.93827000000E+00  0.93827000000E+00 0. -1.
     999902    2    1    2    0    0 -0.18711196349E-01  0.14314229052E-02 -0.15176846111E-01  0.10197950772E+01  0.10195094433E+01 0.  0.
     999903    2    3    3    0    0 -0.38747946002E-01 -0.11404750306E+00  0.44568121502E-01  0.13001627614E+00  0.20240512156E-01 0.  0.
         14    1    1    2    0    0  0.18711196349E-01 -0.14314229052E-02  0.15176846111E-01  0.24134922793E-01  0.00000000000E+00 0. -1.
     999901    1    3    3    0    0  0.20036749653E-01  0.11547892597E+00 -0.59744967613E-01  0.88977880107E+00  0.88000000000E+00 0. -1.
        -11    1    4    4    0    0 -0.11656848648E-01 -0.65123617921E-01  0.22258129404E-01  0.69804392248E-01  0.51100000000E-03 0.  1.
         11    1    4    4    0    0 -0.27091097353E-01 -0.48923885141E-01  0.22309992098E-01  0.60211883889E-01  0.51100000000E-03 0. -1.
</event>
<event>
 8    1  0.1091347E+005  0.1043930E+01  0.7957747E-01            NaN
         13   -1    0    0    0    0  0.00000000000E+00  0.00000000000E+00  0.74505805969E-08  0.10566000000E+00  0.10566000000E+00 0. -1.
     999900   -1    0    0    0    0 -0.00000000000E+00 -0.00000000000E+00 -0.74505805969E-08  0.93827000000E+00  0.93827000000E+00 0. -1.
     999902    2    1    2    0    0 -0.16708422872E-01 -0.14824645859E-01 -0.86092845553E-02  0.10199913012E+01  0.10197103477E+01 0.  0.
     999903    2    3    3    0    0  0.13122245033E-01 -0.11611330922E+00  0.56210998558E-01  0.13131198267E+00  0.20704263888E-01 0.  0.
         14    1    1    2    0    0  0.16708422872E-01  0.14824645859E-01  0.86092845553E-02  0.23938698801E-01  0.00000000000E+00 0. -1.
     999901    1    3    3    0    0 -0.29830667906E-01  0.10128866336E+00 -0.64820283113E-01  0.88867931853E+00  0.88000000000E+00 0. -1.
        -11    1    4    4    0    0 -0.48330900300E-02 -0.26664772284E-01  0.17102831490E-01  0.32048975118E-01  0.51100000000E-03 0.  1.
         11    1    4    4    0    0  0.17955335063E-01 -0.89448536932E-01  0.39108167068E-01  0.99263007555E-01  0.51100000000E-03 0. -1.
</event>
<event>
 7    1  0.1091347E+005  0.1043930E+01  0.7957747E-01            NaN
         13   -1    0    0    0    0  0.00000000000E+00  0.00000000000E+00  0.74505805969E-08  0.10566000000E+00  0.10566000000E+00 0. -1.
     999900   -1    0    0    0    0 -0.00000000000E+00 -0.00000000000E+00 -0.74505805969E-08  0.93827000000E+00  0.93827000000E+00 0. -1.
     999902    2    1    2    0    0 -0.14271303226E-01 -0.15295535258E-01  0.10205899044E-01  0.10206537488E+01  0.10203883041E+01 0.  0.
         14    1    1    2    0    0  0.14271303226E-01  0.15295535258E-01 -0.10205899044E-01  0.23276251199E-01  0.00000000000E+00 0.  1.
     999901    1    3    3    0    0 -0.45636206079E-01  0.11103156398E+00  0.31487319489E-01  0.88870812013E+00  0.88000000000E+00 0. -1.
        -11    1    3    3    0    0  0.98099007766E-02 -0.44300846499E-01 -0.61019717800E-02  0.45785306971E-01  0.51100000000E-03 0. -1.
         11    1    3    3    0    0  0.21555002076E-01 -0.82026252733E-01 -0.15179448664E-01  0.86160321696E-01  0.51100000000E-03 0.  1.
</event>
<event>
 8    1  0.1091347E+005  0.1043930E+01  0.7957747E-01            NaN
         13   -1    0    0    0    0  0.00000000000E+00  0.00000000000E+00  0.74505805969E-08  0.10566000000E+00  0.10566000000E+00 0.  1.
     999900   -1    0    0    0    0 -0.00000000000E+00 -0.00000000000E+00 -0.74505805969E-08  0.93827000000E+00  0.93827000000E+00 0.  1.
     999902    2    1    2    0    0  0.10936109043E-01  0.17475644297E-01  0.12359846160E-01  0.10198933109E+01  0.10196100251E+01 0.  0.
     999903    2    3    3    0    0  0.66129412904E-01  0.11852911176E-01 -0.10919177381E+00  0.12980752167E+00  0.20336136790E-01 0.  0.
         14    1    1    2    0    0 -0.10936109043E-01 -0.17475644297E-01 -0.12359846160E-01  0.24036689075E-01  0.00000000000E+00 0. -1.
     999901    1    3    3    0    0 -0.55193303861E-01  0.56227331208E-02  0.12155161997E+00  0.89008578926E+00  0.88000000000E+00 0. -1.
        -11    1    4    4    0    0  0.14650202100E-01  0.26621053342E-02 -0.42635247870E-01  0.45163488664E-01  0.51100000000E-03 0. -1.
         11    1    4    4    0    0  0.51479210804E-01  0.91908058421E-02 -0.66556525941E-01  0.84644033005E-01  0.51100000000E-03 0.  1.
</event>
<event>
 8    1  0.1091347E+005  0.1043930E+01  0.7957747E-01            NaN
         13   -1    0    0    0    0  0.00000000000E+00  0.00000000000E+00  0.74505805969E-08  0.10566000000E+00  0.10566000000E+00 0.  1.
     999900   -1    0    0    0    0 -0.00000000000E+00 -0.00000000000E+00 -0.74505805969E-08  0.93827000000E+00  0.93827000000E+00 0. -1.
     999902    2    1    2    0    0  0.52650358291E-02 -0.63606036985E-03 -0.13631361853E-01  0.10293033394E+01  0.10291994099E+01 0.  0.
     999903    2    3    3    0    0  0.67351097191E-01 -0.55472698092E-01  0.10451182203E+00  0.13755250660E+00  0.19610726688E-01 0.  0.
         14    1    1    2    0    0 -0.52650358291E-02  0.63606036985E-03  0.13631361853E-01  0.14626660625E-01  0.00000000000E+00 0.  1.
     999901    1    3    3    0    0 -0.62086061362E-01  0.54836637723E-01 -0.11814318389E+00  0.89175083277E+00  0.88000000000E+00 0. -1.
        -11    1    4    4    0    0  0.18300588946E-01 -0.26956260140E-01  0.34933580054E-01  0.47772038401E-01  0.51100000000E-03 0.  1.
         11    1    4    4    0    0  0.49050508244E-01 -0.28516437952E-01  0.69578241979E-01  0.89780468201E-01  0.51100000000E-03 0. -1.
</event>
<event>
 8    1  0.1091347E+005  0.1043930E+01  0.7957747E-01            NaN
         13   -1    0    0    0    0  0.00000000000E+00  0.00000000000E+00  0.74505805969E-08  0.10566000000E+00  0.10566000000E+00 0. -1.
     999900   -1    0    0    0    0 -0.00000000000E+00 -0.00000000000E+00 -0.74505805969E-08  0.93827000000E+00  0.93827000000E+00 0.  1.
     999902    2    1    2    0    0 -0.56325115599E-02  0.18364934411E-01 -0.14128859266E-01  0.10200842317E+01  0.10198054810E+01 0.  0.
     999903    2    3    3    0    0  0.77223132581E-01 -0.69456906772E-01  0.68798625612E-01  0.12797734274E+00  0.29279263389E-01 0.  0.
         14    1    1    2    0    0  0.56325115599E-02 -0.18364934411E-01  0.14128859266E-01  0.23845768316E-01  0.00000000000E+00 0. -1.
     999901    1    3    3    0    0 -0.82855644141E-01  0.87821841183E-01 -0.82927484879E-01  0.89210688894E+00  0.88000000000E+00 0.  1.
        -11    1    4    4    0    0  0.53095236378E-01 -0.54728399912E-01  0.34969731130E-01  0.83889481458E-01  0.51100000000E-03 0. -1.
         11    1    4    4    0    0  0.24127896203E-01 -0.14728506860E-01  0.33828894482E-01  0.44087861282E-01  0.51100000000E-03 0.  1.
</event>
<event>
 8    1  0.1091347E+005  0.1043930E+01  0.7957747E-01            NaN
         13   -1    0    0    0    0  0.00000000000E+00  0.00000000000E+00  0.74505805969E-08  0.10566000000E+00  0.10566000000E+00 0.  1.
     999900   -1    0    0    0    0 -0.00000000000E+00 -0.00000000000E+00 -0.74505805969E-08  0.93827000000E+00  0.93827000000E+00 0.  1.
     999902    2    1    2    0    0 -0.60956664586E-02 -0.22531104869E-01 -0.73962886280E-03  0.10205771653E+01  0.10203099507E+01 0.  0.
     999903    2    3    3    0    0 -0.10755136212E+00 -0.71951143025E-01 -0.23296788173E-01  0.13308382801E+00  0.20598603428E-01 0.  0.
         14    1    1    2    0    0  0.60956664586E-02  0.22531104869E-01  0.73962886280E-03  0.23352834668E-01  0.00000000000E+00 0.  1.
     999901    1    3    3    0    0  0.10145569566E+00  0.49420038156E-01  0.22557159310E-01  0.88749333732E+00  0.88000000000E+00 0. -1.
        -11    1    4    4    0    0 -0.57158145649E-01 -0.46763291629E-01 -0.20637682319E-01  0.76681380468E-01  0.51100000000E-03 0. -1.
         11    1    4    4    0    0 -0.50393216467E-01 -0.25187851396E-01 -0.26591058539E-02  0.56402447543E-01  0.51100000000E-03 0.  1.
</event>
<event>
 8    1  0.1091347E+005  0.1043930E+01  0.7957747E-01            NaN
         13   -1    0    0    0    0  0.00000000000E+00  0.00000000000E+00  0.74505805969E-08  0.10566000000E+00  0.10566000000E+00 0. -1.
     999900   -1    0    0    0    0 -0.00000000000E+00 -0.00000000000E+00 -0.74505805969E-08  0.93827000000E+00  0.93827000000E+00 0.  1.
     999902    2    1    2    0    0 -0.10507021354E-01 -0.20332414726E-01 -0.55677971517E-02  0.10203757021E+01  0.10201038028E+01 0.  0.
     999903    2    3    3    0    0 -0.81309866936E-01 -0.68814405211E-01 -0.77688008840E-01  0.13326529671E+00  0.19429250223E-01 0.  0.
         14    1    1    2    0    0  0.10507021354E-01  0.20332414726E-01  0.55677971517E-02  0.23554297940E-01  0.00000000000E+00 0. -1.
     999901    1    3    3    0    0  0.70802845582E-01  0.48481990485E-01  0.72120211688E-01  0.88711040535E+00  0.88000000000E+00 0.  1.
        -11    1    4    4    0    0 -0.72533336715E-01 -0.51992287233E-01 -0.65628152890E-01  0.11077724694E+00  0.51100000000E-03 0.  1.
         11    1    4    4    0    0 -0.87765302211E-02 -0.16822117978E-01 -0.12059855950E-01  0.22488049772E-01  0.51100000000E-03 0. -1.
</event>
<event>
 8    1  0.1091347E+005  0.1043930E+01  0.7957747E-01            NaN
         13   -1    0    0    0    0  0.00000000000E+00  0.00000000000E+00  0.74505805969E-08  0.10566000000E+00  0.10566000000E+00 0. -1.
     999900   -1    0    0    0    0 -0.00000000000E+00 -0.00000000000E+00 -0.74505805969E-08  0.93827000000E+00  0.93827000000E+00 0. -1.
     999902    2    1    2    0    0  0.68027318682E-02 -0.95873701686E-02  0.21585080818E-01  0.10193513397E+01  0.10190549756E+01 0.  0.
     999903    2    3    3    0    0 -0.47627019084E-01 -0.51124941724E-01 -0.10486386678E+00  0.12768026584E+00  0.20584633001E-01 0.  0.
         14    1    1    2    0    0 -0.68027318682E-02  0.95873701686E-02 -0.21585080818E-01  0.24578660288E-01  0.00000000000E+00 0.  1.
     999901    1    3    3    0    0  0.54429750952E-01  0.41537571555E-01  0.12644894759E+00  0.89167107388E+00  0.88000000000E+00 0.  1.
        -11    1    4    4    0    0 -0.19500109585E-01 -0.32982073162E-01 -0.66633334771E-01  0.76865687062E-01  0.51100000000E-03 0. -1.
         11    1    4    4    0    0 -0.28126909498E-01 -0.18142868562E-01 -0.38230532005E-01  0.50814578774E-01  0.51100000000E-03 0.  1.
</event>
<event>
 8    1  0.1091347E+005  0.1043930E+01  0.7957747E-01            NaN
         13   -1    0    0    0    0  0.00000000000E+00  0.00000000000E+00  0.74505805969E-08  0.10566000000E+00  0.10566000000E+00 0. -1.
     999900   -1    0    0    0    0 -0.00000000000E+00 -0.00000000000E+00 -0.74505805969E-08  0.93827000000E+00  0.93827000000E+00 0. -1.
     999902    2    1    2    0    0  0.17213229870E-01  0.25532620182E-02 -0.15737689525E-01  0.10204674916E+01  0.10201977319E+01 0.  0.
     999903    2    3    3    0    0 -0.10335492049E+00 -0.59503903199E-01 -0.46630283950E-01  0.12954542820E+00  0.19613273581E-01 0.  0.
         14    1    1    2    0    0 -0.17213229870E-01 -0.25532620182E-02  0.15737689525E-01  0.23462508414E-01  0.00000000000E+00 0. -1.
     999901    1    3    3    0    0  0.12056815036E+00  0.62057165217E-01  0.30892594425E-01  0.89092206339E+00  0.88000000000E+00 0.  1.
        -11    1    4    4    0    0 -0.56758484849E-01 -0.39017013383E-01 -0.35297724491E-01  0.77395370733E-01  0.51100000000E-03 0. -1.
         11    1    4    4    0    0 -0.46596435642E-01 -0.20486889816E-01 -0.11332559459E-01  0.52150057467E-01  0.51100000000E-03 0.  1.
</event>
<event>
 8    1  0.1091347E+005  0.1043930E+01  0.7957747E-01            NaN
         13   -1    0    0    0    0  0.00000000000E+00  0.00000000000E+00  0.74505805969E-08  0.10566000000E+00  0.10566000000E+00 0. -1.
     999900   -1    0    0    0    0 -0.00000000000E+00 -0.00000000000E+00 -0.74505805969E-08  0.93827000000E+00  0.93827000000E+00 0.  1.
     999902    2    1    2    0    0 -0.15064985296E-01  0.86360373042E-02 -0.16236167958E-01  0.10201571568E+01  0.10198801285E+01 0.  0.
     999903    2    3    3    0    0  0.72096617544E-01  0.13267170690E-01 -0.10695769710E+00  0.13119765930E+00  0.19973401252E-01 0.  0.
         14    1    1    2    0    0  0.15064985296E-01 -0.86360373042E-02  0.16236167958E-01  0.23772843167E-01  0.00000000000E+00 0.  1.
     999901    1    3    3    0    0 -0.87161602840E-01 -0.46311333860E-02  0.90721529140E-01  0.88895949753E+00  0.88000000000E+00 0. -1.
        -11    1    4    4    0    0  0.63812253200E-01  0.10646916526E-01 -0.80096590287E-01  0.10296157238E+00  0.51100000000E-03 0. -1.
         11    1    4    4    0    0  0.82843643435E-02  0.26202541643E-02 -0.26861106811E-01  0.28236086921E-01  0.51100000000E-03 0.  1.
</event>
<event>
 8    1  0.1091347E+005  0.1043930E+01  0.7957747E-01            NaN
         13   -1    0    0    0    0  0.00000000000E+00  0.00000000000E+00  0.74505805969E-08  0.10566000000E+00  0.10566000000E+00 0. -1.
     999900   -1    0    0    0    0 -0.00000000000E+00 -0.00000000000E+00 -0.74505805969E-08  0.93827000000E+00  0.93827000000E+00 0.  1.
     999902    2    1    2    0    0  0.15337303555E-01 -0.14927830598E-02 -0.18408744519E-01  0.10199228520E+01  0.10196402703E+01 0.  0.
     999903    2    3    3    0    0  0.70976547689E-02 -0.20853039624E-01  0.12462911340E+00  0.12812548702E+00  0.19962428510E-01 0.  0.
         14    1    1    2    0    0 -0.15337303555E-01  0.14927830598E-02  0.18408744519E-01  0.24007148026E-01  0.00000000000E+00 0. -1.
     999901    1    3    3    0    0  0.82396487857E-02  0.19360256564E-01 -0.14303785792E+00  0.89179736496E+00  0.88000000000E+00 0.  1.
        -11    1    4    4    0    0 -0.45227440848E-03 -0.10658216820E-01  0.98476194239E-01  0.99053642491E-01  0.51100000000E-03 0. -1.
         11    1    4    4    0    0  0.75499291774E-02 -0.10194822803E-01  0.26152919160E-01  0.29071844527E-01  0.51100000000E-03 0.  1.
</event>
<event>
 8    1  0.1091347E+005  0.1043930E+01  0.7957747E-01            NaN
         13   -1    0    0    0    0  0.00000000000E+00  0.00000000000E+00  0.74505805969E-08  0.10566000000E+00  0.10566000000E+00 0.  1.
     999900   -1    0    0    0    0 -0.00000000000E+00 -0.00000000000E+00 -0.74505805969E-08  0.93827000000E+00  0.93827000000E+00 0. -1.
     999902    2    1    2    0    0 -0.20703459915E-01 -0.14679832059E-03  0.11491832256E-01  0.10202505361E+01  0.10199757053E+01 0.  0.
     999903    2    3    3    0    0 -0.78549803444E-02 -0.64501345499E-01  0.11295942303E+00  0.13199254252E+00  0.20977982329E-01 0.  0.
         14    1    1    2    0    0  0.20703459915E-01  0.14679832059E-03 -0.11491832256E-01  0.23679463905E-01  0.00000000000E+00 0. -1.
     999901    1    3    3    0    0 -0.12848479571E-01  0.64354547178E-01 -0.10146759077E+00  0.88825799357E+00  0.88000000000E+00 0. -1.
        -11    1    4    4    0    0  0.50792017126E-02 -0.38824198806E-01  0.58288802988E-01  0.70220811571E-01  0.51100000000E-03 0. -1.
         11    1    4    4    0    0 -0.12934182057E-01 -0.25677146693E-01  0.54670620043E-01  0.61771730951E-01  0.51100000000E-03 0.  1.
</event>
<event>
 8    1  0.1091347E+005  0.1043930E+01  0.7957747E-01            NaN
         13   -1    0    0    0    0  0.00000000000E+00  0.00000000000E+00  0.74505805969E-08  0.10566000000E+00  0.10566000000E+00 0. -1.
     999900   -1    0    0    0    0 -0.00000000000E+00 -0.00000000000E+00 -0.74505805969E-08  0.93827000000E+00  0.93827000000E+00 0.  1.
     999902    2    1    2    0    0 -0.21311352008E-01  0.72799530239E-02  0.53077743697E-02  0.10207924999E+01  0.10205302465E+01 0.  0.
     999903    2    3    3    0    0 -0.10755966010E+00 -0.74551778573E-01  0.57235017400E-02  0.13279735593E+00  0.21802089362E-01 0.  0.
         14    1    1    2    0    0  0.21311352008E-01 -0.72799530239E-02 -0.53077743697E-02  0.23137500064E-01  0.00000000000E+00 0. -1.
     999901    1    3    3    0    0  0.86248308096E-01  0.81831731597E-01 -0.41572737030E-03  0.88799514400E+00  0.88000000000E+00 0. -1.
        -11    1    4    4    0    0 -0.49737998871E-01 -0.21961228694E-01  0.53328192116E-02  0.54633910524E-01  0.51100000000E-03 0.  1.
         11    1    4    4    0    0 -0.57821661232E-01 -0.52590549879E-01  0.39068252840E-03  0.78163445408E-01  0.51100000000E-03 0. -1.
</event>
<event>
 8    1  0.1091347E+005  0.1043930E+01  0.7957747E-01            NaN
         13   -1    0    0    0    0  0.00000000000E+00  0.00000000000E+00  0.74505805969E-08  0.10566000000E+00  0.10566000000E+00 0.  1.
     999900   -1    0    0    0    0 -0.00000000000E+00 -0.00000000000E+00 -0.74505805969E-08  0.93827000000E+00  0.93827000000E+00 0. -1.
     999902    2    1    2    0    0 -0.60954727483E-02 -0.15382885725E-01  0.15211671297E-01  0.10214537257E+01  0.10212064096E+01 0.  0.
     999903    2    3    3    0    0 -0.12491254583E+00 -0.98808797156E-02 -0.29147522012E-01  0.13234433598E+00  0.31059126447E-01 0.  0.
         14    1    1    2    0    0  0.60954727483E-02  0.15382885725E-01 -0.15211671297E-01  0.22476274266E-01  0.00000000000E+00 0. -1.
     999901    1    3    3    0    0  0.11881707308E+00 -0.55020060090E-02  0.44359193309E-01  0.88910938976E+00  0.88000000000E+00 0.  1.
        -11    1    4    4    0    0 -0.52282713875E-01 -0.17769758059E-01 -0.52266599826E-02  0.55469140674E-01  0.51100000000E-03 0. -1.
         11    1    4    4    0    0 -0.72629831955E-01  0.78888783431E-02 -0.23920862030E-01  0.76875195301E-01  0.51100000000E-03 0.  1.
</event>
<event>
 8    1  0.1091347E+005  0.1043930E+01  0.7957747E-01            NaN
         13   -1    0    0    0    0  0.00000000000E+00  0.00000000000E+00  0.74505805969E-08  0.10566000000E+00  0.10566000000E+00 0. -1.
     999900   -1    0    0    0    0 -0.00000000000E+00 -0.00000000000E+00 -0.74505805969E-08  0.93827000000E+00  0.93827000000E+00 0.  1.
     999902    2    1    2    0    0  0.15316788194E-01 -0.15525639126E-01  0.18361924368E-01  0.10154201817E+01  0.10150198696E+01 0.  0.
     999903    2    3    3    0    0  0.69149483605E-01  0.84420197299E-01 -0.57290638262E-01  0.12490884574E+00  0.20287476831E-01 0.  0.
         14    1    1    2    0    0 -0.15316788194E-01  0.15525639126E-01 -0.18361924368E-01  0.28509818262E-01  0.00000000000E+00 0.  1.
     999901    1    3    3    0    0 -0.53832695411E-01 -0.99945836424E-01  0.75652562630E-01  0.89051133600E+00  0.88000000000E+00 0. -1.
        -11    1    4    4    0    0  0.50664089721E-01  0.46359770426E-01 -0.34883571877E-01  0.77027287432E-01  0.51100000000E-03 0.  1.
         11    1    4    4    0    0  0.18485393884E-01  0.38060426873E-01 -0.22407066385E-01  0.47881558305E-01  0.51100000000E-03 0. -1.
</event>
<event>
 8    1  0.1091347E+005  0.1043930E+01  0.7957747E-01            NaN
         13   -1    0    0    0    0  0.00000000000E+00  0.00000000000E+00  0.74505805969E-08  0.10566000000E+00  0.10566000000E+00 0. -1.
     999900   -1    0    0    0    0 -0.00000000000E+00 -0.00000000000E+00 -0.74505805969E-08  0.93827000000E+00  0.93827000000E+00 0.  1.
     999902    2    1    2    0    0  0.19440900420E-01  0.10053253221E-01  0.71530524062E-02  0.10209043042E+01  0.10206446079E+01 0.  0.
     999903    2    3    3    0    0  0.31733452882E-01 -0.56209808260E-01 -0.11144552314E+00  0.13039460615E+00  0.20398384946E-01 0.  0.
         14    1    1    2    0    0 -0.19440900420E-01 -0.10053253221E-01 -0.71530524062E-02  0.23025695824E-01  0.00000000000E+00 0.  1.
     999901    1    3    3    0    0 -0.12292552463E-01  0.66263061481E-01  0.11859857554E+00  0.89050969803E+00  0.88000000000E+00 0. -1.
        -11    1    4    4    0    0  0.24305367397E-01 -0.51994011975E-01 -0.10506682564E+00  0.11972229173E+00  0.51100000000E-03 0.  1.
         11    1    4    4    0    0  0.74280854857E-02 -0.42157962854E-02 -0.63786974980E-02  0.10672314420E-01  0.51100000000E-03 0. -1.
</event>
<event>
 8    1  0.1091347E+005  0.1043930E+01  0.7957747E-01            NaN
         13   -1    0    0    0    0  0.00000000000E+00  0.00000000000E+00  0.74505805969E-08  0.10566000000E+00  0.10566000000E+00 0.  1.
     999900   -1    0    0    0    0 -0.00000000000E+00 -0.00000000000E+00 -0.74505805969E-08  0.93827000000E+00  0.93827000000E+00 0.  1.
     999902    2    1    2    0    0  0.10030691792E-01  0.97645211307E-02  0.19686184371E-01  0.10197741207E+01  0.10194879846E+01 0.  0.
     999903    2    3    3    0    0  0.86870811458E-01 -0.93536537005E-01 -0.12760034662E-01  0.12981441949E+00  0.19832886464E-01 0.  0.
         14    1    1    2    0    0 -0.10030691792E-01 -0.97645211307E-02 -0.19686184371E-01  0.24155879322E-01  0.00000000000E+00 0. -1.
     999901    1    3    3    0    0 -0.76840119666E-01  0.10330105814E+00  0.32446219033E-01  0.88995970118E+00  0.88000000000E+00 0.  1.
        -11    1    4    4    0    0  0.53586623314E-01 -0.43634062780E-01 -0.43750166108E-02  0.69244924177E-01  0.51100000000E-03 0. -1.
         11    1    4    4    0    0  0.33284188145E-01 -0.49902474225E-01 -0.83850180507E-02  0.60569495317E-01  0.51100000000E-03 0.  1.
</event>
<event>
 8    1  0.1091347E+005  0.1043930E+01  0.7957747E-01            NaN
         13   -1    0    0    0    0  0.00000000000E+00  0.00000000000E+00  0.74505805969E-08  0.10566000000E+00  0.10566000000E+00 0.  1.
     999900   -1    0    0    0    0 -0.00000000000E+00 -0.00000000000E+00 -0.74505805969E-08  0.93827000000E+00  0.93827000000E+00 0. -1.
     999902    2    1    2    0    0  0.11928917409E-01 -0.20153030269E-01 -0.35310239288E-03  0.10205084633E+01  0.10202396558E+01 0.  0.
     999903    2    3    3    0    0  0.34407502111E-01 -0.93582304348E-01  0.84084667082E-01  0.13313769414E+00  0.26718728907E-01 0.  0.
         14    1    1    2    0    0 -0.11928917409E-01  0.20153030269E-01  0.35310239288E-03  0.23421536690E-01  0.00000000000E+00 0.  1.
     999901    1    3    3    0    0 -0.22478584702E-01  0.73429274078E-01 -0.84437769475E-01  0.88737076917E+00  0.88000000000E+00 0. -1.
        -11    1    4    4    0    0  0.27527581345E-01 -0.69047758279E-01  0.46344784752E-01  0.87598292523E-01  0.51100000000E-03 0.  1.
         11    1    4    4    0    0  0.68799207657E-02 -0.24534546068E-01  0.37739882330E-01  0.45539401619E-01  0.51100000000E-03 0. -1.
</event>
<event>
 8    1  0.1091347E+005  0.1043930E+01  0.7957747E-01            NaN
         13   -1    0    0    0    0  0.00000000000E+00  0.00000000000E+00  0.74505805969E-08  0.10566000000E+00  0.10566000000E+00 0. -1.
     999900   -1    0    0    0    0 -0.00000000000E+00 -0.00000000000E+00 -0.74505805969E-08  0.93827000000E+00  0.93827000000E+00 0.  1.
     999902    2    1    2    0    0 -0.12414739496E-01 -0.27407315589E-02  0.19879552556E-01  0.10203326702E+01  0.10200597648E+01 0.  0.
     999903    2    3    3    0    0  0.98399459669E-01  0.79744869332E-01 -0.11447106533E-01  0.12900499715E+00  0.21669222254E-01 0.  0.
         14    1    1    2    0    0  0.12414739496E-01  0.27407315589E-02 -0.19879552556E-01  0.23597329850E-01  0.00000000000E+00 0.  1.
     999901    1    3    3    0    0 -0.11081419917E+00 -0.82485600891E-01  0.31326659088E-01  0.89132767300E+00  0.88000000000E+00 0.  1.
        -11    1    4    4    0    0  0.89337422088E-01  0.68022698929E-01 -0.16168996071E-01  0.11344584660E+00  0.51100000000E-03 0.  1.
         11    1    4    4    0    0  0.90620375814E-02  0.11722170402E-01  0.47218895383E-02  0.15559150551E-01  0.51100000000E-03 0. -1.
</event>
<event>
 8    1  0.1091347E+005  0.1043930E+01  0.7957747E-01            NaN
         13   -1    0    0    0    0  0.00000000000E+00  0.00000000000E+00  0.74505805969E-08  0.10566000000E+00  0.10566000000E+00 0. -1.
     999900   -1    0    0    0    0 -0.00000000000E+00 -0.00000000000E+00 -0.74505805969E-08  0.93827000000E+00  0.93827000000E+00 0.  1.
     999902    2    1    2    0    0  0.28359801803E-02  0.59180214928E-02  0.21927853200E-01  0.10210412144E+01  0.10207846320E+01 0.  0.
     999903    2    3    3    0    0 -0.49166708728E-01 -0.24575065270E-01 -0.11446943060E+00  0.12849523402E+00  0.19658981288E-01 0.  0.
         14    1    1    2    0    0 -0.28359801803E-02 -0.59180214928E-02 -0.21927853200E-01  0.22888785637E-01  0.00000000000E+00 0.  1.
     999901    1    3    3    0    0  0.52002688908E-01  0.30493086763E-01  0.13639728380E+00  0.89254598034E+00  0.88000000000E+00 0. -1.
        -11    1    4    4    0    0 -0.25315291737E-01 -0.35232891505E-02 -0.62950195914E-01  0.67943107442E-01  0.51100000000E-03 0. -1.
         11    1    4    4    0    0 -0.23851416991E-01 -0.21051776119E-01 -0.51519234683E-01  0.60552126582E-01  0.51100000000E-03 0.  1.
</event>
<event>
 8    1  0.1091347E+005  0.1043930E+01  0.7957747E-01            NaN
         13   -1    0    0    0    0  0.00000000000E+00  0.00000000000E+00  0.74505805969E-08  0.10566000000E+00  0.10566000000E+00 0. -1.
     999900   -1    0    0    0    0 -0.00000000000E+00 -0.00000000000E+00 -0.74505805969E-08  0.93827000000E+00  0.93827000000E+00 0. -1.
     999902    2    1    2    0    0  0.18009315420E-01 -0.33291089102E-02  0.15078007770E-01  0.10202073373E+01  0.10199314910E+01 0.  0.
     999903    2    3    3    0    0  0.48878097111E-01  0.91480598217E-01  0.79378604545E-01  0.13224544115E+00  0.20739470022E-01 0.  0.
         14    1    1    2    0    0 -0.18009315420E-01  0.33291089102E-02 -0.15078007770E-01  0.23722662716E-01  0.00000000000E+00 0.  1.
     999901    1    3    3    0    0 -0.30868781691E-01 -0.94809707127E-01 -0.64300596776E-01  0.88796189614E+00  0.88000000000E+00 0.  1.
        -11    1    4    4    0    0  0.24426088367E-01  0.28733110484E-01  0.35996322307E-01  0.52136568468E-01  0.51100000000E-03 0. -1.
         11    1    4    4    0    0  0.24452008744E-01  0.62747487733E-01  0.43382282239E-01  0.80108872677E-01  0.51100000000E-03 0.  1.
</event>
<event>
 8    1  0.1091347E+005  0.1043930E+01  0.7957747E-01            NaN
         13   -1    0    0    0    0  0.00000000000E+00  0.00000000000E+00  0.74505805969E-08  0.10566000000E+00  0.10566000000E+00 0.  1.
     999900   -1    0    0    0    0 -0.00000000000E+00 -0.00000000000E+00 -0.74505805969E-08  0.93827000000E+00  0.93827000000E+00 0. -1.
     999902    2    1    2    0    0  0.17976201716E-01 -0.96085235326E-02 -0.11801915256E-01  0.10203768101E+01  0.10201049366E+01 0.  0.
     999903    2    3    3    0    0 -0.41347348966E-01 -0.11145920006E+00 -0.52641603301E-01  0.13157946303E+00  0.20230179136E-01 0.  0.
         14    1    1    2    0    0 -0.17976201716E-01  0.96085235326E-02  0.11801915256E-01  0.23553189939E-01  0.00000000000E+00 0.  1.
     999901    1    3    3    0    0  0.59323550682E-01  0.10185067653E+00  0.40839688046E-01  0.88879734703E+00  0.88000000000E+00 0.  1.
        -11    1    4    4    0    0 -0.37288213694E-01 -0.79048610470E-01 -0.32782837012E-01  0.93349179007E-01  0.51100000000E-03 0. -1.
         11    1    4    4    0    0 -0.40591352720E-02 -0.32410589590E-01 -0.19858766290E-01  0.38230284020E-01  0.51100000000E-03 0.  1.
</event>
<event>
 8    1  0.1091347E+005  0.1043930E+01  0.7957747E-01            NaN
         13   -1    0    0    0    0  0.00000000000E+00  0.00000000000E+00  0.74505805969E-08  0.10566000000E+00  0.10566000000E+00 0.  1.
     999900   -1    0    0    0    0 -0.00000000000E+00 -0.00000000000E+00 -0.74505805969E-08  0.93827000000E+00  0.93827000000E+00 0. -1.
     999902    2    1    2    0    0 -0.20857584822E-01 -0.31454398917E-02 -0.12228422999E-01  0.10195483067E+01  0.10192567306E+01 0.  0.
     999903    2    3    3    0    0  0.61056865372E-01  0.10706753174E+00 -0.31016469307E-01  0.12870047072E+00  0.20258149799E-01 0.  0.
         14    1    1    2    0    0  0.20857584822E-01  0.31454398917E-02  0.12228422999E-01  0.24381693251E-01  0.00000000000E+00 0.  1.
     999901    1    3    3    0    0 -0.81914450194E-01 -0.11021297164E+00  0.18788046307E-01  0.89084783603E+00  0.88000000000E+00 0. -1.
        -11    1    4    4    0    0  0.26077190539E-01  0.60056865679E-01 -0.23760647820E-01  0.69653976824E-01  0.51100000000E-03 0. -1.
         11    1    4    4    0    0  0.34979674834E-01  0.47010666066E-01 -0.72558214863E-02  0.59046493900E-01  0.51100000000E-03 0.  1.
</event>
<event>
 8    1  0.1091347E+005  0.1043930E+01  0.7957747E-01            NaN
         13   -1    0    0    0    0  0.00000000000E+00  0.00000000000E+00  0.74505805969E-08  0.10566000000E+00  0.10566000000E+00 0.  1.
     999900   -1    0    0    0    0 -0.00000000000E+00 -0.00000000000E+00 -0.74505805969E-08  0.93827000000E+00  0.93827000000E+00 0. -1.
     999902    2    1    2    0    0 -0.12045931029E-01  0.85662042436E-02  0.18522235794E-01  0.10202327949E+01  0.10199575473E+01 0.  0.
     999903    2    3    3    0    0  0.12016373169E-01 -0.12717894742E+00  0.56997748168E-02  0.12940724736E+00  0.19871344843E-01 0.  0.
         14    1    1    2    0    0  0.12045931029E-01 -0.85662042436E-02 -0.18522235794E-01  0.23697205073E-01  0.00000000000E+00 0. -1.
     999901    1    3    3    0    0 -0.24062304197E-01  0.13574515167E+00  0.12822460977E-01  0.89082554756E+00  0.88000000000E+00 0.  1.
        -11    1    4    4    0    0 -0.50142478815E-02 -0.33807566012E-01 -0.15600100399E-02  0.34216793447E-01  0.51100000000E-03 0.  1.
         11    1    4    4    0    0  0.17030621050E-01 -0.93371381410E-01  0.72597848568E-02  0.95190453917E-01  0.51100000000E-03 0. -1.
</event>
<event>
 8    1  0.1091347E+005  0.1043930E+01  0.7957747E-01            NaN
         13   -1    0    0    0    0  0.00000000000E+00  0.00000000000E+00  0.74505805969E-08  0.10566000000E+00  0.10566000000E+00 0. -1.
     999900   -1    0    0    0    0 -0.00000000000E+00 -0.00000000000E+00 -0.74505805969E-08  0.93827000000E+00  0.93827000000E+00 0. -1.
     999902    2    1    2    0    0  0.21971636828E-01 -0.21301083625E-01  0.79675987970E-02  0.10123076721E+01  0.10118136446E+01 0.  0.
     999903    2    3    3    0    0  0.10161666333E+00  0.18385648566E-01 -0.67004544536E-01  0.12464828407E+00  0.19585897813E-01 0.  0.
         14    1    1    2    0    0 -0.21971636828E-01  0.21301083625E-01 -0.79675987970E-02  0.31622327857E-01  0.00000000000E+00 0.  1.
     999901    1    3    3    0    0 -0.79645026504E-01 -0.39686732191E-01  0.74972143333E-01  0.88765938807E+00  0.88000000000E+00 0.  1.
        -11    1    4    4    0    0  0.25158953356E-01  0.10340053156E-02 -0.76816496364E-02  0.26330798756E-01  0.51100000000E-03 0.  1.
         11    1    4    4    0    0  0.76457709975E-01  0.17351643250E-01 -0.59322894899E-01  0.98317485314E-01  0.51100000000E-03 0. -1.
</event>
<event>
 8    1  0.1091347E+005  0.1043930E+01  0.7957747E-01            NaN
         13   -1    0    0    0    0  0.00000000000E+00  0.00000000000E+00  0.74505805969E-08  0.10566000000E+00  0.10566000000E+00 0. -1.
     999900   -1    0    0    0    0 -0.00000000000E+00 -0.00000000000E+00 -0.74505805969E-08  0.93827000000E+00  0.93827000000E+00 0. -1.
     999902    2    1    2    0    0  0.14277461854E-01 -0.12069296981E-01 -0.13063951694E-01  0.10211225302E+01  0.10208677882E+01 0.  0.
     999903    2    3    3    0    0  0.55186426238E-01  0.11684331144E+00  0.33596179812E-02  0.13063853950E+00  0.18900791030E-01 0.  0.
         14    1    1    2    0    0 -0.14277461854E-01  0.12069296981E-01  0.13063951694E-01  0.22807469839E-01  0.00000000000E+00 0. -1.
     999901    1    3    3    0    0 -0.40908964385E-01 -0.12891260842E+00 -0.16423569675E-01  0.89048399066E+00  0.88000000000E+00 0. -1.
        -11    1    4    4    0    0  0.19545850823E-01  0.60176883237E-01  0.65899385819E-02  0.63615925459E-01  0.51100000000E-03 0. -1.
         11    1    4    4    0    0  0.35640575415E-01  0.56666428202E-01 -0.32303206006E-02  0.67022614044E-01  0.51100000000E-03 0.  1.
</event>
<event>
 8    1  0.1091347E+005  0.1043930E+01  0.7957747E-01            NaN
         13   -1    0    0    0    0  0.00000000000E+00  0.00000000000E+00  0.74505805969E-08  0.10566000000E+00  0.10566000000E+00 0. -1.
     999900   -1    0    0    0    0 -0.00000000000E+00 -0.00000000000E+00 -0.74505805969E-08  0.93827000000E+00  0.93827000000E+00 0. -1.
     999902    2    1    2    0    0  0.51589757443E-02  0.14597367565E-01 -0.16979683182E-01  0.10209515794E+01  0.10206929606E+01 0.  0.
     999903    2    3    3    0    0 -0.30574480713E-01 -0.12154074903E+00 -0.26658943828E-01  0.12971415047E+00  0.20201707873E-01 0.  0.
         14    1    1    2    0    0 -0.51589757443E-02 -0.14597367565E-01  0.16979683182E-01  0.22978420562E-01  0.00000000000E+00 0. -1.
     999901    1    3    3    0    0  0.35733456457E-01  0.13613811660E+00  0.96792606456E-02  0.89123742896E+00  0.88000000000E+00 0. -1.
        -11    1    4    4    0    0 -0.32461201463E-01 -0.11333143463E+00 -0.28000296848E-01  0.12116939144E+00  0.51100000000E-03 0. -1.
         11    1    4    4    0    0  0.18867207500E-02 -0.82093143990E-02  0.13413530199E-02  0.85447590378E-02  0.51100000000E-03 0.  1.
</event>
<event>
 8    1  0.1091347E+005  0.1043930E+01  0.7957747E-01            NaN
         13   -1    0    0    0    0  0.00000000000E+00  0.00000000000E+00  0.74505805969E-08  0.10566000000E+00  0.10566000000E+00 0.  1.
     999900   -1    0    0    0    0 -0.00000000000E+00 -0.00000000000E+00 -0.74505805969E-08  0.93827000000E+00  0.93827000000E+00 0. -1.
     999902    2    1    2    0    0 -0.98639176098E-02 -0.53186370802E-02 -0.20570300831E-01  0.10205051831E+01  0.10202362994E+01 0.  0.
     999903    2    3    3    0    0 -0.98980035750E-01 -0.80561279675E-01 -0.30588945947E-01  0.13275324081E+00  0.20014296653E-01 0.  0.
         14    1    1    2    0    0  0.98639176098E-02  0.53186370802E-02  0.20570300831E-01  0.23424816911E-01  0.00000000000E+00 0.  1.
     999901    1    3    3    0    0  0.89116118140E-01  0.75242642595E-01  0.10018645116E-01  0.88775194228E+00  0.88000000000E+00 0.  1.
        -11    1    4    4    0    0 -0.70409230744E-01 -0.48023321457E-01 -0.26512789921E-01  0.89257427300E-01  0.51100000000E-03 0.  1.
         11    1    4    4    0    0 -0.28570805006E-01 -0.32537958218E-01 -0.40761560262E-02  0.43495813507E-01  0.51100000000E-03 0. -1.
</event>
<event>
 8    1  0.1091347E+005  0.1043930E+01  0.7957747E-01            NaN
         13   -1    0    0    0    0  0.00000000000E+00  0.00000000000E+00  0.74505805969E-08  0.10566000000E+00  0.10566000000E+00 0.  1.
     999900   -1    0    0    0    0 -0.00000000000E+00 -0.00000000000E+00 -0.74505805969E-08  0.93827000000E+00  0.93827000000E+00 0.  1.
     999902    2    1    2    0    0 -0.89248114424E-02 -0.95794506390E-02 -0.19254581445E-01  0.10206457341E+01  0.10203801044E+01 0.  0.
     999903    2    3    3    0    0  0.52990807024E-01  0.11541656068E+00 -0.18265085437E-01  0.12965834596E+00  0.18672579419E-01 0.  0.
         14    1    1    2    0    0  0.89248114424E-02  0.95794506390E-02  0.19254581445E-01  0.23284265942E-01  0.00000000000E+00 0.  1.
     999901    1    3    3    0    0 -0.61915618467E-01 -0.12499601132E+00 -0.98949600812E-03  0.89098738810E+00  0.88000000000E+00 0.  1.
        -11    1    4    4    0    0  0.21986768613E-01  0.67137611128E-01 -0.53961230506E-02  0.70853765511E-01  0.51100000000E-03 0. -1.
         11    1    4    4    0    0  0.31004038412E-01  0.48278949550E-01 -0.12868962386E-01  0.58804580445E-01  0.51100000000E-03 0.  1.
</event>
<event>
 8    1  0.1091347E+005  0.1043930E+01  0.7957747E-01            NaN
         13   -1    0    0    0    0  0.00000000000E+00  0.00000000000E+00  0.74505805969E-08  0.10566000000E+00  0.10566000000E+00 0.  1.
     999900   -1    0    0    0    0 -0.00000000000E+00 -0.00000000000E+00 -0.74505805969E-08  0.93827000000E+00  0.93827000000E+00 0. -1.
     999902    2    1    2    0    0  0.23241347193E-01 -0.24954381258E-02 -0.44105958877E-02  0.10201425918E+01  0.10198652200E+01 0.  0.
     999903    2    3    3    0    0  0.31154726396E-01  0.72347987567E-01  0.10214232320E+00  0.13052599774E+00  0.19978328635E-01 0.  0.
         14    1    1    2    0    0 -0.23241347193E-01  0.24954381258E-02  0.44105958877E-02  0.23787408158E-01  0.00000000000E+00 0. -1.
     999901    1    3    3    0    0 -0.79133792033E-02 -0.74843425693E-01 -0.10655291909E+00  0.88961659410E+00  0.88000000000E+00 0. -1.
        -11    1    4    4    0    0  0.16448576131E-02  0.23480950245E-01  0.37556204364E-01  0.44325953890E-01  0.51100000000E-03 0. -1.
         11    1    4    4    0    0  0.29509868783E-01  0.48867037322E-01  0.64586118835E-01  0.86200043848E-01  0.51100000000E-03 0.  1.
</event>
<event>
 8    1  0.1091347E+005  0.1043930E+01  0.7957747E-01            NaN
         13   -1    0    0    0    0  0.00000000000E+00  0.00000000000E+00  0.74505805969E-08  0.10566000000E+00  0.10566000000E+00 0.  1.
     999900   -1    0    0    0    0 -0.00000000000E+00 -0.00000000000E+00 -0.74505805969E-08  0.93827000000E+00  0.93827000000E+00 0. -1.
     999902    2    1    2    0    0 -0.22994469802E-01  0.32112167884E-02  0.47592818465E-03  0.10207075096E+01  0.10204433037E+01 0.  0.
     999903    2    3    3    0    0 -0.38663203885E-01  0.25883988127E-01  0.12189212739E+00  0.13194350420E+00  0.19661470052E-01 0.  0.
         14    1    1    2    0    0  0.22994469802E-01 -0.32112167884E-02 -0.47592818465E-03  0.23222490443E-01  0.00000000000E+00 0. -1.
     999901    1    3    3    0    0  0.15668734083E-01 -0.22672771338E-01 -0.12141619921E+00  0.88876400536E+00  0.88000000000E+00 0. -1.
        -11    1    4    4    0    0 -0.31083292838E-01  0.12640060178E-01  0.66532234551E-01  0.74516720072E-01  0.51100000000E-03 0.  1.
         11    1    4    4    0    0 -0.75799110473E-02  0.13243927949E-01  0.55359892841E-01  0.57426784128E-01  0.51100000000E-03 0. -1.
</event>
<event>
 8    1  0.1091347E+005  0.1043930E+01  0.7957747E-01            NaN
         13   -1    0    0    0    0  0.00000000000E+00  0.00000000000E+00  0.74505805969E-08  0.10566000000E+00  0.10566000000E+00 0. -1.
     999900   -1    0    0    0    0 -0.00000000000E+00 -0.00000000000E+00 -0.74505805969E-08  0.93827000000E+00  0.93827000000E+00 0. -1.
     999902    2    1    2    0    0  0.19801515311E-01  0.13371442295E-01 -0.50767447393E-02  0.10195031947E+01  0.10192105255E+01 0.  0.
     999903    2    3    3    0    0 -0.38142840374E-01 -0.94326942157E-01 -0.75342427820E-01  0.12827159938E+00  0.20607607538E-01 0.  0.
         14    1    1    2    0    0 -0.19801515311E-01 -0.13371442295E-01  0.50767447393E-02  0.24426805252E-01  0.00000000000E+00 0.  1.
     999901    1    3    3    0    0  0.57944355685E-01  0.10769838445E+00  0.70265683081E-01  0.89123159537E+00  0.88000000000E+00 0. -1.
        -11    1    4    4    0    0 -0.19370284648E-01 -0.23811923117E-01 -0.25396209179E-01  0.39842743023E-01  0.51100000000E-03 0. -1.
         11    1    4    4    0    0 -0.18772555726E-01 -0.70515019039E-01 -0.49946218641E-01  0.88428856354E-01  0.51100000000E-03 0.  1.
</event>
<event>
 8    1  0.1091347E+005  0.1043930E+01  0.7957747E-01            NaN
         13   -1    0    0    0    0  0.00000000000E+00  0.00000000000E+00  0.74505805969E-08  0.10566000000E+00  0.10566000000E+00 0.  1.
     999900   -1    0    0    0    0 -0.00000000000E+00 -0.00000000000E+00 -0.74505805969E-08  0.93827000000E+00  0.93827000000E+00 0. -1.
     999902    2    1    2    0    0  0.18650458755E-02 -0.19297097234E-01 -0.14802061705E-01  0.10195382516E+01  0.10192464320E+01 0.  0.
     999903    2    3    3    0    0  0.67425045996E-01  0.37516741330E-01  0.10033344821E+00  0.12780840941E+00  0.17735444110E-01 0.  0.
         14    1    1    2    0    0 -0.18650458755E-02  0.19297097234E-01  0.14802061705E-01  0.24391748369E-01  0.00000000000E+00 0.  1.
     999901    1    3    3    0    0 -0.65560000120E-01 -0.56813838564E-01 -0.11513550992E+00  0.89172984222E+00  0.88000000000E+00 0. -1.
        -11    1    4    4    0    0  0.21844336177E-01  0.19955525818E-01  0.29673084983E-01  0.41906456866E-01  0.51100000000E-03 0. -1.
         11    1    4    4    0    0  0.45580709818E-01  0.17561215512E-01  0.70660363229E-01  0.85901952541E-01  0.51100000000E-03 0.  1.
</event>
<event>
 8    1  0.1091347E+005  0.1043930E+01  0.7957747E-01            NaN
         13   -1    0    0    0    0  0.00000000000E+00  0.00000000000E+00  0.74505805969E-08  0.10566000000E+00  0.10566000000E+00 0.  1.
     999900   -1    0    0    0    0 -0.00000000000E+00 -0.00000000000E+00 -0.74505805969E-08  0.93827000000E+00  0.93827000000E+00 0. -1.
     999902    2    1    2    0    0  0.59383188448E-03  0.18275514388E-01 -0.14540516526E-01  0.10205682003E+01  0.10203007781E+01 0.  0.
     999903    2    3    3    0    0 -0.36566161062E-02  0.11685814944E+00 -0.61793412548E-01  0.13379346095E+00  0.20324035692E-01 0.  0.
         14    1    1    2    0    0 -0.59383188448E-03 -0.18275514388E-01  0.14540516526E-01  0.23361799659E-01  0.00000000000E+00 0.  1.
     999901    1    3    3    0    0  0.42504479906E-02 -0.98582635051E-01  0.47252896021E-01  0.88677473939E+00  0.88000000000E+00 0.  1.
        -11    1    4    4    0    0 -0.69873592956E-02  0.92608145832E-01 -0.40395866454E-01  0.10127773206E+00  0.51100000000E-03 0. -1.
         11    1    4    4    0    0  0.33307431895E-02  0.24250003607E-01 -0.21397546093E-01  0.32515728885E-01  0.51100000000E-03 0.  1.
</event>
<event>
 8    1  0.1091347E+005  0.1043930E+01  0.7957747E-01            NaN
         13   -1    0    0    0    0  0.00000000000E+00  0.00000000000E+00  0.74505805969E-08  0.10566000000E+00  0.10566000000E+00 0.  1.
     999900   -1    0    0    0    0 -0.00000000000E+00 -0.00000000000E+00 -0.74505805969E-08  0.93827000000E+00  0.93827000000E+00 0. -1.
     999902    2    1    2    0    0 -0.48740813617E-02  0.11091869839E-01  0.20615452518E-01  0.10200180129E+01  0.10197376935E+01 0.  0.
     999903    2    3    3    0    0  0.49511881510E-01  0.10495931376E+00  0.60342653811E-01  0.13246678590E+00  0.20936321102E-01 0.  0.
         14    1    1    2    0    0  0.48740813617E-02 -0.11091869839E-01 -0.20615452518E-01  0.23911987123E-01  0.00000000000E+00 0. -1.
     999901    1    3    3    0    0 -0.54385962872E-01 -0.93867443925E-01 -0.39727201293E-01  0.88755122698E+00  0.88000000000E+00 0. -1.
        -11    1    4    4    0    0  0.46649519712E-01  0.83944191551E-01  0.54664999491E-01  0.11050487896E+00  0.51100000000E-03 0. -1.
         11    1    4    4    0    0  0.28623617979E-02  0.21015122213E-01  0.56776543200E-02  0.21961906936E-01  0.51100000000E-03 0.  1.
</event>
<event>
 8    1  0.1091347E+005  0.1043930E+01  0.7957747E-01            NaN
         13   -1    0    0    0    0  0.00000000000E+00  0.00000000000E+00  0.74505805969E-08  0.10566000000E+00  0.10566000000E+00 0.  1.
     999900   -1    0    0    0    0 -0.00000000000E+00 -0.00000000000E+00 -0.74505805969E-08  0.93827000000E+00  0.93827000000E+00 0. -1.
     999902    2    1    2    0    0  0.76256071579E-02  0.22195192675E-01 -0.64056167709E-02  0.10196028878E+01  0.10193126313E+01 0.  0.
     999903    2    3    3    0    0  0.49322917321E-01 -0.12836265468E-01  0.11715472817E+00  0.12930348445E+00  0.19915844803E-01 0.  0.
         14    1    1    2    0    0 -0.76256071579E-02 -0.22195192675E-01  0.64056167709E-02  0.24327112213E-01  0.00000000000E+00 0.  1.
     999901    1    3    3    0    0 -0.41697310163E-01  0.35031458143E-01 -0.12356034494E+00  0.89029940333E+00  0.88000000000E+00 0. -1.
        -11    1    4    4    0    0  0.35463281602E-01 -0.18035529100E-01  0.89035512634E-01  0.97521834903E-01  0.51100000000E-03 0.  1.
         11    1    4    4    0    0  0.13859635719E-01  0.51992636320E-02  0.28119215539E-01  0.31781649549E-01  0.51100000000E-03 0. -1.
</event>
<event>
 8    1  0.1091347E+005  0.1043930E+01  0.7957747E-01            NaN
         13   -1    0    0    0    0  0.00000000000E+00  0.00000000000E+00  0.74505805969E-08  0.10566000000E+00  0.10566000000E+00 0. -1.
     999900   -1    0    0    0    0 -0.00000000000E+00 -0.00000000000E+00 -0.74505805969E-08  0.93827000000E+00  0.93827000000E+00 0. -1.
     999902    2    1    2    0    0 -0.12352208572E-01  0.14494395287E-01 -0.13813002649E-01  0.10204041930E+01  0.10201329588E+01 0.  0.
     999903    2    3    3    0    0 -0.22658679701E-01  0.10818860504E+00 -0.72171940322E-01  0.13344839149E+00  0.19531876383E-01 0.  0.
         14    1    1    2    0    0  0.12352208572E-01 -0.14494395287E-01  0.13813002649E-01  0.23525806968E-01  0.00000000000E+00 0. -1.
     999901    1    3    3    0    0  0.10306471129E-01 -0.93694209750E-01  0.58358937673E-01  0.88695580154E+00  0.88000000000E+00 0.  1.
        -11    1    4    4    0    0 -0.52461530374E-02  0.58391440238E-01 -0.46207441487E-01  0.74648986494E-01  0.51100000000E-03 0.  1.
         11    1    4    4    0    0 -0.17412526664E-01  0.49797164798E-01 -0.25964498834E-01  0.58799404993E-01  0.51100000000E-03 0. -1.
</event>
<event>
 8    1  0.1091347E+005  0.1043930E+01  0.7957747E-01            NaN
         13   -1    0    0    0    0  0.00000000000E+00  0.00000000000E+00  0.74505805969E-08  0.10566000000E+00  0.10566000000E+00 0.  1.
     999900   -1    0    0    0    0 -0.00000000000E+00 -0.00000000000E+00 -0.74505805969E-08  0.93827000000E+00  0.93827000000E+00 0. -1.
     999902    2    1    2    0    0 -0.21238520024E-01 -0.52444018004E-02  0.83274274629E-02  0.10205222122E+01  0.10202537238E+01 0.  0.
     999903    2    3    3    0    0 -0.11868876706E+00 -0.21870924782E-01  0.54289750976E-01  0.13379478669E+00  0.19705509575E-01 0.  0.
         14    1    1    2    0    0  0.21238520024E-01  0.52444018004E-02 -0.83274274629E-02  0.23407787832E-01  0.00000000000E+00 0. -1.
     999901    1    3    3    0    0  0.97450247034E-01  0.16626522982E-01 -0.45962323513E-01  0.88672742548E+00  0.88000000000E+00 0. -1.
        -11    1    4    4    0    0 -0.39003851961E-01 -0.16689914860E-01  0.18419566192E-01  0.46253597326E-01  0.51100000000E-03 0. -1.
         11    1    4    4    0    0 -0.79684915096E-01 -0.51810099224E-02  0.35870184784E-01  0.87541189363E-01  0.51100000000E-03 0.  1.
</event>
<event>
 8    1  0.1091347E+005  0.1043930E+01  0.7957747E-01            NaN
         13   -1    0    0    0    0  0.00000000000E+00  0.00000000000E+00  0.74505805969E-08  0.10566000000E+00  0.10566000000E+00 0. -1.
     999900   -1    0    0    0    0 -0.00000000000E+00 -0.00000000000E+00 -0.74505805969E-08  0.93827000000E+00  0.93827000000E+00 0.  1.
     999902    2    1    2    0    0 -0.16389394082E-01  0.17224389568E-01  0.31492737182E-02  0.10199464690E+01  0.10196644496E+01 0.  0.
     999903    2    3    3    0    0  0.11645253160E+00  0.50508495492E-01  0.14654138609E-01  0.12927976880E+00  0.19652343605E-01 0.  0.
         14    1    1    2    0    0  0.16389394082E-01 -0.17224389568E-01 -0.31492737182E-02  0.23983531002E-01  0.00000000000E+00 0.  1.
     999901    1    3    3    0    0 -0.13284192568E+00 -0.33284105924E-01 -0.11504864891E-01  0.89066670020E+00  0.88000000000E+00 0.  1.
        -11    1    4    4    0    0  0.10439693869E+00  0.38794177483E-01  0.15471278640E-01  0.11244256577E+00  0.51100000000E-03 0.  1.
         11    1    4    4    0    0  0.12055592916E-01  0.11714318009E-01 -0.81714003143E-03  0.16837203028E-01  0.51100000000E-03 0. -1.
</event>
<event>
 8    1  0.1091347E+005  0.1043930E+01  0.7957747E-01            NaN
         13   -1    0    0    0    0  0.00000000000E+00  0.00000000000E+00  0.74505805969E-08  0.10566000000E+00  0.10566000000E+00 0. -1.
     999900   -1    0    0    0    0 -0.00000000000E+00 -0.00000000000E+00 -0.74505805969E-08  0.93827000000E+00  0.93827000000E+00 0. -1.
     999902    2    1    2    0    0 -0.11656368263E-01  0.16759307113E-01 -0.97202578555E-02  0.10213196327E+01  0.10210693235E+01 0.  0.
     999903    2    3    3    0    0  0.83837254289E-01  0.32649640377E-01  0.91962729568E-01  0.13019059348E+00  0.19943990999E-01 0.  0.
         14    1    1    2    0    0  0.11656368263E-01 -0.16759307113E-01  0.97202578555E-02  0.22610367285E-01  0.00000000000E+00 0. -1.
     999901    1    3    3    0    0 -0.95493622552E-01 -0.15890333264E-01 -0.10168298742E+00  0.89112903924E+00  0.88000000000E+00 0. -1.
        -11    1    4    4    0    0  0.34152944568E-01  0.18909338325E-01  0.28024680129E-01  0.48058615418E-01  0.51100000000E-03 0.  1.
         11    1    4    4    0    0  0.49684309722E-01  0.13740302053E-01  0.63938049440E-01  0.82131978061E-01  0.51100000000E-03 0. -1.
</event>
<event>
 8    1  0.1091347E+005  0.1043930E+01  0.7957747E-01            NaN
         13   -1    0    0    0    0  0.00000000000E+00  0.00000000000E+00  0.74505805969E-08  0.10566000000E+00  0.10566000000E+00 0. -1.
     999900   -1    0    0    0    0 -0.00000000000E+00 -0.00000000000E+00 -0.74505805969E-08  0.93827000000E+00  0.93827000000E+00 0.  1.
     999902    2    1    2    0    0  0.36399585437E-03 -0.23275418107E-01  0.43675030241E-02  0.10202455607E+01  0.10199706131E+01 0.  0.
     999903    2    3    3    0    0  0.12664433810E+00  0.14361598264E-01  0.18060404051E-01  0.13032940435E+00  0.20360048314E-01 0.  0.
         14    1    1    2    0    0 -0.36399585437E-03  0.23275418107E-01 -0.43675030241E-02  0.23684439273E-01  0.00000000000E+00 0.  1.
     999901    1    3    3    0    0 -0.12628034224E+00 -0.37637016371E-01 -0.13692901027E-01  0.88991615637E+00  0.88000000000E+00 0.  1.
        -11    1    4    4    0    0  0.34225020773E-01 -0.25710325741E-02  0.11258473057E-01  0.36124459746E-01  0.51100000000E-03 0. -1.
         11    1    4    4    0    0  0.92419317325E-01  0.16932630838E-01  0.68019309940E-02  0.94204944606E-01  0.51100000000E-03 0.  1.
</event>
<event>
 8    1  0.1091347E+005  0.1043930E+01  0.7957747E-01            NaN
         13   -1    0    0    0    0  0.00000000000E+00  0.00000000000E+00  0.74505805969E-08  0.10566000000E+00  0.10566000000E+00 0. -1.
     999900   -1    0    0    0    0 -0.00000000000E+00 -0.00000000000E+00 -0.74505805969E-08  0.93827000000E+00  0.93827000000E+00 0. -1.
     999902    2    1    2    0    0 -0.37173040915E-02 -0.51164133544E-02  0.21920024246E-01  0.10211158926E+01  0.10208610006E+01 0.  0.
     999903    2    3    3    0    0 -0.10072543603E+00 -0.41712542831E-02 -0.79036290578E-01  0.13004706890E+00  0.22416335026E-01 0.  0.
         14    1    1    2    0    0  0.37173040915E-02  0.51164133544E-02 -0.21920024246E-01  0.22814107440E-01  0.00000000000E+00 0.  1.
     999901    1    3    3    0    0  0.97008131941E-01 -0.94515907131E-03  0.10095631482E+00  0.89106882366E+00  0.88000000000E+00 0.  1.
        -11    1    4    4    0    0 -0.46051479209E-01  0.92036291821E-02 -0.34660162812E-01  0.58369799850E-01  0.51100000000E-03 0.  1.
         11    1    4    4    0    0 -0.54673956824E-01 -0.13374883465E-01 -0.44376127766E-01  0.71677269054E-01  0.51100000000E-03 0. -1.
</event>
<event>
 8    1  0.1091347E+005  0.1043930E+01  0.7957747E-01            NaN
         13   -1    0    0    0    0  0.00000000000E+00  0.00000000000E+00  0.74505805969E-08  0.10566000000E+00  0.10566000000E+00 0.  1.
     999900   -1    0    0    0    0 -0.00000000000E+00 -0.00000000000E+00 -0.74505805969E-08  0.93827000000E+00  0.93827000000E+00 0. -1.
     999902    2    1    2    0    0  0.32700432415E-02 -0.20090888819E-01 -0.11496305750E-01  0.10205526169E+01  0.10202848336E+01 0.  0.
     999903    2    3    3    0    0  0.11028894279E+00  0.11798451445E-01  0.65020782222E-01  0.13020165256E+00  0.20540541663E-01 0.  0.
         14    1    1    2    0    0 -0.32700432415E-02  0.20090888819E-01  0.11496305750E-01  0.23377383134E-01  0.00000000000E+00 0. -1.
     999901    1    3    3    0    0 -0.10701889955E+00 -0.31889340264E-01 -0.76517087971E-01  0.89035096430E+00  0.88000000000E+00 0.  1.
        -11    1    4    4    0    0  0.78495885141E-02 -0.10346262958E-02  0.11335889822E-01  0.13836546190E-01  0.51100000000E-03 0. -1.
         11    1    4    4    0    0  0.10243935427E+00  0.12833077741E-01  0.53684892399E-01  0.11636510637E+00  0.51100000000E-03 0.  1.
</event>
<event>
 8    1  0.1091347E+005  0.1043930E+01  0.7957747E-01            NaN
         13   -1    0    0    0    0  0.00000000000E+00  0.00000000000E+00  0.74505805969E-08  0.10566000000E+00  0.10566000000E+00 0. -1.
     999900   -1    0    0    0    0 -0.00000000000E+00 -0.00000000000E+00 -0.74505805969E-08  0.93827000000E+00  0.93827000000E+00 0. -1.
     999902    2    1    2    0    0  0.23743397752E-02  0.21004308390E-01 -0.11390605888E-01  0.10199182453E+01  0.10196355539E+01 0.  0.
     999903    2    3    3    0    0 -0.10397193705E-01 -0.56530102349E-01 -0.11523574797E+00  0.13033491002E+00  0.20103657627E-01 0.  0.
         14    1    1    2    0    0 -0.23743397752E-02 -0.21004308390E-01  0.11390605888E-01  0.24011754680E-01  0.00000000000E+00 0. -1.
     999901    1    3    3    0    0  0.12771533480E-01  0.77534410739E-01  0.10384514208E+00  0.88958333530E+00  0.88000000000E+00 0.  1.
        -11    1    4    4    0    0 -0.60925649903E-02 -0.37088881457E-01 -0.52907251153E-01  0.64901023270E-01  0.51100000000E-03 0. -1.
         11    1    4    4    0    0 -0.43046287149E-02 -0.19441220892E-01 -0.62328496818E-01  0.65433886746E-01  0.51100000000E-03 0.  1.
</event>
<event>
 8    1  0.1091347E+005  0.1043930E+01  0.7957747E-01            NaN
         13   -1    0    0    0    0  0.00000000000E+00  0.00000000000E+00  0.74505805969E-08  0.10566000000E+00  0.10566000000E+00 0. -1.
     999900   -1    0    0    0    0 -0.00000000000E+00 -0.00000000000E+00 -0.74505805969E-08  0.93827000000E+00  0.93827000000E+00 0. -1.
     999902    2    1    2    0    0 -0.19054408271E-01  0.11413658691E-01 -0.12577318258E-02  0.10216831133E+01  0.10214408745E+01 0.  0.
     999903    2    3    3    0    0 -0.97928288339E-01 -0.85836442775E-01 -0.14815251536E-01  0.13271602867E+00  0.20885593634E-01 0.  0.
         14    1    1    2    0    0  0.19054408271E-01 -0.11413658691E-01  0.12577318258E-02  0.22246886717E-01  0.00000000000E+00 0.  1.
     999901    1    3    3    0    0  0.78873880068E-01  0.97250101466E-01  0.13557519710E-01  0.88896708462E+00  0.88000000000E+00 0.  1.
        -11    1    4    4    0    0 -0.88131927374E-01 -0.75262576977E-01 -0.19553493385E-01  0.11753421774E+00  0.51100000000E-03 0. -1.
         11    1    4    4    0    0 -0.97963609645E-02 -0.10573865797E-01  0.47382418493E-02  0.15181810922E-01  0.51100000000E-03 0.  1.
</event>
<event>
 8    1  0.1091347E+005  0.1043930E+01  0.7957747E-01            NaN
         13   -1    0    0    0    0  0.00000000000E+00  0.00000000000E+00  0.74505805969E-08  0.10566000000E+00  0.10566000000E+00 0.  1.
     999900   -1    0    0    0    0 -0.00000000000E+00 -0.00000000000E+00 -0.74505805969E-08  0.93827000000E+00  0.93827000000E+00 0. -1.
     999902    2    1    2    0    0 -0.10086823990E-01 -0.20587322702E-01  0.10328187948E-02  0.10209811746E+01  0.10207232290E+01 0.  0.
     999903    2    3    3    0    0  0.11260650076E+00 -0.60431468575E-01  0.22690796675E-01  0.13131254192E+00  0.19897864359E-01 0.  0.
         14    1    1    2    0    0  0.10086823990E-01  0.20587322702E-01 -0.10328187948E-02  0.22948825436E-01  0.00000000000E+00 0.  1.
     999901    1    3    3    0    0 -0.12269332475E+00  0.39844145874E-01 -0.21657977880E-01  0.88966863264E+00  0.88000000000E+00 0. -1.
        -11    1    4    4    0    0  0.20547312889E-01 -0.15334589560E-01  0.11782065330E-01  0.28220912253E-01  0.51100000000E-03 0.  1.
         11    1    4    4    0    0  0.92059187867E-01 -0.45096879015E-01  0.10908731344E-01  0.10309162967E+00  0.51100000000E-03 0. -1.
</event>
<event>
 8    1  0.1091347E+005  0.1043930E+01  0.7957747E-01            NaN
         13   -1    0    0    0    0  0.00000000000E+00  0.00000000000E+00  0.74505805969E-08  0.10566000000E+00  0.10566000000E+00 0. -1.
     999900   -1    0    0    0    0 -0.00000000000E+00 -0.00000000000E+00 -0.74505805969E-08  0.93827000000E+00  0.93827000000E+00 0. -1.
     999902    2    1    2    0    0 -0.70625264115E-02  0.29712082819E-01 -0.32921376123E-02  0.10132131428E+01  0.10127474253E+01 0.  0.
     999903    2    3    3    0    0  0.23603940460E-01 -0.53789339444E-01  0.10541761807E+00  0.12207301316E+00  0.18398567886E-01 0.  0.
         14    1    1    2    0    0  0.70625264115E-02 -0.29712082819E-01  0.32921376123E-02  0.30716857177E-01  0.00000000000E+00 0. -1.
     999901    1    3    3    0    0 -0.30666466871E-01  0.83501422264E-01 -0.10870975568E+00  0.89114012966E+00  0.88000000000E+00 0.  1.
        -11    1    4    4    0    0  0.95595969177E-02 -0.41092701291E-01  0.65880418330E-01  0.78233539054E-01  0.51100000000E-03 0.  1.
         11    1    4    4    0    0  0.14044343542E-01 -0.12696638153E-01  0.39537199739E-01  0.43839474109E-01  0.51100000000E-03 0. -1.
</event>
<event>
 8    1  0.1091347E+005  0.1043930E+01  0.7957747E-01            NaN
         13   -1    0    0    0    0  0.00000000000E+00  0.00000000000E+00  0.74505805969E-08  0.10566000000E+00  0.10566000000E+00 0. -1.
     999900   -1    0    0    0    0 -0.00000000000E+00 -0.00000000000E+00 -0.74505805969E-08  0.93827000000E+00  0.93827000000E+00 0.  1.
     999902    2    1    2    0    0 -0.22985803329E-01  0.15169662325E-03  0.23483968595E-02  0.10208240455E+01  0.10205625148E+01 0.  0.
     999903    2    3    3    0    0  0.20337584301E-01 -0.11979248876E+00 -0.43200072255E-01  0.13046558589E+00  0.19777895721E-01 0.  0.
         14    1    1    2    0    0  0.22985803329E-01 -0.15169662325E-03 -0.23483968595E-02  0.23105954522E-01  0.00000000000E+00 0.  1.
     999901    1    3    3    0    0 -0.43323387630E-01  0.11994418539E+00  0.45548469115E-01  0.89035845959E+00  0.88000000000E+00 0. -1.
        -11    1    4    4    0    0  0.65701054120E-02 -0.87753009039E-01 -0.34496680712E-01  0.94520045396E-01  0.51100000000E-03 0.  1.
         11    1    4    4    0    0  0.13767478889E-01 -0.32039479725E-01 -0.87033915427E-02  0.35945540493E-01  0.51100000000E-03 0. -1.
</event>
<event>
 8    1  0.1091347E+005  0.1043930E+01  0.7957747E-01            NaN
         13   -1    0    0    0    0  0.00000000000E+00  0.00000000000E+00  0.74505805969E-08  0.10566000000E+00  0.10566000000E+00 0.  1.
     999900   -1    0    0    0    0 -0.00000000000E+00 -0.00000000000E+00 -0.74505805969E-08  0.93827000000E+00  0.93827000000E+00 0. -1.
     999902    2    1    2    0    0  0.12964108577E-01 -0.18052938762E-01  0.12845700174E-01  0.10182592244E+01  0.10179355870E+01 0.  0.
     999903    2    3    3    0    0  0.31172863621E-01 -0.12172290894E+00  0.34278141470E-01  0.13172757178E+00  0.19721769631E-01 0.  0.
         14    1    1    2    0    0 -0.12964108577E-01  0.18052938762E-01 -0.12845700174E-01  0.25670775643E-01  0.00000000000E+00 0. -1.
     999901    1    3    3    0    0 -0.18208755044E-01  0.10366997018E+00 -0.21432441295E-01  0.88653165257E+00  0.88000000000E+00 0. -1.
        -11    1    4    4    0    0  0.15458523465E-01 -0.31819838287E-01  0.15097099057E-01  0.38466239448E-01  0.51100000000E-03 0. -1.
         11    1    4    4    0    0  0.15714340156E-01 -0.89903070655E-01  0.19181042413E-01  0.93261332334E-01  0.51100000000E-03 0.  1.
</event>
<event>
 8    1  0.1091347E+005  0.1043930E+01  0.7957747E-01            NaN
         13   -1    0    0    0    0  0.00000000000E+00  0.00000000000E+00  0.74505805969E-08  0.10566000000E+00  0.10566000000E+00 0.  1.
     999900   -1    0    0    0    0 -0.00000000000E+00 -0.00000000000E+00 -0.74505805969E-08  0.93827000000E+00  0.93827000000E+00 0. -1.
     999902    2    1    2    0    0 -0.53492791267E-02 -0.14680268274E-01  0.17792931319E-01  0.10202506109E+01  0.10199757818E+01 0.  0.
     999903    2    3    3    0    0  0.81805018045E-01  0.95690588300E-01  0.22758008957E-01  0.12907035444E+00  0.17102039524E-01 0.  0.
         14    1    1    2    0    0  0.53492791267E-02  0.14680268274E-01 -0.17792931319E-01  0.23679389111E-01  0.00000000000E+00 0. -1.
     999901    1    3    3    0    0 -0.87154297171E-01 -0.11037085657E+00 -0.49650776377E-02  0.89118025645E+00  0.88000000000E+00 0. -1.
        -11    1    4    4    0    0  0.24592133344E-01  0.27824836945E-01 -0.10992921130E-02  0.37154597799E-01  0.51100000000E-03 0. -1.
         11    1    4    4    0    0  0.57212884700E-01  0.67865751355E-01  0.23857301070E-01  0.91915756637E-01  0.51100000000E-03 0.  1.
</event>
<event>
 8    1  0.1091347E+005  0.1043930E+01  0.7957747E-01            NaN
         13   -1    0    0    0    0  0.00000000000E+00  0.00000000000E+00  0.74505805969E-08  0.10566000000E+00  0.10566000000E+00 0. -1.
     999900   -1    0    0    0    0 -0.00000000000E+00 -0.00000000000E+00 -0.74505805969E-08  0.93827000000E+00  0.93827000000E+00 0. -1.
     999902    2    1    2    0    0  0.43940850199E-02  0.60011934168E-02 -0.21615709075E-01  0.10210704028E+01  0.10208144818E+01 0.  0.
     999903    2    3    3    0    0 -0.31234049211E-01  0.17327306983E-01 -0.12753027938E+00  0.13393143905E+00  0.19946348229E-01 0.  0.
         14    1    1    2    0    0 -0.43940850199E-02 -0.60011934168E-02  0.21615709075E-01  0.22859597205E-01  0.00000000000E+00 0. -1.
     999901    1    3    3    0    0  0.35628134231E-01 -0.11326113567E-01  0.10591457031E+00  0.88713896375E+00  0.88000000000E+00 0.  1.
        -11    1    4    4    0    0 -0.22536475444E-01  0.29394825641E-02 -0.55750317085E-01  0.60207078149E-01  0.51100000000E-03 0. -1.
         11    1    4    4    0    0 -0.86975737674E-02  0.14387824419E-01 -0.71779962299E-01  0.73724360897E-01  0.51100000000E-03 0.  1.
</event>
<event>
 8    1  0.1091347E+005  0.1043930E+01  0.7957747E-01            NaN
         13   -1    0    0    0    0  0.00000000000E+00  0.00000000000E+00  0.74505805969E-08  0.10566000000E+00  0.10566000000E+00 0.  1.
     999900   -1    0    0    0    0 -0.00000000000E+00 -0.00000000000E+00 -0.74505805969E-08  0.93827000000E+00  0.93827000000E+00 0.  1.
     999902    2    1    2    0    0 -0.20375090108E-01 -0.11137644956E-01  0.27689981066E-02  0.10205449881E+01  0.10202770280E+01 0.  0.
     999903    2    3    3    0    0 -0.40132763719E-01 -0.75723830794E-01  0.99037452933E-01  0.13272216991E+00  0.21494651149E-01 0.  0.
         14    1    1    2    0    0  0.20375090108E-01  0.11137644956E-01 -0.27689981066E-02  0.23385011921E-01  0.00000000000E+00 0.  1.
     999901    1    3    3    0    0  0.19757673611E-01  0.64586185838E-01 -0.96268454827E-01  0.88782281817E+00  0.88000000000E+00 0.  1.
        -11    1    4    4    0    0 -0.56041393047E-02 -0.31434924356E-01  0.31082071503E-01  0.44563630199E-01  0.51100000000E-03 0.  1.
         11    1    4    4    0    0 -0.34528624414E-01 -0.44288906438E-01  0.67955381430E-01  0.88158539710E-01  0.51100000000E-03 0. -1.
</event>
<event>
 8    1  0.1091347E+005  0.1043930E+01  0.7957747E-01            NaN
         13   -1    0    0    0    0  0.00000000000E+00  0.00000000000E+00  0.74505805969E-08  0.10566000000E+00  0.10566000000E+00 0.  1.
     999900   -1    0    0    0    0 -0.00000000000E+00 -0.00000000000E+00 -0.74505805969E-08  0.93827000000E+00  0.93827000000E+00 0.  1.
     999902    2    1    2    0    0  0.10826869746E-01  0.58352432474E-02  0.20507433689E-01  0.10200171163E+01  0.10197367756E+01 0.  0.
     999903    2    3    3    0    0  0.84822198082E-02 -0.11770304072E+00  0.53199115188E-01  0.13078376611E+00  0.18662630386E-01 0.  0.
         14    1    1    2    0    0 -0.10826869746E-01 -0.58352432474E-02 -0.20507433689E-01  0.23912883740E-01  0.00000000000E+00 0. -1.
     999901    1    3    3    0    0  0.23446499376E-02  0.12353828396E+00 -0.32691681498E-01  0.88923335015E+00  0.88000000000E+00 0. -1.
        -11    1    4    4    0    0  0.10280755956E-01 -0.71465636391E-01  0.24096410469E-01  0.76117864173E-01  0.51100000000E-03 0. -1.
         11    1    4    4    0    0 -0.17985361473E-02 -0.46237404326E-01  0.29102704719E-01  0.54665901932E-01  0.51100000000E-03 0.  1.
</event>
<event>
 8    1  0.1091347E+005  0.1043930E+01  0.7957747E-01            NaN
         13   -1    0    0    0    0  0.00000000000E+00  0.00000000000E+00  0.74505805969E-08  0.10566000000E+00  0.10566000000E+00 0. -1.
     999900   -1    0    0    0    0 -0.00000000000E+00 -0.00000000000E+00 -0.74505805969E-08  0.93827000000E+00  0.93827000000E+00 0.  1.
     999902    2    1    2    0    0 -0.20217535401E-02  0.11302787990E-01 -0.26641063579E-01  0.10149198850E+01  0.10145051928E+01 0.  0.
     999903    2    3    3    0    0  0.21430188806E-01  0.48849094965E-01  0.10951429607E+00  0.12334936018E+00  0.19395786718E-01 0.  0.
         14    1    1    2    0    0  0.20217535401E-02 -0.11302787990E-01  0.26641063579E-01  0.29010115001E-01  0.00000000000E+00 0. -1.
     999901    1    3    3    0    0 -0.23451942346E-01 -0.37546306975E-01 -0.13615535965E+00  0.89157052482E+00  0.88000000000E+00 0.  1.
        -11    1    4    4    0    0 -0.78296809069E-03  0.13459465637E-01  0.40308962059E-01  0.42506985279E-01  0.51100000000E-03 0. -1.
         11    1    4    4    0    0  0.22213156897E-01  0.35389629328E-01  0.69205334009E-01  0.80842374900E-01  0.51100000000E-03 0.  1.
</event>
<event>
 8    1  0.1091347E+005  0.1043930E+01  0.7957747E-01            NaN
         13   -1    0    0    0    0  0.00000000000E+00  0.00000000000E+00  0.74505805969E-08  0.10566000000E+00  0.10566000000E+00 0.  1.
     999900   -1    0    0    0    0 -0.00000000000E+00 -0.00000000000E+00 -0.74505805969E-08  0.93827000000E+00  0.93827000000E+00 0. -1.
     999902    2    1    2    0    0 -0.57932867783E-02  0.20641189445E-01 -0.92443997515E-02  0.10205830559E+01  0.10203159776E+01 0.  0.
     999903    2    3    3    0    0  0.11817051472E+00 -0.70923505459E-02  0.48224101393E-01  0.12960673635E+00  0.21395564220E-01 0.  0.
         14    1    1    2    0    0  0.57932867783E-02 -0.20641189445E-01  0.92443997515E-02  0.23346944129E-01  0.00000000000E+00 0.  1.
     999901    1    3    3    0    0 -0.12396380149E+00  0.27733539991E-01 -0.57468501144E-01  0.89097631952E+00  0.88000000000E+00 0. -1.
        -11    1    4    4    0    0  0.55794461614E-01  0.63515458513E-02  0.27394311117E-01  0.62482585447E-01  0.51100000000E-03 0.  1.
         11    1    4    4    0    0  0.62376053101E-01 -0.13443896397E-01  0.20829790276E-01  0.67124150905E-01  0.51100000000E-03 0. -1.
</event>
<event>
 7    1  0.1091347E+005  0.1043930E+01  0.7957747E-01            NaN
         13   -1    0    0    0    0  0.00000000000E+00  0.00000000000E+00  0.74505805969E-08  0.10566000000E+00  0.10566000000E+00 0.  1.
     999900   -1    0    0    0    0 -0.00000000000E+00 -0.00000000000E+00 -0.74505805969E-08  0.93827000000E+00  0.93827000000E+00 0.  1.
     999903    2    1    2    0    0  0.42238082435E-01 -0.39165407676E-01 -0.53128971044E-01  0.80567851208E-01  0.18721813957E-01 0.  0.
         14    1    1    2    0    0 -0.34725396893E-01 -0.25471788414E-01  0.68398859098E-01  0.80827403276E-01  0.00000000000E+00 0.  1.
     999901    1    1    2    0    0 -0.75126855419E-02  0.64637196090E-01 -0.15269888054E-01  0.88253474552E+00  0.88000000000E+00 0.  1.
        -11    1    3    3    0    0  0.24843017886E-01 -0.30147839336E-01 -0.44313921169E-01  0.59076666161E-01  0.51100000000E-03 0.  1.
         11    1    3    3    0    0  0.17395064549E-01 -0.90175683401E-02 -0.88150498754E-02  0.21491185047E-01  0.51100000000E-03 0. -1.
</event>
<event>
 8    1  0.1091347E+005  0.1043930E+01  0.7957747E-01            NaN
         13   -1    0    0    0    0  0.00000000000E+00  0.00000000000E+00  0.74505805969E-08  0.10566000000E+00  0.10566000000E+00 0.  1.
     999900   -1    0    0    0    0 -0.00000000000E+00 -0.00000000000E+00 -0.74505805969E-08  0.93827000000E+00  0.93827000000E+00 0. -1.
     999902    2    1    2    0    0 -0.11003572075E-01 -0.57302740405E-02  0.19646685797E-01  0.10206941032E+01  0.10204295886E+01 0.  0.
     999903    2    3    3    0    0 -0.12358428420E+00 -0.43470578310E-01  0.60265135137E-02  0.13261513348E+00  0.19689801440E-01 0.  0.
         14    1    1    2    0    0  0.11003572075E-01  0.57302740405E-02 -0.19646685797E-01  0.23235896836E-01  0.00000000000E+00 0. -1.
     999901    1    3    3    0    0  0.11258071213E+00  0.37740304270E-01  0.13620172283E-01  0.88807896969E+00  0.88000000000E+00 0. -1.
        -11    1    4    4    0    0 -0.20960249088E-01 -0.71622265380E-02 -0.63677772179E-02  0.23052965937E-01  0.51100000000E-03 0. -1.
         11    1    4    4    0    0 -0.10262403512E+00 -0.36308351772E-01  0.12394290732E-01  0.10956216754E+00  0.51100000000E-03 0.  1.
</event>
<event>
 8    1  0.1091347E+005  0.1043930E+01  0.7957747E-01            NaN
         13   -1    0    0    0    0  0.00000000000E+00  0.00000000000E+00  0.74505805969E-08  0.10566000000E+00  0.10566000000E+00 0.  1.
     999900   -1    0    0    0    0 -0.00000000000E+00 -0.00000000000E+00 -0.74505805969E-08  0.93827000000E+00  0.93827000000E+00 0. -1.
     999902    2    1    2    0    0  0.17674851338E-02  0.22106585249E-01  0.81113242064E-02  0.10203160487E+01  0.10200427543E+01 0.  0.
     999903    2    3    3    0    0  0.46544394338E-01  0.11038549689E+00  0.56889953682E-01  0.13342400763E+00  0.14634220657E-01 0.  0.
         14    1    1    2    0    0 -0.17674851338E-02 -0.22106585249E-01 -0.81113242064E-02  0.23613951289E-01  0.00000000000E+00 0. -1.
     999901    1    3    3    0    0 -0.44776909204E-01 -0.88278911641E-01 -0.48778629475E-01  0.88689204108E+00  0.88000000000E+00 0. -1.
        -11    1    4    4    0    0  0.25868693304E-01  0.73225617569E-01  0.42481300285E-01  0.88521762051E-01  0.51100000000E-03 0.  1.
         11    1    4    4    0    0  0.20675701034E-01  0.37159879321E-01  0.14408653397E-01  0.44902245580E-01  0.51100000000E-03 0. -1.
</event>
<event>
 8    1  0.1091347E+005  0.1043930E+01  0.7957747E-01            NaN
         13   -1    0    0    0    0  0.00000000000E+00  0.00000000000E+00  0.74505805969E-08  0.10566000000E+00  0.10566000000E+00 0. -1.
     999900   -1    0    0    0    0 -0.00000000000E+00 -0.00000000000E+00 -0.74505805969E-08  0.93827000000E+00  0.93827000000E+00 0.  1.
     999902    2    1    2    0    0  0.94290224487E-02  0.16180390057E-01 -0.14995205351E-01  0.10199390086E+01  0.10196568116E+01 0.  0.
     999903    2    3    3    0    0  0.87555400952E-01  0.80356283645E-01  0.52671206849E-01  0.13156914208E+00  0.20324924570E-01 0.  0.
         14    1    1    2    0    0 -0.94290224487E-02 -0.16180390057E-01  0.14995205351E-01  0.23990991439E-01  0.00000000000E+00 0. -1.
     999901    1    3    3    0    0 -0.78126378504E-01 -0.64175893588E-01 -0.67666412200E-01  0.88836986648E+00  0.88000000000E+00 0. -1.
        -11    1    4    4    0    0  0.35106503592E-01  0.45115522337E-01  0.21166349900E-01  0.60960252946E-01  0.51100000000E-03 0.  1.
         11    1    4    4    0    0  0.52448897361E-01  0.35240761309E-01  0.31504856949E-01  0.70608889131E-01  0.51100000000E-03 0. -1.
</event>
<event>
 8    1  0.1091347E+005  0.1043930E+01  0.7957747E-01            NaN
         13   -1    0    0    0    0  0.00000000000E+00  0.00000000000E+00  0.74505805969E-08  0.10566000000E+00  0.10566000000E+00 0.  1.
     999900   -1    0    0    0    0 -0.00000000000E+00 -0.00000000000E+00 -0.74505805969E-08  0.93827000000E+00  0.93827000000E+00 0.  1.
     999902    2    1    2    0    0  0.16196174370E-01 -0.22132190787E-01  0.56957312203E-02  0.10159194433E+01  0.10155332215E+01 0.  0.
     999903    2    3    3    0    0  0.10571010065E+00  0.65247410603E-01 -0.14549403104E-01  0.12684250443E+00  0.21106535239E-01 0.  0.
         14    1    1    2    0    0 -0.16196174370E-01  0.22132190787E-01 -0.56957312203E-02  0.28010556714E-01  0.00000000000E+00 0. -1.
     999901    1    3    3    0    0 -0.89513926282E-01 -0.87379601391E-01  0.20245134324E-01  0.88907693885E+00  0.88000000000E+00 0. -1.
        -11    1    4    4    0    0  0.30578300614E-01  0.90662592469E-02  0.47087025655E-04  0.31898163949E-01  0.51100000000E-03 0.  1.
         11    1    4    4    0    0  0.75131800038E-01  0.56181151356E-01 -0.14596490129E-01  0.94944340483E-01  0.51100000000E-03 0. -1.
</event>
<event>
 8    1  0.1091347E+005  0.1043930E+01  0.7957747E-01            NaN
         13   -1    0    0    0    0  0.00000000000E+00  0.00000000000E+00  0.74505805969E-08  0.10566000000E+00  0.10566000000E+00 0. -1.
     999900   -1    0    0    0    0 -0.00000000000E+00 -0.00000000000E+00 -0.74505805969E-08  0.93827000000E+00  0.93827000000E+00 0. -1.
     999902    2    1    2    0    0 -0.23254421237E-03 -0.10119653077E-01  0.20451338343E-01  0.10211107385E+01  0.10208557301E+01 0.  0.
     999903    2    3    3    0    0 -0.99944178119E-01  0.67495329657E-01 -0.41960848637E-01  0.12989708479E+00  0.23834461466E-01 0.  0.
         14    1    1    2    0    0  0.23254421237E-03  0.10119653077E-01 -0.20451338343E-01  0.22819261496E-01  0.00000000000E+00 0.  1.
     999901    1    3    3    0    0  0.99711633906E-01 -0.77614982734E-01  0.62412186980E-01  0.89121365371E+00  0.88000000000E+00 0.  1.
        -11    1    4    4    0    0 -0.31960083726E-01  0.32525277888E-01 -0.82532407739E-02  0.46343475892E-01  0.51100000000E-03 0. -1.
         11    1    4    4    0    0 -0.67984094393E-01  0.34970051769E-01 -0.33707607863E-01  0.83553608898E-01  0.51100000000E-03 0.  1.
</event>
<event>
 8    1  0.1091347E+005  0.1043930E+01  0.7957747E-01            NaN
         13   -1    0    0    0    0  0.00000000000E+00  0.00000000000E+00  0.74505805969E-08  0.10566000000E+00  0.10566000000E+00 0.  1.
     999900   -1    0    0    0    0 -0.00000000000E+00 -0.00000000000E+00 -0.74505805969E-08  0.93827000000E+00  0.93827000000E+00 0.  1.
     999902    2    1    2    0    0  0.79534276831E-02 -0.22172806181E-01 -0.40596595279E-02  0.10200266282E+01  0.10197465132E+01 0.  0.
     999903    2    3    3    0    0  0.24888706680E-01  0.32872991876E-01  0.12108567730E+00  0.12930882844E+00  0.18945990361E-01 0.  0.
         14    1    1    2    0    0 -0.79534276831E-02  0.22172806181E-01  0.40596595279E-02  0.23903371757E-01  0.00000000000E+00 0. -1.
     999901    1    3    3    0    0 -0.16935278997E-01 -0.55045798057E-01 -0.12514533683E+00  0.89071779980E+00  0.88000000000E+00 0.  1.
        -11    1    4    4    0    0  0.13125573906E-02  0.60859118220E-02  0.43035256846E-01  0.43486268895E-01  0.51100000000E-03 0.  1.
         11    1    4    4    0    0  0.23576149289E-01  0.26787080054E-01  0.78050420452E-01  0.85822559545E-01  0.51100000000E-03 0. -1.
</event>
<event>
 8    1  0.1091347E+005  0.1043930E+01  0.7957747E-01            NaN
         13   -1    0    0    0    0  0.00000000000E+00  0.00000000000E+00  0.74505805969E-08  0.10566000000E+00  0.10566000000E+00 0. -1.
     999900   -1    0    0    0    0 -0.00000000000E+00 -0.00000000000E+00 -0.74505805969E-08  0.93827000000E+00  0.93827000000E+00 0.  1.
     999902    2    1    2    0    0 -0.10040281674E-03 -0.12775149314E-01 -0.18680449146E-01  0.10212987450E+01  0.10210479680E+01 0.  0.
     999903    2    3    3    0    0 -0.11598485762E+00 -0.31805373112E-01  0.47458933921E-01  0.13103711256E+00  0.21314443519E-01 0.  0.
         14    1    1    2    0    0  0.10040281674E-03  0.12775149314E-01  0.18680449146E-01  0.22631254959E-01  0.00000000000E+00 0. -1.
     999901    1    3    3    0    0  0.11588445480E+00  0.19030223798E-01 -0.66139383066E-01  0.89026163249E+00  0.88000000000E+00 0.  1.
        -11    1    4    4    0    0 -0.65878079669E-01 -0.27902888551E-01  0.32622729008E-01  0.78632029983E-01  0.51100000000E-03 0. -1.
         11    1    4    4    0    0 -0.50106777950E-01 -0.39024845607E-02  0.14836204913E-01  0.52405082573E-01  0.51100000000E-03 0.  1.
</event>
<event>
 8    1  0.1091347E+005  0.1043930E+01  0.7957747E-01            NaN
         13   -1    0    0    0    0  0.00000000000E+00  0.00000000000E+00  0.74505805969E-08  0.10566000000E+00  0.10566000000E+00 0.  1.
     999900   -1    0    0    0    0 -0.00000000000E+00 -0.00000000000E+00 -0.74505805969E-08  0.93827000000E+00  0.93827000000E+00 0. -1.
     999902    2    1    2    0    0 -0.14213723142E-01 -0.15606633836E-01 -0.10595382164E-01  0.10203109596E+01  0.10200375460E+01 0.  0.
     999903    2    3    3    0    0  0.37398314005E-01  0.69067746986E-01  0.95698067171E-01  0.12838503752E+00  0.33994267663E-01 0.  0.
         14    1    1    2    0    0  0.14213723142E-01  0.15606633836E-01  0.10595382164E-01  0.23619040380E-01  0.00000000000E+00 0. -1.
     999901    1    3    3    0    0 -0.51612037147E-01 -0.84674380823E-01 -0.10629344934E+00  0.89192592210E+00  0.88000000000E+00 0. -1.
        -11    1    4    4    0    0  0.44175759040E-02  0.29630616432E-01  0.17198472846E-01  0.34547604783E-01  0.51100000000E-03 0.  1.
         11    1    4    4    0    0  0.32980738101E-01  0.39437130555E-01  0.78499594325E-01  0.93837432735E-01  0.51100000000E-03 0. -1.
</event>
<event>
 8    1  0.1091347E+005  0.1043930E+01  0.7957747E-01            NaN
         13   -1    0    0    0    0  0.00000000000E+00  0.00000000000E+00  0.74505805969E-08  0.10566000000E+00  0.10566000000E+00 0. -1.
     999900   -1    0    0    0    0 -0.00000000000E+00 -0.00000000000E+00 -0.74505805969E-08  0.93827000000E+00  0.93827000000E+00 0. -1.
     999902    2    1    2    0    0 -0.13608161640E-01 -0.70272453696E-03  0.19524674383E-01  0.10201205734E+01  0.10198426817E+01 0.  0.
     999903    2    3    3    0    0  0.77356890710E-01  0.58008811948E-01 -0.80994736624E-01  0.12780569778E+00  0.20616455117E-01 0.  0.
         14    1    1    2    0    0  0.13608161640E-01  0.70272453696E-03 -0.19524674383E-01  0.23809426594E-01  0.00000000000E+00 0.  1.
     999901    1    3    3    0    0 -0.90965052350E-01 -0.58711536485E-01  0.10051941101E+00  0.89231487562E+00  0.88000000000E+00 0.  1.
        -11    1    4    4    0    0  0.18846789386E-01  0.14956007688E-01 -0.94764205842E-02  0.25864015624E-01  0.51100000000E-03 0. -1.
         11    1    4    4    0    0  0.58510101324E-01  0.43052804260E-01 -0.71518316040E-01  0.10194168216E+00  0.51100000000E-03 0.  1.
</event>
<event>
 8    1  0.1091347E+005  0.1043930E+01  0.7957747E-01            NaN
         13   -1    0    0    0    0  0.00000000000E+00  0.00000000000E+00  0.74505805969E-08  0.10566000000E+00  0.10566000000E+00 0.  1.
     999900   -1    0    0    0    0 -0.00000000000E+00 -0.00000000000E+00 -0.74505805969E-08  0.93827000000E+00  0.93827000000E+00 0. -1.
     999902    2    1    2    0    0  0.15225140705E-02  0.19085650581E-01 -0.13029805287E-01  0.10207706405E+01  0.10205078856E+01 0.  0.
     999903    2    3    3    0    0 -0.14086513475E-01  0.10213578358E+00  0.79813048398E-01  0.13186076777E+00  0.19672092776E-01 0.  0.
         14    1    1    2    0    0 -0.15225140705E-02 -0.19085650581E-01  0.13029805287E-01  0.23159359512E-01  0.00000000000E+00 0.  1.
     999901    1    3    3    0    0  0.15609027546E-01 -0.83050132996E-01 -0.92842853685E-01  0.88890987272E+00  0.88000000000E+00 0. -1.
        -11    1    4    4    0    0  0.13160751682E-02  0.61285287985E-01  0.46476555872E-01  0.76928212926E-01  0.51100000000E-03 0. -1.
         11    1    4    4    0    0 -0.15402588643E-01  0.40850495592E-01  0.33336492526E-01  0.54932554846E-01  0.51100000000E-03 0.  1.
</event>
<event>
 8    1  0.1091347E+005  0.1043930E+01  0.7957747E-01            NaN
         13   -1    0    0    0    0  0.00000000000E+00  0.00000000000E+00  0.74505805969E-08  0.10566000000E+00  0.10566000000E+00 0. -1.
     999900   -1    0    0    0    0 -0.00000000000E+00 -0.00000000000E+00 -0.74505805969E-08  0.93827000000E+00  0.93827000000E+00 0. -1.
     999902    2    1    2    0    0  0.18133999415E-01 -0.11696267505E-01 -0.71303837491E-02  0.10212036501E+01  0.10209507373E+01 0.  0.
     999903    2    3    3    0    0  0.92671754963E-01 -0.18451861640E-01  0.90910271160E-01  0.13260166659E+00  0.19748397727E-01 0.  0.
         14    1    1    2    0    0 -0.18133999415E-01  0.11696267505E-01  0.71303837491E-02  0.22726349921E-01  0.00000000000E+00 0.  1.
     999901    1    3    3    0    0 -0.74537755548E-01  0.67555941352E-02 -0.98040654910E-01  0.88860198349E+00  0.88000000000E+00 0. -1.
        -11    1    4    4    0    0  0.50683493145E-01 -0.10529511967E-01  0.63093387033E-01  0.81613256938E-01  0.51100000000E-03 0.  1.
         11    1    4    4    0    0  0.41988261818E-01 -0.79223496738E-02  0.27816884127E-01  0.50988409647E-01  0.51100000000E-03 0. -1.
</event>
<event>
 8    1  0.1091347E+005  0.1043930E+01  0.7957747E-01            NaN
         13   -1    0    0    0    0  0.00000000000E+00  0.00000000000E+00  0.74505805969E-08  0.10566000000E+00  0.10566000000E+00 0. -1.
     999900   -1    0    0    0    0 -0.00000000000E+00 -0.00000000000E+00 -0.74505805969E-08  0.93827000000E+00  0.93827000000E+00 0. -1.
     999902    2    1    2    0    0 -0.21615244858E-01 -0.44261070306E-02 -0.69328671799E-02  0.10208026594E+01  0.10205406389E+01 0.  0.
     999903    2    3    3    0    0 -0.11053054985E-01  0.41278041261E-01  0.11960890633E+00  0.13051436374E+00  0.30027686489E-01 0.  0.
         14    1    1    2    0    0  0.21615244858E-01  0.44261070306E-02  0.69328671799E-02  0.23127340553E-01  0.00000000000E+00 0. -1.
     999901    1    3    3    0    0 -0.10562189873E-01 -0.45704148292E-01 -0.12654177351E+00  0.89028829570E+00  0.88000000000E+00 0. -1.
        -11    1    4    4    0    0  0.86918520856E-02  0.76818417784E-02  0.43297661738E-01  0.44827531929E-01  0.51100000000E-03 0.  1.
         11    1    4    4    0    0 -0.19744907070E-01  0.33596199483E-01  0.76311244587E-01  0.85686831814E-01  0.51100000000E-03 0. -1.
</event>
<event>
 8    1  0.1091347E+005  0.1043930E+01  0.7957747E-01            NaN
         13   -1    0    0    0    0  0.00000000000E+00  0.00000000000E+00  0.74505805969E-08  0.10566000000E+00  0.10566000000E+00 0. -1.
     999900   -1    0    0    0    0 -0.00000000000E+00 -0.00000000000E+00 -0.74505805969E-08  0.93827000000E+00  0.93827000000E+00 0. -1.
     999902    2    1    2    0    0 -0.67575166095E-02  0.83898173255E-02  0.19719983620E-01  0.10214593342E+01  0.10212121428E+01 0.  0.
     999903    2    3    3    0    0 -0.16925785297E-01 -0.10951043727E+00  0.70063423113E-01  0.13211219976E+00  0.16301287894E-01 0.  0.
         14    1    1    2    0    0  0.67575166095E-02 -0.83898173255E-02 -0.19719983620E-01  0.22470665755E-01  0.00000000000E+00 0.  1.
     999901    1    3    3    0    0  0.10168268687E-01  0.11790025460E+00 -0.50343439493E-01  0.88934713449E+00  0.88000000000E+00 0.  1.
        -11    1    4    4    0    0 -0.55568887877E-02 -0.62044131667E-01  0.30931244565E-01  0.69551105661E-01  0.51100000000E-03 0.  1.
         11    1    4    4    0    0 -0.11368896509E-01 -0.47466305605E-01  0.39132178548E-01  0.62561094096E-01  0.51100000000E-03 0. -1.
</event>
<event>
 8    1  0.1091347E+005  0.1043930E+01  0.7957747E-01            NaN
         13   -1    0    0    0    0  0.00000000000E+00  0.00000000000E+00  0.74505805969E-08  0.10566000000E+00  0.10566000000E+00 0. -1.
     999900   -1    0    0    0    0 -0.00000000000E+00 -0.00000000000E+00 -0.74505805969E-08  0.93827000000E+00  0.93827000000E+00 0. -1.
     999902    2    1    2    0    0 -0.21531466514E-01  0.60945570017E-02 -0.79061063027E-02  0.10201970231E+01  0.10199209341E+01 0.  0.
     999903    2    3    3    0    0  0.10516289152E+00 -0.48951806669E-01 -0.45948880614E-01  0.12860921745E+00  0.31201250856E-01 0.  0.
         14    1    1    2    0    0  0.21531466514E-01 -0.60945570017E-02  0.79061063027E-02  0.23732976892E-01  0.00000000000E+00 0. -1.
     999901    1    3    3    0    0 -0.12669435804E+00  0.55046363671E-01  0.38042774312E-01  0.89158780565E+00  0.88000000000E+00 0. -1.
        -11    1    4    4    0    0  0.62292370181E-01 -0.20758350574E-01 -0.40162708358E-01  0.76971116434E-01  0.51100000000E-03 0. -1.
         11    1    4    4    0    0  0.42870521342E-01 -0.28193456095E-01 -0.57861722559E-02  0.51638101021E-01  0.51100000000E-03 0.  1.
</event>
<event>
 8    1  0.1091347E+005  0.1043930E+01  0.7957747E-01            NaN
         13   -1    0    0    0    0  0.00000000000E+00  0.00000000000E+00  0.74505805969E-08  0.10566000000E+00  0.10566000000E+00 0. -1.
     999900   -1    0    0    0    0 -0.00000000000E+00 -0.00000000000E+00 -0.74505805969E-08  0.93827000000E+00  0.93827000000E+00 0. -1.
     999902    2    1    2    0    0  0.19812934945E-01  0.10064325097E-01  0.40365549038E-03  0.10217037550E+01  0.10214619704E+01 0.  0.
     999903    2    3    3    0    0 -0.16474051705E-01 -0.12805278098E+00  0.12185440735E-02  0.13019169984E+00  0.16717797734E-01 0.  0.
         14    1    1    2    0    0 -0.19812934945E-01 -0.10064325097E-01 -0.40365549038E-03  0.22226245039E-01  0.00000000000E+00 0. -1.
     999901    1    3    3    0    0  0.36286986650E-01  0.13811710607E+00 -0.81488858315E-03  0.89151205513E+00  0.88000000000E+00 0.  1.
        -11    1    4    4    0    0 -0.45146523003E-02 -0.78714640886E-01  0.66861708048E-02  0.79128647002E-01  0.51100000000E-03 0.  1.
         11    1    4    4    0    0 -0.11959399405E-01 -0.49338140090E-01 -0.54676267313E-02  0.51063052834E-01  0.51100000000E-03 0. -1.
</event>
<event>
 8    1  0.1091347E+005  0.1043930E+01  0.7957747E-01            NaN
         13   -1    0    0    0    0  0.00000000000E+00  0.00000000000E+00  0.74505805969E-08  0.10566000000E+00  0.10566000000E+00 0.  1.
     999900   -1    0    0    0    0 -0.00000000000E+00 -0.00000000000E+00 -0.74505805969E-08  0.93827000000E+00  0.93827000000E+00 0. -1.
     999902    2    1    2    0    0  0.22949162224E-01  0.47522708945E-02 -0.21249024072E-02  0.10203978234E+01  0.10201264405E+01 0.  0.
     999903    2    3    3    0    0 -0.10724968918E+00  0.40571921080E-01 -0.54599533001E-01  0.12855233504E+00  0.19900181686E-01 0.  0.
         14    1    1    2    0    0 -0.22949162224E-01 -0.47522708945E-02  0.21249024072E-02  0.23532176603E-01  0.00000000000E+00 0. -1.
     999901    1    3    3    0    0  0.13019885140E+00 -0.35819650185E-01  0.52474630594E-01  0.89184548836E+00  0.88000000000E+00 0.  1.
        -11    1    4    4    0    0 -0.53604803437E-01  0.27277098234E-01 -0.36679502133E-01  0.70449712826E-01  0.51100000000E-03 0.  1.
         11    1    4    4    0    0 -0.53644885742E-01  0.13294822846E-01 -0.17920030868E-01  0.58102622213E-01  0.51100000000E-03 0. -1.
</event>
<event>
 8    1  0.1091347E+005  0.1043930E+01  0.7957747E-01            NaN
         13   -1    0    0    0    0  0.00000000000E+00  0.00000000000E+00  0.74505805969E-08  0.10566000000E+00  0.10566000000E+00 0.  1.
     999900   -1    0    0    0    0 -0.00000000000E+00 -0.00000000000E+00 -0.74505805969E-08  0.93827000000E+00  0.93827000000E+00 0.  1.
     999902    2    1    2    0    0 -0.69693371666E-02 -0.20101044702E-01  0.11494392760E-01  0.10197485045E+01  0.10194617539E+01 0.  0.
     999903    2    3    3    0    0 -0.31155318013E-01 -0.94564019860E-01  0.85287107293E-01  0.13319615917E+00  0.23543968512E-01 0.  0.
         14    1    1    2    0    0  0.69693371666E-02  0.20101044702E-01 -0.11494392760E-01  0.24181495478E-01  0.00000000000E+00 0. -1.
     999901    1    3    3    0    0  0.24185980846E-01  0.74462975158E-01 -0.73792714533E-01  0.88655234536E+00  0.88000000000E+00 0.  1.
        -11    1    4    4    0    0 -0.79118988055E-03 -0.11781260381E-01  0.21630511480E-02  0.12015156630E-01  0.51100000000E-03 0. -1.
         11    1    4    4    0    0 -0.30364128132E-01 -0.82782759480E-01  0.83124056145E-01  0.12118100253E+00  0.51100000000E-03 0.  1.
</event>
<event>
 8    1  0.1091347E+005  0.1043930E+01  0.7957747E-01            NaN
         13   -1    0    0    0    0  0.00000000000E+00  0.00000000000E+00  0.74505805969E-08  0.10566000000E+00  0.10566000000E+00 0. -1.
     999900   -1    0    0    0    0 -0.00000000000E+00 -0.00000000000E+00 -0.74505805969E-08  0.93827000000E+00  0.93827000000E+00 0. -1.
     999902    2    1    2    0    0  0.16580353135E-01 -0.88339368476E-03  0.13431895243E-01  0.10225734014E+01  0.10223503592E+01 0.  0.
     999903    2    3    3    0    0  0.67193527004E-01  0.10612067424E+00 -0.39342309018E-01  0.13308102899E+00  0.19651346678E-01 0.  0.
         14    1    1    2    0    0 -0.16580353135E-01  0.88339368476E-03 -0.13431895243E-01  0.21356598612E-01  0.00000000000E+00 0. -1.
     999901    1    3    3    0    0 -0.50613173869E-01 -0.10700406792E+00  0.52774204261E-01  0.88949237240E+00  0.88000000000E+00 0. -1.
        -11    1    4    4    0    0  0.45731106186E-01  0.55922697004E-01 -0.26877358567E-01  0.77080059923E-01  0.51100000000E-03 0. -1.
         11    1    4    4    0    0  0.21462420818E-01  0.50197977232E-01 -0.12464950451E-01  0.56000969066E-01  0.51100000000E-03 0.  1.
</event>
<event>
 8    1  0.1091347E+005  0.1043930E+01  0.7957747E-01            NaN
         13   -1    0    0    0    0  0.00000000000E+00  0.00000000000E+00  0.74505805969E-08  0.10566000000E+00  0.10566000000E+00 0. -1.
     999900   -1    0    0    0    0 -0.00000000000E+00 -0.00000000000E+00 -0.74505805969E-08  0.93827000000E+00  0.93827000000E+00 0. -1.
     999902    2    1    2    0    0 -0.17103489572E-01  0.17628188385E-02 -0.18435549597E-01  0.10187207482E+01  0.10184087865E+01 0.  0.
     999903    2    3    3    0    0  0.42591430575E-01  0.10812205408E+00 -0.53453258944E-01  0.12961894845E+00  0.20962165163E-01 0.  0.
         14    1    1    2    0    0  0.17103489572E-01 -0.17628188385E-02  0.18435549597E-01  0.25209251769E-01  0.00000000000E+00 0. -1.
     999901    1    3    3    0    0 -0.59694920147E-01 -0.10635923524E+00  0.35017709347E-01  0.88910179978E+00  0.88000000000E+00 0. -1.
        -11    1    4    4    0    0  0.41642739432E-01  0.88535829357E-01 -0.49332528595E-01  0.10957495300E+00  0.51100000000E-03 0.  1.
         11    1    4    4    0    0  0.94869114300E-03  0.19586224720E-01 -0.41207303492E-02  0.20043995442E-01  0.51100000000E-03 0. -1.
</event>
<event>
 8    1  0.1091347E+005  0.1043930E+01  0.7957747E-01            NaN
         13   -1    0    0    0    0  0.00000000000E+00  0.00000000000E+00  0.74505805969E-08  0.10566000000E+00  0.10566000000E+00 0.  1.
     999900   -1    0    0    0    0 -0.00000000000E+00 -0.00000000000E+00 -0.74505805969E-08  0.93827000000E+00  0.93827000000E+00 0. -1.
     999902    2    1    2    0    0 -0.38388043608E-02 -0.19319140767E-01  0.12984063002E-01  0.10203386560E+01  0.10200658907E+01 0.  0.
     999903    2    3    3    0    0  0.12360645919E-01 -0.12556320246E+00  0.38686235084E-01  0.13342782370E+00  0.19683901332E-01 0.  0.
         14    1    1    2    0    0  0.38388043608E-02  0.19319140767E-01 -0.12984063002E-01  0.23591343983E-01  0.00000000000E+00 0. -1.
     999901    1    3    3    0    0 -0.16199450279E-01  0.10624406170E+00 -0.25702172083E-01  0.88691083232E+00  0.88000000000E+00 0. -1.
        -11    1    4    4    0    0  0.34276124433E-02 -0.68726597784E-01  0.11410778399E-01  0.69753571626E-01  0.51100000000E-03 0. -1.
         11    1    4    4    0    0  0.89330334753E-02 -0.56836604679E-01  0.27275456685E-01  0.63674252072E-01  0.51100000000E-03 0.  1.
</event>
<event>
 8    1  0.1091347E+005  0.1043930E+01  0.7957747E-01            NaN
         13   -1    0    0    0    0  0.00000000000E+00  0.00000000000E+00  0.74505805969E-08  0.10566000000E+00  0.10566000000E+00 0.  1.
     999900   -1    0    0    0    0 -0.00000000000E+00 -0.00000000000E+00 -0.74505805969E-08  0.93827000000E+00  0.93827000000E+00 0.  1.
     999902    2    1    2    0    0  0.49533514660E-02 -0.14266799831E-01 -0.17820855030E-01  0.10205706305E+01  0.10203032646E+01 0.  0.
     999903    2    3    3    0    0 -0.58243573601E-01  0.71549834269E-01  0.87805044738E-01  0.12786957377E+00  0.11367029784E-01 0.  0.
         14    1    1    2    0    0 -0.49533514660E-02  0.14266799831E-01  0.17820855030E-01  0.23359369473E-01  0.00000000000E+00 0. -1.
     999901    1    3    3    0    0  0.63196925067E-01 -0.85816634100E-01 -0.10562589977E+00  0.89270105675E+00  0.88000000000E+00 0.  1.
        -11    1    4    4    0    0 -0.32933812212E-01  0.48311083066E-01  0.58428533695E-01  0.82660458531E-01  0.51100000000E-03 0.  1.
         11    1    4    4    0    0 -0.25309761389E-01  0.23238751204E-01  0.29376511043E-01  0.45209115244E-01  0.51100000000E-03 0. -1.
</event>
<event>
 8    1  0.1091347E+005  0.1043930E+01  0.7957747E-01            NaN
         13   -1    0    0    0    0  0.00000000000E+00  0.00000000000E+00  0.74505805969E-08  0.10566000000E+00  0.10566000000E+00 0. -1.
     999900   -1    0    0    0    0 -0.00000000000E+00 -0.00000000000E+00 -0.74505805969E-08  0.93827000000E+00  0.93827000000E+00 0.  1.
     999902    2    1    2    0    0 -0.23868667060E-01  0.25381342946E-02 -0.55749406257E-02  0.10192878541E+01  0.10189899382E+01 0.  0.
     999903    2    3    3    0    0 -0.13109973603E+00  0.49526284424E-02 -0.14429553579E-02  0.13276577018E+00  0.20322359497E-01 0.  0.
         14    1    1    2    0    0  0.23868667060E-01 -0.25381342946E-02  0.55749406257E-02  0.24642145927E-01  0.00000000000E+00 0. -1.
     999901    1    3    3    0    0  0.10723106897E+00 -0.24144941478E-02 -0.41319852677E-02  0.88652208390E+00  0.88000000000E+00 0. -1.
        -11    1    4    4    0    0 -0.21217207613E-01  0.83870790465E-02 -0.30196106073E-03  0.22822473470E-01  0.51100000000E-03 0.  1.
         11    1    4    4    0    0 -0.10988252841E+00 -0.34344506041E-02 -0.11409942972E-02  0.10994329671E+00  0.51100000000E-03 0. -1.
</event>
<event>
 8    1  0.1091347E+005  0.1043930E+01  0.7957747E-01            NaN
         13   -1    0    0    0    0  0.00000000000E+00  0.00000000000E+00  0.74505805969E-08  0.10566000000E+00  0.10566000000E+00 0.  1.
     999900   -1    0    0    0    0 -0.00000000000E+00 -0.00000000000E+00 -0.74505805969E-08  0.93827000000E+00  0.93827000000E+00 0. -1.
     999902    2    1    2    0    0  0.72546585178E-02  0.17987932694E-01 -0.13246894503E-01  0.10204422158E+01  0.10201718678E+01 0.  0.
     999903    2    3    3    0    0  0.37214872153E-01  0.22932924151E-01  0.12055818007E+00  0.12980993179E+00  0.20136481544E-01 0.  0.
         14    1    1    2    0    0 -0.72546585178E-02 -0.17987932694E-01  0.13246894503E-01  0.23487784203E-01  0.00000000000E+00 0. -1.
     999901    1    3    3    0    0 -0.29960213635E-01 -0.49449914578E-02 -0.13380507457E+00  0.89063228401E+00  0.88000000000E+00 0. -1.
        -11    1    4    4    0    0  0.92076154237E-02  0.90088841547E-02  0.62949806585E-01  0.64256357239E-01  0.51100000000E-03 0. -1.
         11    1    4    4    0    0  0.28007256729E-01  0.13924039997E-01  0.57608373485E-01  0.65553574547E-01  0.51100000000E-03 0.  1.
</event>
<event>
 8    1  0.1091347E+005  0.1043930E+01  0.7957747E-01            NaN
         13   -1    0    0    0    0  0.00000000000E+00  0.00000000000E+00  0.74505805969E-08  0.10566000000E+00  0.10566000000E+00 0.  1.
     999900   -1    0    0    0    0 -0.00000000000E+00 -0.00000000000E+00 -0.74505805969E-08  0.93827000000E+00  0.93827000000E+00 0. -1.
     999902    2    1    2    0    0 -0.19138317289E-01 -0.99774213029E-03 -0.13828450738E-01  0.10202974646E+01  0.10200237348E+01 0.  0.
     999903    2    3    3    0    0  0.10335820372E+00  0.69381266769E-01 -0.26551919294E-01  0.12893867649E+00  0.20579101592E-01 0.  0.
         14    1    1    2    0    0  0.19138317289E-01  0.99774213029E-03  0.13828450738E-01  0.23632535366E-01  0.00000000000E+00 0. -1.
     999901    1    3    3    0    0 -0.12249652101E+00 -0.70379008899E-01  0.12723468555E-01  0.89135878815E+00  0.88000000000E+00 0.  1.
        -11    1    4    4    0    0  0.94298556703E-01  0.55290479061E-01 -0.24764662420E-01  0.11208391721E+00  0.51100000000E-03 0. -1.
         11    1    4    4    0    0  0.90596470142E-02  0.14090787707E-01 -0.17872568730E-02  0.16854759279E-01  0.51100000000E-03 0.  1.
</event>
<event>
 8    1  0.1091347E+005  0.1043930E+01  0.7957747E-01            NaN
         13   -1    0    0    0    0  0.00000000000E+00  0.00000000000E+00  0.74505805969E-08  0.10566000000E+00  0.10566000000E+00 0.  1.
     999900   -1    0    0    0    0 -0.00000000000E+00 -0.00000000000E+00 -0.74505805969E-08  0.93827000000E+00  0.93827000000E+00 0. -1.
     999902    2    1    2    0    0 -0.21743024354E-01 -0.55429064184E-02  0.77656125420E-02  0.10201857869E+01  0.10199094333E+01 0.  0.
     999903    2    3    3    0    0 -0.37325143314E-01  0.23938823801E-01 -0.12065659595E+00  0.13023958709E+00  0.20930893185E-01 0.  0.
         14    1    1    2    0    0  0.21743024354E-01  0.55429064184E-02 -0.77656125420E-02  0.23744213143E-01  0.00000000000E+00 0. -1.
     999901    1    3    3    0    0  0.15582118959E-01 -0.29481730219E-01  0.12842220850E+00  0.88994619977E+00  0.88000000000E+00 0.  1.
        -11    1    4    4    0    0 -0.22062277803E-01  0.23569167714E-01 -0.65787715665E-01  0.73283930176E-01  0.51100000000E-03 0.  1.
         11    1    4    4    0    0 -0.15262865510E-01  0.36965608610E-03 -0.54868880289E-01  0.56955656912E-01  0.51100000000E-03 0. -1.
</event>
<event>
 8    1  0.1091347E+005  0.1043930E+01  0.7957747E-01            NaN
         13   -1    0    0    0    0  0.00000000000E+00  0.00000000000E+00  0.74505805969E-08  0.10566000000E+00  0.10566000000E+00 0. -1.
     999900   -1    0    0    0    0 -0.00000000000E+00 -0.00000000000E+00 -0.74505805969E-08  0.93827000000E+00  0.93827000000E+00 0.  1.
     999902    2    1    2    0    0 -0.20903590665E-01 -0.10353715705E-01 -0.10140869268E-02  0.10205807408E+01  0.10203136090E+01 0.  0.
     999903    2    3    3    0    0  0.11781930399E+00  0.26848663992E-01  0.36619752335E-01  0.12814342403E+00  0.21851583706E-01 0.  0.
         14    1    1    2    0    0  0.20903590665E-01  0.10353715705E-01  0.10140869268E-02  0.23349259172E-01  0.00000000000E+00 0. -1.
     999901    1    3    3    0    0 -0.13872289465E+00 -0.37202379696E-01 -0.37633839262E-01  0.89243731680E+00  0.88000000000E+00 0.  1.
        -11    1    4    4    0    0  0.63351528999E-01  0.10574218163E-01  0.30062191977E-01  0.70917041843E-01  0.51100000000E-03 0. -1.
         11    1    4    4    0    0  0.54467774989E-01  0.16274445829E-01  0.65575603583E-02  0.57226382186E-01  0.51100000000E-03 0.  1.
</event>
<event>
 8    1  0.1091347E+005  0.1043930E+01  0.7957747E-01            NaN
         13   -1    0    0    0    0  0.00000000000E+00  0.00000000000E+00  0.74505805969E-08  0.10566000000E+00  0.10566000000E+00 0. -1.
     999900   -1    0    0    0    0 -0.00000000000E+00 -0.00000000000E+00 -0.74505805969E-08  0.93827000000E+00  0.93827000000E+00 0. -1.
     999902    2    1    2    0    0 -0.16801024294E-01 -0.17624384325E-01  0.21646444938E-02  0.10194845704E+01  0.10191914493E+01 0.  0.
     999903    2    3    3    0    0 -0.22326362647E-01 -0.15420916037E-02 -0.12701580713E+00  0.12989097864E+00  0.15420977789E-01 0.  0.
         14    1    1    2    0    0  0.16801024294E-01  0.17624384325E-01 -0.21646444938E-02  0.24445429552E-01  0.00000000000E+00 0.  1.
     999901    1    3    3    0    0  0.55253383530E-02 -0.16082292722E-01  0.12918045162E+00  0.88959359181E+00  0.88000000000E+00 0.  1.
        -11    1    4    4    0    0 -0.18711230011E-01 -0.40794657654E-02 -0.66293130565E-01  0.69005742157E-01  0.51100000000E-03 0.  1.
         11    1    4    4    0    0 -0.36151326360E-02  0.25373741617E-02 -0.60722676564E-01  0.60885236484E-01  0.51100000000E-03 0. -1.
</event>
<event>
 8    1  0.1091347E+005  0.1043930E+01  0.7957747E-01            NaN
         13   -1    0    0    0    0  0.00000000000E+00  0.00000000000E+00  0.74505805969E-08  0.10566000000E+00  0.10566000000E+00 0.  1.
     999900   -1    0    0    0    0 -0.00000000000E+00 -0.00000000000E+00 -0.74505805969E-08  0.93827000000E+00  0.93827000000E+00 0. -1.
     999902    2    1    2    0    0  0.10141604093E-01  0.16527949356E-01 -0.14084836457E-01  0.10199631925E+01  0.10196815710E+01 0.  0.
     999903    2    3    3    0    0 -0.52599319263E-01 -0.11193620815E+00  0.23921565030E-01  0.12761575469E+00  0.20423919500E-01 0.  0.
         14    1    1    2    0    0 -0.10141604093E-01 -0.16527949356E-01  0.14084836457E-01  0.23966807495E-01  0.00000000000E+00 0.  1.
     999901    1    3    3    0    0  0.62740923356E-01  0.12846415751E+00 -0.38006401487E-01  0.89234743782E+00  0.88000000000E+00 0. -1.
        -11    1    4    4    0    0 -0.12965888789E-01 -0.26037872858E-01 -0.30294600748E-02  0.29249339213E-01  0.51100000000E-03 0. -1.
         11    1    4    4    0    0 -0.39633430474E-01 -0.85898335296E-01  0.26951025105E-01  0.98366415473E-01  0.51100000000E-03 0.  1.
</event>
<event>
 8    1  0.1091347E+005  0.1043930E+01  0.7957747E-01            NaN
         13   -1    0    0    0    0  0.00000000000E+00  0.00000000000E+00  0.74505805969E-08  0.10566000000E+00  0.10566000000E+00 0. -1.
     999900   -1    0    0    0    0 -0.00000000000E+00 -0.00000000000E+00 -0.74505805969E-08  0.93827000000E+00  0.93827000000E+00 0. -1.
     999902    2    1    2    0    0 -0.14466105371E-01 -0.17457537456E-01  0.64409069509E-02  0.10203605473E+01  0.10200882939E+01 0.  0.
     999903    2    3    3    0    0 -0.11804556023E-01 -0.26595601814E-01 -0.12555376760E+00  0.13046550731E+00  0.20268854457E-01 0.  0.
         14    1    1    2    0    0  0.14466105371E-01  0.17457537456E-01 -0.64409069509E-02  0.23569452709E-01  0.00000000000E+00 0.  1.
     999901    1    3    3    0    0 -0.26615493475E-02  0.91380643574E-02  0.13199467455E+00  0.88989503998E+00  0.88000000000E+00 0.  1.
        -11    1    4    4    0    0 -0.10022149150E-02 -0.17109823596E-01 -0.37368620161E-01  0.41114783131E-01  0.51100000000E-03 0.  1.
         11    1    4    4    0    0 -0.10802341108E-01 -0.94857782179E-02 -0.88185147441E-01  0.89350724183E-01  0.51100000000E-03 0. -1.
</event>
<event>
 8    1  0.1091347E+005  0.1043930E+01  0.7957747E-01            NaN
         13   -1    0    0    0    0  0.00000000000E+00  0.00000000000E+00  0.74505805969E-08  0.10566000000E+00  0.10566000000E+00 0. -1.
     999900   -1    0    0    0    0 -0.00000000000E+00 -0.00000000000E+00 -0.74505805969E-08  0.93827000000E+00  0.93827000000E+00 0. -1.
     999902    2    1    2    0    0  0.13969757561E-01  0.14724317693E-01  0.11974963664E-01  0.10203639351E+01  0.10200917609E+01 0.  0.
     999903    2    3    3    0    0  0.22635386875E-01 -0.11443904315E+00  0.53624321632E-01  0.12991857695E+00  0.19864879308E-01 0.  0.
         14    1    1    2    0    0 -0.13969757561E-01 -0.14724317693E-01 -0.11974963664E-01  0.23566064852E-01  0.00000000000E+00 0.  1.
     999901    1    3    3    0    0 -0.86656293138E-02  0.12916336084E+00 -0.41649357968E-01  0.89044535820E+00  0.88000000000E+00 0. -1.
        -11    1    4    4    0    0  0.13538923727E-01 -0.54091132925E-01  0.15193193403E-01  0.57794873160E-01  0.51100000000E-03 0.  1.
         11    1    4    4    0    0  0.90964631479E-02 -0.60347910227E-01  0.38431128229E-01  0.72123703791E-01  0.51100000000E-03 0. -1.
</event>
<event>
 8    1  0.1091347E+005  0.1043930E+01  0.7957747E-01            NaN
         13   -1    0    0    0    0  0.00000000000E+00  0.00000000000E+00  0.74505805969E-08  0.10566000000E+00  0.10566000000E+00 0.  1.
     999900   -1    0    0    0    0 -0.00000000000E+00 -0.00000000000E+00 -0.74505805969E-08  0.93827000000E+00  0.93827000000E+00 0. -1.
     999902    2    1    2    0    0 -0.10412988111E-01 -0.20908568784E-01  0.25066255680E-02  0.10204378366E+01  0.10201673866E+01 0.  0.
     999903    2    3    3    0    0  0.58119326501E-02 -0.70434345150E-02 -0.12848543029E+00  0.13048592289E+00  0.20849022613E-01 0.  0.
         14    1    1    2    0    0  0.10412988111E-01  0.20908568784E-01 -0.25066255680E-02  0.23492163411E-01  0.00000000000E+00 0.  1.
     999901    1    3    3    0    0 -0.16224920761E-01 -0.13865134269E-01  0.13099205586E+00  0.88995191370E+00  0.88000000000E+00 0.  1.
        -11    1    4    4    0    0  0.90117760474E-02  0.47951337154E-02 -0.68424796814E-01  0.69183953016E-01  0.51100000000E-03 0. -1.
         11    1    4    4    0    0 -0.31998433972E-02 -0.11838568230E-01 -0.60060633477E-01  0.61301969872E-01  0.51100000000E-03 0.  1.
</event>
<event>
 8    1  0.1091347E+005  0.1043930E+01  0.7957747E-01            NaN
         13   -1    0    0    0    0  0.00000000000E+00  0.00000000000E+00  0.74505805969E-08  0.10566000000E+00  0.10566000000E+00 0.  1.
     999900   -1    0    0    0    0 -0.00000000000E+00 -0.00000000000E+00 -0.74505805969E-08  0.93827000000E+00  0.93827000000E+00 0.  1.
     999902    2    1    2    0    0 -0.12973060435E-01 -0.17531053851E-01  0.78279042122E-02  0.10207585902E+01  0.10204955587E+01 0.  0.
     999903    2    3    3    0    0 -0.89538979037E-01 -0.78684432160E-01 -0.54755809215E-01  0.13311068889E+00  0.22622736865E-01 0.  0.
         14    1    1    2    0    0  0.12973060435E-01  0.17531053851E-01 -0.78279042122E-02  0.23171409766E-01  0.00000000000E+00 0. -1.
     999901    1    3    3    0    0  0.76565918602E-01  0.61153378309E-01  0.62583713427E-01  0.88764790134E+00  0.88000000000E+00 0. -1.
        -11    1    4    4    0    0 -0.34320434855E-01 -0.32033431067E-01 -0.33782948678E-01  0.57841003596E-01  0.51100000000E-03 0.  1.
         11    1    4    4    0    0 -0.55218544182E-01 -0.46651001094E-01 -0.20972860537E-01  0.75269685297E-01  0.51100000000E-03 0. -1.
</event>
<event>
 8    1  0.1091347E+005  0.1043930E+01  0.7957747E-01            NaN
         13   -1    0    0    0    0  0.00000000000E+00  0.00000000000E+00  0.74505805969E-08  0.10566000000E+00  0.10566000000E+00 0. -1.
     999900   -1    0    0    0    0 -0.00000000000E+00 -0.00000000000E+00 -0.74505805969E-08  0.93827000000E+00  0.93827000000E+00 0.  1.
     999902    2    1    2    0    0  0.15339583948E-01 -0.16945246119E-01  0.43934403575E-02  0.10206545511E+01  0.10203891249E+01 0.  0.
     999903    2    3    3    0    0  0.16462620457E-01  0.40478706894E-01 -0.12070094656E+00  0.12995405308E+00  0.20243365039E-01 0.  0.
         14    1    1    2    0    0 -0.15339583948E-01  0.16945246119E-01 -0.43934403575E-02  0.23275448866E-01  0.00000000000E+00 0.  1.
     999901    1    3    3    0    0 -0.11230365087E-02 -0.57423953013E-01  0.12509438692E+00  0.89070049805E+00  0.88000000000E+00 0. -1.
        -11    1    4    4    0    0 -0.43222558625E-02  0.12445102345E-01 -0.29979970623E-01  0.32750911860E-01  0.51100000000E-03 0.  1.
         11    1    4    4    0    0  0.20784876320E-01  0.28033604549E-01 -0.90720975937E-01  0.97203141223E-01  0.51100000000E-03 0. -1.
</event>
<event>
 8    1  0.1091347E+005  0.1043930E+01  0.7957747E-01            NaN
         13   -1    0    0    0    0  0.00000000000E+00  0.00000000000E+00  0.74505805969E-08  0.10566000000E+00  0.10566000000E+00 0. -1.
     999900   -1    0    0    0    0 -0.00000000000E+00 -0.00000000000E+00 -0.74505805969E-08  0.93827000000E+00  0.93827000000E+00 0. -1.
     999902    2    1    2    0    0  0.14203784767E-01 -0.16050853045E-01 -0.10029716677E-01  0.10202662598E+01  0.10199917981E+01 0.  0.
     999903    2    3    3    0    0 -0.25956659024E-01 -0.78562030152E-02  0.12454565809E+00  0.12909257017E+00  0.20440221393E-01 0.  0.
         14    1    1    2    0    0 -0.14203784767E-01  0.16050853045E-01  0.10029716677E-01  0.23663740232E-01  0.00000000000E+00 0. -1.
     999901    1    3    3    0    0  0.40160443791E-01 -0.81946500293E-02 -0.13457537477E+00  0.89117368960E+00  0.88000000000E+00 0. -1.
        -11    1    4    4    0    0  0.31197370207E-02 -0.31277975669E-02  0.18834612539E-01  0.19352509584E-01  0.51100000000E-03 0. -1.
         11    1    4    4    0    0 -0.29076396045E-01 -0.47284054483E-02  0.10571104555E+00  0.10974006059E+00  0.51100000000E-03 0.  1.
</event>
<event>
 8    1  0.1091347E+005  0.1043930E+01  0.7957747E-01            NaN
         13   -1    0    0    0    0  0.00000000000E+00  0.00000000000E+00  0.74505805969E-08  0.10566000000E+00  0.10566000000E+00 0. -1.
     999900   -1    0    0    0    0 -0.00000000000E+00 -0.00000000000E+00 -0.74505805969E-08  0.93827000000E+00  0.93827000000E+00 0.  1.
     999902    2    1    2    0    0 -0.18881106348E-01  0.37748259418E-02 -0.13526711740E-01  0.10203987990E+01  0.10201274389E+01 0.  0.
     999903    2    3    3    0    0 -0.34577398773E-02 -0.31589569979E-01 -0.12687338068E+00  0.13229070422E+00  0.19852425562E-01 0.  0.
         14    1    1    2    0    0  0.18881106348E-01 -0.37748259418E-02  0.13526711740E-01  0.23531200953E-01  0.00000000000E+00 0. -1.
     999901    1    3    3    0    0 -0.15423366470E-01  0.35364395920E-01  0.11334666894E+00  0.88810809482E+00  0.88000000000E+00 0. -1.
        -11    1    4    4    0    0  0.55314898608E-02 -0.15103045775E-01 -0.83307137288E-01  0.84847154436E-01  0.51100000000E-03 0. -1.
         11    1    4    4    0    0 -0.89892297381E-02 -0.16486524204E-01 -0.43566243397E-01  0.47443549786E-01  0.51100000000E-03 0.  1.
</event>
<event>
 8    1  0.1091347E+005  0.1043930E+01  0.7957747E-01            NaN
         13   -1    0    0    0    0  0.00000000000E+00  0.00000000000E+00  0.74505805969E-08  0.10566000000E+00  0.10566000000E+00 0.  1.
     999900   -1    0    0    0    0 -0.00000000000E+00 -0.00000000000E+00 -0.74505805969E-08  0.93827000000E+00  0.93827000000E+00 0. -1.
     999902    2    1    2    0    0 -0.81581233035E-02  0.14043631568E-01  0.17570857534E-01  0.10200027436E+01  0.10197220618E+01 0.  0.
     999903    2    3    3    0    0 -0.21587052207E-01 -0.10756495393E+00  0.66222912670E-01  0.13020725775E+00  0.23070233441E-01 0.  0.
         14    1    1    2    0    0  0.81581233035E-02 -0.14043631568E-01 -0.17570857534E-01  0.23927256381E-01  0.00000000000E+00 0. -1.
     999901    1    3    3    0    0  0.13428928903E-01  0.12160858550E+00 -0.48652055136E-01  0.88979548587E+00  0.88000000000E+00 0. -1.
        -11    1    4    4    0    0 -0.18616261919E-01 -0.62546230888E-01  0.27761491728E-01  0.70919374997E-01  0.51100000000E-03 0. -1.
         11    1    4    4    0    0 -0.29707902882E-02 -0.45018723047E-01  0.38461420942E-01  0.59287882755E-01  0.51100000000E-03 0.  1.
</event>
<event>
 8    1  0.1091347E+005  0.1043930E+01  0.7957747E-01            NaN
         13   -1    0    0    0    0  0.00000000000E+00  0.00000000000E+00  0.74505805969E-08  0.10566000000E+00  0.10566000000E+00 0.  1.
     999900   -1    0    0    0    0 -0.00000000000E+00 -0.00000000000E+00 -0.74505805969E-08  0.93827000000E+00  0.93827000000E+00 0. -1.
     999902    2    1    2    0    0 -0.23954150165E-01 -0.28358316239E-02 -0.86646711414E-03  0.10197930156E+01  0.10195073323E+01 0.  0.
     999903    2    3    3    0    0 -0.84467841596E-01  0.96034075782E-01 -0.25284602644E-01  0.13185528648E+00  0.19726770281E-01 0.  0.
         14    1    1    2    0    0  0.23954150165E-01  0.28358316239E-02  0.86646711414E-03  0.24136984409E-01  0.00000000000E+00 0.  1.
     999901    1    3    3    0    0  0.60513691432E-01 -0.98869907406E-01  0.24418135530E-01  0.88793772911E+00  0.88000000000E+00 0. -1.
        -11    1    4    4    0    0 -0.35625578898E-01  0.47481932622E-01 -0.28827683414E-02  0.59433048649E-01  0.51100000000E-03 0. -1.
         11    1    4    4    0    0 -0.48842262698E-01  0.48552143160E-01 -0.22401834303E-01  0.72422237828E-01  0.51100000000E-03 0.  1.
</event>
<event>
 8    1  0.1091347E+005  0.1043930E+01  0.7957747E-01            NaN
         13   -1    0    0    0    0  0.00000000000E+00  0.00000000000E+00  0.74505805969E-08  0.10566000000E+00  0.10566000000E+00 0. -1.
     999900   -1    0    0    0    0 -0.00000000000E+00 -0.00000000000E+00 -0.74505805969E-08  0.93827000000E+00  0.93827000000E+00 0.  1.
     999902    2    1    2    0    0 -0.16601264181E-01 -0.15928576319E-01 -0.55719009980E-02  0.10202579152E+01  0.10199832577E+01 0.  0.
     999903    2    3    3    0    0 -0.11129145003E+00  0.27628704214E-01 -0.58640012970E-01  0.13251938815E+00  0.31202643596E-01 0.  0.
         14    1    1    2    0    0  0.16601264181E-01  0.15928576319E-01  0.55719009980E-02  0.23672084755E-01  0.00000000000E+00 0. -1.
     999901    1    3    3    0    0  0.94690185850E-01 -0.43557280533E-01  0.53068111972E-01  0.88773852710E+00  0.88000000000E+00 0. -1.
        -11    1    4    4    0    0 -0.54080382906E-01  0.20304862211E-02 -0.15053959531E-01  0.56175559704E-01  0.51100000000E-03 0. -1.
         11    1    4    4    0    0 -0.57211067125E-01  0.25598217993E-01 -0.43586053439E-01  0.76343828443E-01  0.51100000000E-03 0.  1.
</event>
<event>
 8    1  0.1091347E+005  0.1043930E+01  0.7957747E-01            NaN
         13   -1    0    0    0    0  0.00000000000E+00  0.00000000000E+00  0.74505805969E-08  0.10566000000E+00  0.10566000000E+00 0. -1.
     999900   -1    0    0    0    0 -0.00000000000E+00 -0.00000000000E+00 -0.74505805969E-08  0.93827000000E+00  0.93827000000E+00 0.  1.
     999902    2    1    2    0    0  0.23730552303E-01  0.27363626040E-02 -0.43091865179E-03  0.10200383177E+01  0.10197584798E+01 0.  0.
     999903    2    3    3    0    0 -0.65092546130E-01 -0.24507256202E-01 -0.10655402781E+00  0.12880665763E+00  0.19993724998E-01 0.  0.
         14    1    1    2    0    0 -0.23730552303E-01 -0.27363626040E-02  0.43091865179E-03  0.23891682314E-01  0.00000000000E+00 0.  1.
     999901    1    3    3    0    0  0.88823098433E-01  0.27243618806E-01  0.10612310916E+00  0.89123166005E+00  0.88000000000E+00 0.  1.
        -11    1    4    4    0    0 -0.48595225807E-01 -0.95465869079E-02 -0.65729654012E-01  0.82299950367E-01  0.51100000000E-03 0.  1.
         11    1    4    4    0    0 -0.16497320324E-01 -0.14960669294E-01 -0.40824373801E-01  0.46506707268E-01  0.51100000000E-03 0. -1.
</event>
<event>
 8    1  0.1091347E+005  0.1043930E+01  0.7957747E-01            NaN
         13   -1    0    0    0    0  0.00000000000E+00  0.00000000000E+00  0.74505805969E-08  0.10566000000E+00  0.10566000000E+00 0. -1.
     999900   -1    0    0    0    0 -0.00000000000E+00 -0.00000000000E+00 -0.74505805969E-08  0.93827000000E+00  0.93827000000E+00 0. -1.
     999902    2    1    2    0    0  0.90570014692E-02 -0.33261168582E-03 -0.21788768127E-01  0.10203314763E+01  0.10200585430E+01 0.  0.
     999903    2    3    3    0    0 -0.11317914552E-01 -0.12727103874E+00  0.16508907410E-01  0.13016564148E+00  0.18561726899E-01 0.  0.
         14    1    1    2    0    0 -0.90570014692E-02  0.33261168582E-03  0.21788768127E-01  0.23598523739E-01  0.00000000000E+00 0. -1.
     999901    1    3    3    0    0  0.20374916021E-01  0.12693842705E+00 -0.38297675537E-01  0.89016583478E+00  0.88000000000E+00 0. -1.
        -11    1    4    4    0    0 -0.86265570314E-02 -0.22621268104E-01  0.60418066786E-02  0.24958040904E-01  0.51100000000E-03 0. -1.
         11    1    4    4    0    0 -0.26913575202E-02 -0.10464977064E+00  0.10467100731E-01  0.10520760057E+00  0.51100000000E-03 0.  1.
</event>
<event>
 8    1  0.1091347E+005  0.1043930E+01  0.7957747E-01            NaN
         13   -1    0    0    0    0  0.00000000000E+00  0.00000000000E+00  0.74505805969E-08  0.10566000000E+00  0.10566000000E+00 0. -1.
     999900   -1    0    0    0    0 -0.00000000000E+00 -0.00000000000E+00 -0.74505805969E-08  0.93827000000E+00  0.93827000000E+00 0. -1.
     999902    2    1    2    0    0 -0.74792675050E-02 -0.43531237666E-02  0.21431798136E-01  0.10208169928E+01  0.10205553007E+01 0.  0.
     999903    2    3    3    0    0  0.69461294203E-01  0.38212947092E-01 -0.98915163315E-01  0.12828401778E+00  0.19684485432E-01 0.  0.
         14    1    1    2    0    0  0.74792675050E-02  0.43531237666E-02 -0.21431798136E-01  0.23113007167E-01  0.00000000000E+00 0.  1.
     999901    1    3    3    0    0 -0.76940561708E-01 -0.42566070859E-01  0.12034696145E+00  0.89253297505E+00  0.88000000000E+00 0. -1.
        -11    1    4    4    0    0  0.49860485459E-01  0.36606661969E-01 -0.78332224471E-01  0.99811393249E-01  0.51100000000E-03 0.  1.
         11    1    4    4    0    0  0.19600808744E-01  0.16062851229E-02 -0.20582938844E-01  0.28472624533E-01  0.51100000000E-03 0. -1.
</event>
<event>
 8    1  0.1091347E+005  0.1043930E+01  0.7957747E-01            NaN
         13   -1    0    0    0    0  0.00000000000E+00  0.00000000000E+00  0.74505805969E-08  0.10566000000E+00  0.10566000000E+00 0. -1.
     999900   -1    0    0    0    0 -0.00000000000E+00 -0.00000000000E+00 -0.74505805969E-08  0.93827000000E+00  0.93827000000E+00 0. -1.
     999902    2    1    2    0    0 -0.14923198540E-01  0.26349993563E-02 -0.18495338630E-01  0.10200192780E+01  0.10197389886E+01 0.  0.
     999903    2    3    3    0    0  0.95439096135E-01  0.13084397721E-01  0.80951751692E-01  0.12750667315E+00  0.20614147120E-01 0.  0.
         14    1    1    2    0    0  0.14923198540E-01 -0.26349993563E-02  0.18495338630E-01  0.23910722015E-01  0.00000000000E+00 0. -1.
     999901    1    3    3    0    0 -0.11036229467E+00 -0.10449398365E-01 -0.99447090322E-01  0.89251260483E+00  0.88000000000E+00 0. -1.
        -11    1    4    4    0    0  0.58374010814E-01  0.16573656914E-01  0.43246554789E-01  0.74516688494E-01  0.51100000000E-03 0. -1.
         11    1    4    4    0    0  0.37065085321E-01 -0.34892591924E-02  0.37705196902E-01  0.52989984658E-01  0.51100000000E-03 0.  1.
</event>
<event>
 8    1  0.1091347E+005  0.1043930E+01  0.7957747E-01            NaN
         13   -1    0    0    0    0  0.00000000000E+00  0.00000000000E+00  0.74505805969E-08  0.10566000000E+00  0.10566000000E+00 0. -1.
     999900   -1    0    0    0    0 -0.00000000000E+00 -0.00000000000E+00 -0.74505805969E-08  0.93827000000E+00  0.93827000000E+00 0. -1.
     999902    2    1    2    0    0  0.89116933824E-02 -0.15199769018E-01  0.11589287803E-01  0.10228405987E+01  0.10226231600E+01 0.  0.
     999903    2    3    3    0    0 -0.43619928258E-01 -0.12213073940E+00  0.27567629245E-01  0.13466881849E+00  0.23602983766E-01 0.  0.
         14    1    1    2    0    0 -0.89116933824E-02  0.15199769018E-01 -0.11589287803E-01  0.21089401341E-01  0.00000000000E+00 0.  1.
     999901    1    3    3    0    0  0.52531621640E-01  0.10693097038E+00 -0.15978341442E-01  0.88817178017E+00  0.88000000000E+00 0. -1.
        -11    1    4    4    0    0 -0.79252605014E-02 -0.56798758673E-01  0.10930261238E-01  0.58383563376E-01  0.51100000000E-03 0. -1.
         11    1    4    4    0    0 -0.35694667756E-01 -0.65331980728E-01  0.16637368007E-01  0.76285255111E-01  0.51100000000E-03 0.  1.
</event>
<event>
 8    1  0.1091347E+005  0.1043930E+01  0.7957747E-01            NaN
         13   -1    0    0    0    0  0.00000000000E+00  0.00000000000E+00  0.74505805969E-08  0.10566000000E+00  0.10566000000E+00 0. -1.
     999900   -1    0    0    0    0 -0.00000000000E+00 -0.00000000000E+00 -0.74505805969E-08  0.93827000000E+00  0.93827000000E+00 0.  1.
     999902    2    1    2    0    0 -0.15185404575E-01 -0.16780421962E-01 -0.65817241904E-02  0.10203609914E+01  0.10200887484E+01 0.  0.
     999903    2    3    3    0    0 -0.97635366872E-01  0.32717473330E-01 -0.80305167174E-01  0.13205744870E+00  0.19676177384E-01 0.  0.
         14    1    1    2    0    0  0.15185404575E-01  0.16780421962E-01  0.65817241904E-02  0.23569008606E-01  0.00000000000E+00 0. -1.
     999901    1    3    3    0    0  0.82449962297E-01 -0.49497895292E-01  0.73723442984E-01  0.88830354270E+00  0.88000000000E+00 0. -1.
        -11    1    4    4    0    0 -0.17542361869E-01  0.90955271179E-02 -0.25120416611E-01  0.31964973412E-01  0.51100000000E-03 0. -1.
         11    1    4    4    0    0 -0.80093005003E-01  0.23621946212E-01 -0.55184750563E-01  0.10009247529E+00  0.51100000000E-03 0.  1.
</event>
<event>
 8    1  0.1091347E+005  0.1043930E+01  0.7957747E-01            NaN
         13   -1    0    0    0    0  0.00000000000E+00  0.00000000000E+00  0.74505805969E-08  0.10566000000E+00  0.10566000000E+00 0. -1.
     999900   -1    0    0    0    0 -0.00000000000E+00 -0.00000000000E+00 -0.74505805969E-08  0.93827000000E+00  0.93827000000E+00 0.  1.
     999902    2    1    2    0    0 -0.56481467447E-02 -0.34124596974E-02  0.23137958532E-01  0.10198694188E+01  0.10195855628E+01 0.  0.
     999903    2    3    3    0    0  0.38260140833E-01 -0.58577776556E-01  0.11107488349E+00  0.13268057042E+00  0.19269399113E-01 0.  0.
         14    1    1    2    0    0  0.56481467447E-02  0.34124596974E-02 -0.23137958532E-01  0.24060581204E-01  0.00000000000E+00 0.  1.
     999901    1    3    3    0    0 -0.43908287578E-01  0.55165316859E-01 -0.87936924962E-01  0.88718884837E+00  0.88000000000E+00 0.  1.
        -11    1    4    4    0    0  0.17318250236E-01 -0.33027660803E-01  0.42386789385E-01  0.56459270316E-01  0.51100000000E-03 0.  1.
         11    1    4    4    0    0  0.20941890597E-01 -0.25550115753E-01  0.68688094110E-01  0.76221300108E-01  0.51100000000E-03 0. -1.
</event>
<event>
 8    1  0.1091347E+005  0.1043930E+01  0.7957747E-01            NaN
         13   -1    0    0    0    0  0.00000000000E+00  0.00000000000E+00  0.74505805969E-08  0.10566000000E+00  0.10566000000E+00 0. -1.
     999900   -1    0    0    0    0 -0.00000000000E+00 -0.00000000000E+00 -0.74505805969E-08  0.93827000000E+00  0.93827000000E+00 0. -1.
     999902    2    1    2    0    0 -0.11827554194E-01  0.12325926730E-01 -0.19399005286E-01  0.10180815781E+01  0.10177533880E+01 0.  0.
     999903    2    3    3    0    0 -0.58591799249E-01  0.77166723000E-01 -0.87463887296E-01  0.13184004690E+00  0.18551665936E-01 0.  0.
         14    1    1    2    0    0  0.11827554194E-01 -0.12325926730E-01  0.19399005286E-01  0.25848421887E-01  0.00000000000E+00 0. -1.
     999901    1    3    3    0    0  0.46764245055E-01 -0.64840796270E-01  0.68064882009E-01  0.88624153121E+00  0.88000000000E+00 0.  1.
        -11    1    4    4    0    0 -0.33766025580E-01  0.58377312088E-01 -0.57500514469E-01  0.88626324167E-01  0.51100000000E-03 0.  1.
         11    1    4    4    0    0 -0.24825773669E-01  0.18789410912E-01 -0.29963372827E-01  0.43213722737E-01  0.51100000000E-03 0. -1.
</event>
<event>
 8    1  0.1091347E+005  0.1043930E+01  0.7957747E-01            NaN
         13   -1    0    0    0    0  0.00000000000E+00  0.00000000000E+00  0.74505805969E-08  0.10566000000E+00  0.10566000000E+00 0.  1.
     999900   -1    0    0    0    0 -0.00000000000E+00 -0.00000000000E+00 -0.74505805969E-08  0.93827000000E+00  0.93827000000E+00 0.  1.
     999902    2    1    2    0    0  0.11137860067E-01  0.15178182478E-01 -0.14450570124E-01  0.10201971509E+01  0.10199210649E+01 0.  0.
     999903    2    3    3    0    0 -0.19748879231E-01 -0.81553749770E-01  0.94159111250E-01  0.12772467497E+00  0.20164871238E-01 0.  0.
         14    1    1    2    0    0 -0.11137860067E-01 -0.15178182478E-01  0.14450570124E-01  0.23732849115E-01  0.00000000000E+00 0.  1.
     999901    1    3    3    0    0  0.30886739298E-01  0.96731932248E-01 -0.10860968137E+00  0.89247247592E+00  0.88000000000E+00 0.  1.
        -11    1    4    4    0    0 -0.85542037131E-02 -0.25416346056E-01  0.44418112151E-01  0.51888292091E-01  0.51100000000E-03 0. -1.
         11    1    4    4    0    0 -0.11194675518E-01 -0.56137403714E-01  0.49740999099E-01  0.75836382878E-01  0.51100000000E-03 0.  1.
</event>
<event>
 8    1  0.1091347E+005  0.1043930E+01  0.7957747E-01            NaN
         13   -1    0    0    0    0  0.00000000000E+00  0.00000000000E+00  0.74505805969E-08  0.10566000000E+00  0.10566000000E+00 0.  1.
     999900   -1    0    0    0    0 -0.00000000000E+00 -0.00000000000E+00 -0.74505805969E-08  0.93827000000E+00  0.93827000000E+00 0. -1.
     999902    2    1    2    0    0  0.99808422776E-02 -0.15001510041E-03 -0.20055000639E-01  0.10215281526E+01  0.10212824897E+01 0.  0.
     999903    2    3    3    0    0  0.63126575225E-02 -0.57572533619E-01  0.11420756320E+00  0.12948710125E+00  0.19211861595E-01 0.  0.
         14    1    1    2    0    0 -0.99808422776E-02  0.15001510041E-03  0.20055000639E-01  0.22401847418E-01  0.00000000000E+00 0.  1.
     999901    1    3    3    0    0  0.36681847551E-02  0.57422518519E-01 -0.13426256384E+00  0.89204105133E+00  0.88000000000E+00 0. -1.
        -11    1    4    4    0    0  0.11315157770E-01 -0.50256634209E-01  0.89978957950E-01  0.10368334520E+00  0.51100000000E-03 0.  1.
         11    1    4    4    0    0 -0.50025002475E-02 -0.73158994102E-02  0.24228605249E-01  0.25803756049E-01  0.51100000000E-03 0. -1.
</event>
<event>
 8    1  0.1091347E+005  0.1043930E+01  0.7957747E-01            NaN
         13   -1    0    0    0    0  0.00000000000E+00  0.00000000000E+00  0.74505805969E-08  0.10566000000E+00  0.10566000000E+00 0.  1.
     999900   -1    0    0    0    0 -0.00000000000E+00 -0.00000000000E+00 -0.74505805969E-08  0.93827000000E+00  0.93827000000E+00 0.  1.
     999902    2    1    2    0    0  0.49276656567E-02  0.22015916523E-01 -0.18205384126E-01  0.10149400279E+01  0.10145259197E+01 0.  0.
     999903    2    3    3    0    0 -0.93766896007E-01 -0.63743832905E-01 -0.48109866498E-01  0.12477732978E+00  0.19982886479E-01 0.  0.
         14    1    1    2    0    0 -0.49276656567E-02 -0.22015916523E-01  0.18205384126E-01  0.28989972065E-01  0.00000000000E+00 0.  1.
     999901    1    3    3    0    0  0.98694561663E-01  0.85759749427E-01  0.29904482372E-01  0.89016269816E+00  0.88000000000E+00 0. -1.
        -11    1    4    4    0    0 -0.88376295737E-01 -0.53005542337E-01 -0.41952873998E-01  0.11126662538E+00  0.51100000000E-03 0.  1.
         11    1    4    4    0    0 -0.53906002696E-02 -0.10738290568E-01 -0.61569925000E-02  0.13510704394E-01  0.51100000000E-03 0. -1.
</event>
<event>
 8    1  0.1091347E+005  0.1043930E+01  0.7957747E-01            NaN
         13   -1    0    0    0    0  0.00000000000E+00  0.00000000000E+00  0.74505805969E-08  0.10566000000E+00  0.10566000000E+00 0.  1.
     999900   -1    0    0    0    0 -0.00000000000E+00 -0.00000000000E+00 -0.74505805969E-08  0.93827000000E+00  0.93827000000E+00 0. -1.
     999902    2    1    2    0    0 -0.22343727420E-01 -0.12115614544E-02 -0.81240904714E-02  0.10201243099E+01  0.10198465065E+01 0.  0.
     999903    2    3    3    0    0  0.86311745236E-01 -0.66852234161E-01 -0.65988194772E-01  0.12913443103E+00  0.20057937310E-01 0.  0.
         14    1    1    2    0    0  0.22343727420E-01  0.12115614544E-02  0.81240904714E-02  0.23805690122E-01  0.00000000000E+00 0.  1.
     999901    1    3    3    0    0 -0.10865547266E+00  0.65640672707E-01  0.57864104301E-01  0.89098987885E+00  0.88000000000E+00 0.  1.
        -11    1    4    4    0    0  0.43970079338E-01 -0.21542051558E-01 -0.27957343703E-01  0.56385299949E-01  0.51100000000E-03 0.  1.
         11    1    4    4    0    0  0.42341665897E-01 -0.45310182603E-01 -0.38030851069E-01  0.72749131077E-01  0.51100000000E-03 0. -1.
</event>
<event>
 8    1  0.1091347E+005  0.1043930E+01  0.7957747E-01            NaN
         13   -1    0    0    0    0  0.00000000000E+00  0.00000000000E+00  0.74505805969E-08  0.10566000000E+00  0.10566000000E+00 0.  1.
     999900   -1    0    0    0    0 -0.00000000000E+00 -0.00000000000E+00 -0.74505805969E-08  0.93827000000E+00  0.93827000000E+00 0. -1.
     999902    2    1    2    0    0 -0.22071096277E-01  0.77581561084E-02  0.15423656738E-02  0.10204842932E+01  0.10202149241E+01 0.  0.
     999903    2    3    3    0    0  0.65621545571E-01  0.10957304868E+00  0.15539499050E-01  0.13017412725E+00  0.19783506683E-01 0.  0.
         14    1    1    2    0    0  0.22071096277E-01 -0.77581561084E-02 -0.15423656738E-02  0.23445706834E-01  0.00000000000E+00 0. -1.
     999901    1    3    3    0    0 -0.87692641848E-01 -0.10181489257E+00 -0.13997133376E-01  0.89031016591E+00  0.88000000000E+00 0.  1.
        -11    1    4    4    0    0  0.45613663095E-01  0.86472339733E-01  0.18372750607E-01  0.99478092492E-01  0.51100000000E-03 0.  1.
         11    1    4    4    0    0  0.20007882476E-01  0.23100708942E-01 -0.28332515570E-02  0.30696034763E-01  0.51100000000E-03 0. -1.
</event>
<event>
 8    1  0.1091347E+005  0.1043930E+01  0.7957747E-01            NaN
         13   -1    0    0    0    0  0.00000000000E+00  0.00000000000E+00  0.74505805969E-08  0.10566000000E+00  0.10566000000E+00 0.  1.
     999900   -1    0    0    0    0 -0.00000000000E+00 -0.00000000000E+00 -0.74505805969E-08  0.93827000000E+00  0.93827000000E+00 0. -1.
     999902    2    1    2    0    0  0.43129791604E-02  0.19881268428E-02  0.22627156245E-01  0.10208098219E+01  0.10205479654E+01 0.  0.
     999903    2    3    3    0    0 -0.78027228832E-01  0.90433998615E-01 -0.47047158874E-01  0.12982323819E+00  0.19341185898E-01 0.  0.
         14    1    1    2    0    0 -0.43129791604E-02 -0.19881268428E-02 -0.22627156245E-01  0.23120178142E-01  0.00000000000E+00 0. -1.
     999901    1    3    3    0    0  0.82340207992E-01 -0.88445871772E-01  0.69674315119E-01  0.89098658367E+00  0.88000000000E+00 0.  1.
        -11    1    4    4    0    0 -0.11126225732E-01  0.16987021759E-01 -0.15609381359E-01  0.25617683633E-01  0.51100000000E-03 0. -1.
         11    1    4    4    0    0 -0.66901003100E-01  0.73446976855E-01 -0.31437777515E-01  0.10420555456E+00  0.51100000000E-03 0.  1.
</event>
<event>
 8    1  0.1091347E+005  0.1043930E+01  0.7957747E-01            NaN
         13   -1    0    0    0    0  0.00000000000E+00  0.00000000000E+00  0.74505805969E-08  0.10566000000E+00  0.10566000000E+00 0.  1.
     999900   -1    0    0    0    0 -0.00000000000E+00 -0.00000000000E+00 -0.74505805969E-08  0.93827000000E+00  0.93827000000E+00 0.  1.
     999902    2    1    2    0    0  0.15666265839E-01  0.13485870151E-01  0.11264885493E-01  0.10203885849E+01  0.10201169864E+01 0.  0.
     999903    2    3    3    0    0 -0.12174031084E+00 -0.12807008676E-01 -0.32703094228E-01  0.12825346845E+00  0.19867990410E-01 0.  0.
         14    1    1    2    0    0 -0.15666265839E-01 -0.13485870151E-01 -0.11264885493E-01  0.23541415086E-01  0.00000000000E+00 0. -1.
     999901    1    3    3    0    0  0.13740657668E+00  0.26292878827E-01  0.43967979721E-01  0.89213511647E+00  0.88000000000E+00 0.  1.
        -11    1    4    4    0    0 -0.67596450074E-01 -0.97629650908E-02 -0.83624812627E-02  0.68809794098E-01  0.51100000000E-03 0. -1.
         11    1    4    4    0    0 -0.54143860763E-01 -0.30440435848E-02 -0.24340612965E-01  0.59443674350E-01  0.51100000000E-03 0.  1.
</event>
<event>
 8    1  0.1091347E+005  0.1043930E+01  0.7957747E-01            NaN
         13   -1    0    0    0    0  0.00000000000E+00  0.00000000000E+00  0.74505805969E-08  0.10566000000E+00  0.10566000000E+00 0. -1.
     999900   -1    0    0    0    0 -0.00000000000E+00 -0.00000000000E+00 -0.74505805969E-08  0.93827000000E+00  0.93827000000E+00 0.  1.
     999902    2    1    2    0    0  0.13190754244E-01 -0.50210143407E-02 -0.24785578079E-01  0.10154075270E+01  0.10150068544E+01 0.  0.
     999903    2    3    3    0    0  0.92225386010E-01  0.48767637080E-01  0.66888541014E-01  0.12549526387E+00  0.19778273042E-01 0.  0.
         14    1    1    2    0    0 -0.13190754244E-01  0.50210143407E-02  0.24785578079E-01  0.28522472951E-01  0.00000000000E+00 0. -1.
     999901    1    3    3    0    0 -0.79034631766E-01 -0.53788651421E-01 -0.91674119093E-01  0.88991226318E+00  0.88000000000E+00 0.  1.
        -11    1    4    4    0    0  0.18909945865E-01  0.11796949932E-01  0.24368924394E-01  0.33028164912E-01  0.51100000000E-03 0.  1.
         11    1    4    4    0    0  0.73315440144E-01  0.36970687148E-01  0.42519616621E-01  0.92467098961E-01  0.51100000000E-03 0. -1.
</event>
<event>
 8    1  0.1091347E+005  0.1043930E+01  0.7957747E-01            NaN
         13   -1    0    0    0    0  0.00000000000E+00  0.00000000000E+00  0.74505805969E-08  0.10566000000E+00  0.10566000000E+00 0. -1.
     999900   -1    0    0    0    0 -0.00000000000E+00 -0.00000000000E+00 -0.74505805969E-08  0.93827000000E+00  0.93827000000E+00 0.  1.
     999902    2    1    2    0    0 -0.17484628440E-01 -0.14616077933E-01 -0.66535016336E-02  0.10201895061E+01  0.10199132401E+01 0.  0.
     999903    2    3    3    0    0 -0.14886960916E-01 -0.92871806855E-01 -0.90913500112E-01  0.13270403901E+00  0.22322709345E-01 0.  0.
         14    1    1    2    0    0  0.17484628440E-01  0.14616077933E-01  0.66535016336E-02  0.23740493883E-01  0.00000000000E+00 0. -1.
     999901    1    3    3    0    0 -0.25976675236E-02  0.78255728922E-01  0.84259998479E-01  0.88748546711E+00  0.88000000000E+00 0. -1.
        -11    1    4    4    0    0 -0.93635287330E-02 -0.11191854509E-01 -0.10822092673E-01  0.18174490049E-01  0.51100000000E-03 0.  1.
         11    1    4    4    0    0 -0.55234321832E-02 -0.81679952346E-01 -0.80091407439E-01  0.11452954896E+00  0.51100000000E-03 0. -1.
</event>
<event>
 8    1  0.1091347E+005  0.1043930E+01  0.7957747E-01            NaN
         13   -1    0    0    0    0  0.00000000000E+00  0.00000000000E+00  0.74505805969E-08  0.10566000000E+00  0.10566000000E+00 0.  1.
     999900   -1    0    0    0    0 -0.00000000000E+00 -0.00000000000E+00 -0.74505805969E-08  0.93827000000E+00  0.93827000000E+00 0. -1.
     999902    2    1    2    0    0  0.17118488626E-01 -0.14442118416E-01 -0.44224614253E-02  0.10211007293E+01  0.10208454945E+01 0.  0.
     999903    2    3    3    0    0  0.12521295881E+00  0.23340534531E-01  0.32696222089E-01  0.13290607717E+00  0.19285144651E-01 0.  0.
         14    1    1    2    0    0 -0.17118488626E-01  0.14442118416E-01  0.44224614253E-02  0.22829270734E-01  0.00000000000E+00 0.  1.
     999901    1    3    3    0    0 -0.10809447018E+00 -0.37782652947E-01 -0.37118683514E-01  0.88819465210E+00  0.88000000000E+00 0. -1.
        -11    1    4    4    0    0  0.15133058532E-01  0.43147336887E-02  0.10731898855E-01  0.19054163885E-01  0.51100000000E-03 0. -1.
         11    1    4    4    0    0  0.11007990028E+00  0.19025800843E-01  0.21964323234E-01  0.11385191328E+00  0.51100000000E-03 0.  1.
</event>
<event>
 8    1  0.1091347E+005  0.1043930E+01  0.7957747E-01            NaN
         13   -1    0    0    0    0  0.00000000000E+00  0.00000000000E+00  0.74505805969E-08  0.10566000000E+00  0.10566000000E+00 0. -1.
     999900   -1    0    0    0    0 -0.00000000000E+00 -0.00000000000E+00 -0.74505805969E-08  0.93827000000E+00  0.93827000000E+00 0.  1.
     999902    2    1    2    0    0  0.18469180662E-01  0.96521990371E-02  0.10468549193E-01  0.10206090630E+01  0.10203425863E+01 0.  0.
     999903    2    3    3    0    0  0.60429492875E-01 -0.68513961537E-01  0.93803523304E-01  0.13223113983E+00  0.18441443042E-01 0.  0.
         14    1    1    2    0    0 -0.18469180662E-01 -0.96521990371E-02 -0.10468549193E-01  0.23320937004E-01  0.00000000000E+00 0. -1.
     999901    1    3    3    0    0 -0.41960312213E-01  0.78166160574E-01 -0.83334974111E-01  0.88837792317E+00  0.88000000000E+00 0. -1.
        -11    1    4    4    0    0  0.36334133373E-01 -0.42420801273E-01  0.44241350090E-01  0.71254837081E-01  0.51100000000E-03 0.  1.
         11    1    4    4    0    0  0.24095359502E-01 -0.26093160264E-01  0.49562173214E-01  0.60976302748E-01  0.51100000000E-03 0. -1.
</event>
<event>
 8    1  0.1091347E+005  0.1043930E+01  0.7957747E-01            NaN
         13   -1    0    0    0    0  0.00000000000E+00  0.00000000000E+00  0.74505805969E-08  0.10566000000E+00  0.10566000000E+00 0.  1.
     999900   -1    0    0    0    0 -0.00000000000E+00 -0.00000000000E+00 -0.74505805969E-08  0.93827000000E+00  0.93827000000E+00 0. -1.
     999902    2    1    2    0    0  0.57081838891E-02  0.22021960397E-01 -0.31715677568E-02  0.10209602602E+01  0.10207018389E+01 0.  0.
     999903    2    3    3    0    0  0.94360877975E-01 -0.18062371765E-01  0.86955275714E-01  0.13102267716E+00  0.19377754997E-01 0.  0.
         14    1    1    2    0    0 -0.57081838891E-02 -0.22021960397E-01  0.31715677568E-02  0.22969739770E-01  0.00000000000E+00 0.  1.
     999901    1    3    3    0    0 -0.88652694086E-01  0.40084332163E-01 -0.90126843470E-01  0.88993758307E+00  0.88000000000E+00 0. -1.
        -11    1    4    4    0    0  0.57986659600E-01 -0.12682126662E-01  0.65717490176E-01  0.88556979760E-01  0.51100000000E-03 0. -1.
         11    1    4    4    0    0  0.36374218375E-01 -0.53802451030E-02  0.21237785538E-01  0.42465697396E-01  0.51100000000E-03 0.  1.
</event>
<event>
 8    1  0.1091347E+005  0.1043930E+01  0.7957747E-01            NaN
         13   -1    0    0    0    0  0.00000000000E+00  0.00000000000E+00  0.74505805969E-08  0.10566000000E+00  0.10566000000E+00 0. -1.
     999900   -1    0    0    0    0 -0.00000000000E+00 -0.00000000000E+00 -0.74505805969E-08  0.93827000000E+00  0.93827000000E+00 0.  1.
     999902    2    1    2    0    0 -0.51641558682E-02 -0.21399788446E-01 -0.95336551062E-02  0.10199402099E+01  0.10196580415E+01 0.  0.
     999903    2    3    3    0    0  0.89969809584E-02  0.73264745296E-01  0.10246275453E+00  0.12769298654E+00  0.18926546861E-01 0.  0.
         14    1    1    2    0    0  0.51641558682E-02  0.21399788446E-01  0.95336551062E-02  0.23989790142E-01  0.00000000000E+00 0. -1.
     999901    1    3    3    0    0 -0.14161136827E-01 -0.94664533742E-01 -0.11199640964E+00  0.89224722332E+00  0.88000000000E+00 0.  1.
        -11    1    4    4    0    0 -0.54648136450E-02  0.31328305396E-01  0.40897982234E-01  0.51809583852E-01  0.51100000000E-03 0.  1.
         11    1    4    4    0    0  0.14461794603E-01  0.41936439900E-01  0.61564772298E-01  0.75883402689E-01  0.51100000000E-03 0. -1.
</event>
<event>
 8    1  0.1091347E+005  0.1043930E+01  0.7957747E-01            NaN
         13   -1    0    0    0    0  0.00000000000E+00  0.00000000000E+00  0.74505805969E-08  0.10566000000E+00  0.10566000000E+00 0.  1.
     999900   -1    0    0    0    0 -0.00000000000E+00 -0.00000000000E+00 -0.74505805969E-08  0.93827000000E+00  0.93827000000E+00 0. -1.
     999902    2    1    2    0    0  0.15564560297E-01 -0.31029495128E-02  0.18949997902E-01  0.10192118639E+01  0.10189120851E+01 0.  0.
     999903    2    3    3    0    0 -0.53806053245E-01 -0.23878929105E-01  0.11524944351E+00  0.13100158102E+00  0.20339257097E-01 0.  0.
         14    1    1    2    0    0 -0.15564560297E-01  0.31029495128E-02 -0.18949997902E-01  0.24718136123E-01  0.00000000000E+00 0. -1.
     999901    1    3    3    0    0  0.69370613542E-01  0.20775979593E-01 -0.96299445606E-01  0.88821028286E+00  0.88000000000E+00 0. -1.
        -11    1    4    4    0    0 -0.11248558822E-01 -0.13603483912E-01  0.24053041230E-01  0.29839483299E-01  0.51100000000E-03 0. -1.
         11    1    4    4    0    0 -0.42557494423E-01 -0.10275445193E-01  0.91196402279E-01  0.10116209772E+00  0.51100000000E-03 0.  1.
</event>
<event>
 8    1  0.1091347E+005  0.1043930E+01  0.7957747E-01            NaN
         13   -1    0    0    0    0  0.00000000000E+00  0.00000000000E+00  0.74505805969E-08  0.10566000000E+00  0.10566000000E+00 0.  1.
     999900   -1    0    0    0    0 -0.00000000000E+00 -0.00000000000E+00 -0.74505805969E-08  0.93827000000E+00  0.93827000000E+00 0. -1.
     999902    2    1    2    0    0  0.53472021362E-02 -0.69981346468E-02  0.27519944544E-01  0.10150351249E+01  0.10146237682E+01 0.  0.
     999903    2    3    3    0    0 -0.97599982372E-01  0.71402098263E-01  0.26728904543E-01  0.12557160960E+00  0.20731102308E-01 0.  0.
         14    1    1    2    0    0 -0.53472021362E-02  0.69981346468E-02 -0.27519944544E-01  0.28894875098E-01  0.00000000000E+00 0. -1.
     999901    1    3    3    0    0  0.10294718451E+00 -0.78400232910E-01  0.79104000050E-03  0.88946351531E+00  0.88000000000E+00 0.  1.
        -11    1    4    4    0    0 -0.55486507047E-01  0.52069653446E-01  0.20550091939E-01  0.78819849492E-01  0.51100000000E-03 0.  1.
         11    1    4    4    0    0 -0.42113475325E-01  0.19332444817E-01  0.61788126039E-02  0.46751760103E-01  0.51100000000E-03 0. -1.
</event>
<event>
 8    1  0.1091347E+005  0.1043930E+01  0.7957747E-01            NaN
         13   -1    0    0    0    0  0.00000000000E+00  0.00000000000E+00  0.74505805969E-08  0.10566000000E+00  0.10566000000E+00 0.  1.
     999900   -1    0    0    0    0 -0.00000000000E+00 -0.00000000000E+00 -0.74505805969E-08  0.93827000000E+00  0.93827000000E+00 0.  1.
     999902    2    1    2    0    0 -0.26413734994E-02  0.21330291874E-01  0.10515584155E-01  0.10200022814E+01  0.10197215887E+01 0.  0.
     999903    2    3    3    0    0  0.90186895703E-01 -0.28130960299E-01 -0.81112626802E-01  0.12901449697E+00  0.33770625074E-01 0.  0.
         14    1    1    2    0    0  0.26413734994E-02 -0.21330291874E-01 -0.10515584155E-01  0.23927718561E-01  0.00000000000E+00 0.  1.
     999901    1    3    3    0    0 -0.92828269203E-01  0.49461252173E-01  0.91628210957E-01  0.89098778447E+00  0.88000000000E+00 0. -1.
        -11    1    4    4    0    0  0.19619884394E-01 -0.18901452686E-01 -0.11879709604E-01  0.29725298965E-01  0.51100000000E-03 0. -1.
         11    1    4    4    0    0  0.70567011309E-01 -0.92295076132E-02 -0.69232917198E-01  0.99289198006E-01  0.51100000000E-03 0.  1.
</event>
<event>
 8    1  0.1091347E+005  0.1043930E+01  0.7957747E-01            NaN
         13   -1    0    0    0    0  0.00000000000E+00  0.00000000000E+00  0.74505805969E-08  0.10566000000E+00  0.10566000000E+00 0.  1.
     999900   -1    0    0    0    0 -0.00000000000E+00 -0.00000000000E+00 -0.74505805969E-08  0.93827000000E+00  0.93827000000E+00 0. -1.
     999902    2    1    2    0    0  0.21196330485E-01 -0.90533037829E-02 -0.61951625935E-02  0.10200631448E+01  0.10197838951E+01 0.  0.
     999903    2    3    3    0    0 -0.69402509618E-01 -0.47024005902E-01  0.95629516813E-01  0.12876174275E+00  0.20164732502E-01 0.  0.
         14    1    1    2    0    0 -0.21196330485E-01  0.90533037829E-02  0.61951625935E-02  0.23866855154E-01  0.00000000000E+00 0.  1.
     999901    1    3    3    0    0  0.90598840102E-01  0.37970702119E-01 -0.10182467941E+00  0.89130140210E+00  0.88000000000E+00 0. -1.
        -11    1    4    4    0    0 -0.34888265784E-01 -0.25819892473E-01  0.34593031967E-01  0.55504926974E-01  0.51100000000E-03 0.  1.
         11    1    4    4    0    0 -0.34514243834E-01 -0.21204113428E-01  0.61036484846E-01  0.73256815773E-01  0.51100000000E-03 0. -1.
</event>
<event>
 8    1  0.1091347E+005  0.1043930E+01  0.7957747E-01            NaN
         13   -1    0    0    0    0  0.00000000000E+00  0.00000000000E+00  0.74505805969E-08  0.10566000000E+00  0.10566000000E+00 0. -1.
     999900   -1    0    0    0    0 -0.00000000000E+00 -0.00000000000E+00 -0.74505805969E-08  0.93827000000E+00  0.93827000000E+00 0.  1.
     999902    2    1    2    0    0 -0.38159782336E-02  0.20986736285E-01 -0.10840428282E-01  0.10200026166E+01  0.10197219318E+01 0.  0.
     999903    2    3    3    0    0  0.13705247609E-01 -0.87912299654E-01  0.89125840937E-01  0.12750093687E+00  0.19916504161E-01 0.  0.
         14    1    1    2    0    0  0.38159782336E-02 -0.20986736285E-01  0.10840428282E-01  0.23927383373E-01  0.00000000000E+00 0. -1.
     999901    1    3    3    0    0 -0.17521225843E-01  0.10889903594E+00 -0.99966269219E-01  0.89250167975E+00  0.88000000000E+00 0.  1.
        -11    1    4    4    0    0  0.15267643903E-01 -0.47648619746E-01  0.40688669820E-01  0.64492797170E-01  0.51100000000E-03 0.  1.
         11    1    4    4    0    0 -0.15623962939E-02 -0.40263679908E-01  0.48437171117E-01  0.63008139702E-01  0.51100000000E-03 0. -1.
</event>
<event>
 8    1  0.1091347E+005  0.1043930E+01  0.7957747E-01            NaN
         13   -1    0    0    0    0  0.00000000000E+00  0.00000000000E+00  0.74505805969E-08  0.10566000000E+00  0.10566000000E+00 0. -1.
     999900   -1    0    0    0    0 -0.00000000000E+00 -0.00000000000E+00 -0.74505805969E-08  0.93827000000E+00  0.93827000000E+00 0.  1.
     999902    2    1    2    0    0 -0.87301171179E-02 -0.63238148784E-02  0.20759268529E-01  0.10205387023E+01  0.10202705965E+01 0.  0.
     999903    2    3    3    0    0 -0.31521818264E-02 -0.10965323105E+00 -0.67236163749E-01  0.13011673617E+00  0.19388037244E-01 0.  0.
         14    1    1    2    0    0  0.87301171179E-02  0.63238148784E-02 -0.20759268529E-01  0.23391297728E-01  0.00000000000E+00 0.  1.
     999901    1    3    3    0    0 -0.55779352916E-02  0.10332941617E+00  0.87995432278E-01  0.89042196610E+00  0.88000000000E+00 0. -1.
        -11    1    4    4    0    0  0.34215199821E-02 -0.34289675324E-01 -0.12182059328E-01  0.36553417395E-01  0.51100000000E-03 0.  1.
         11    1    4    4    0    0 -0.65737018085E-02 -0.75363555722E-01 -0.55054104421E-01  0.93563318779E-01  0.51100000000E-03 0. -1.
</event>
<event>
 8    1  0.1091347E+005  0.1043930E+01  0.7957747E-01            NaN
         13   -1    0    0    0    0  0.00000000000E+00  0.00000000000E+00  0.74505805969E-08  0.10566000000E+00  0.10566000000E+00 0. -1.
     999900   -1    0    0    0    0 -0.00000000000E+00 -0.00000000000E+00 -0.74505805969E-08  0.93827000000E+00  0.93827000000E+00 0.  1.
     999902    2    1    2    0    0  0.19304686033E-02  0.27540094459E-01 -0.33156805508E-02  0.10161239350E+01  0.10157434096E+01 0.  0.
     999903    2    3    3    0    0 -0.43547807620E-01 -0.86570586696E-01  0.74780683827E-01  0.12416622118E+00  0.20837988840E-01 0.  0.
         14    1    1    2    0    0 -0.19304686033E-02 -0.27540094459E-01  0.33156805508E-02  0.27806064974E-01  0.00000000000E+00 0. -1.
     999901    1    3    3    0    0  0.45478276223E-01  0.11411068115E+00 -0.78096364378E-01  0.89195771385E+00  0.88000000000E+00 0.  1.
        -11    1    4    4    0    0 -0.37814531680E-01 -0.56830729444E-01  0.45511469879E-01  0.82044046870E-01  0.51100000000E-03 0.  1.
         11    1    4    4    0    0 -0.57332759398E-02 -0.29739857252E-01  0.29269213948E-01  0.42122174309E-01  0.51100000000E-03 0. -1.
</event>
<event>
 8    1  0.1091347E+005  0.1043930E+01  0.7957747E-01            NaN
         13   -1    0    0    0    0  0.00000000000E+00  0.00000000000E+00  0.74505805969E-08  0.10566000000E+00  0.10566000000E+00 0. -1.
     999900   -1    0    0    0    0 -0.00000000000E+00 -0.00000000000E+00 -0.74505805969E-08  0.93827000000E+00  0.93827000000E+00 0. -1.
     999902    2    1    2    0    0  0.49773104033E-02 -0.44011021171E-02  0.19848370186E-01  0.10229991348E+01  0.10227849865E+01 0.  0.
     999903    2    3    3    0    0 -0.71487926944E-01 -0.59005257880E-02  0.11194129795E+00  0.13489424903E+00  0.22809303603E-01 0.  0.
         14    1    1    2    0    0 -0.49773104033E-02  0.44011021171E-02 -0.19848370186E-01  0.20930865193E-01  0.00000000000E+00 0.  1.
     999901    1    3    3    0    0  0.76465237347E-01  0.14994236709E-02 -0.92092927768E-01  0.88810488578E+00  0.88000000000E+00 0. -1.
        -11    1    4    4    0    0 -0.57579995187E-01 -0.18802884922E-02  0.10256409294E+00  0.11763777290E+00  0.51100000000E-03 0.  1.
         11    1    4    4    0    0 -0.13907931757E-01 -0.40202372958E-02  0.93772050101E-02  0.17256476131E-01  0.51100000000E-03 0. -1.
</event>
<event>
 8    1  0.1091347E+005  0.1043930E+01  0.7957747E-01            NaN
         13   -1    0    0    0    0  0.00000000000E+00  0.00000000000E+00  0.74505805969E-08  0.10566000000E+00  0.10566000000E+00 0.  1.
     999900   -1    0    0    0    0 -0.00000000000E+00 -0.00000000000E+00 -0.74505805969E-08  0.93827000000E+00  0.93827000000E+00 0.  1.
     999902    2    1    2    0    0  0.19364703006E-01  0.13292194581E-01  0.38980297970E-02  0.10201209934E+01  0.10198431116E+01 0.  0.
     999903    2    3    3    0    0  0.36741406108E-01 -0.92238566811E-01  0.81924888728E-01  0.13021825594E+00  0.19677973907E-01 0.  0.
         14    1    1    2    0    0 -0.19364703006E-01 -0.13292194581E-01 -0.38980297970E-02  0.23809006607E-01  0.00000000000E+00 0. -1.
     999901    1    3    3    0    0 -0.17376703102E-01  0.10553076139E+00 -0.78026858931E-01  0.88990273745E+00  0.88000000000E+00 0.  1.
        -11    1    4    4    0    0  0.11842515277E-01 -0.32164092224E-01  0.16765835870E-01  0.38159250125E-01  0.51100000000E-03 0.  1.
         11    1    4    4    0    0  0.24898890831E-01 -0.60074474587E-01  0.65159052858E-01  0.92059005816E-01  0.51100000000E-03 0. -1.
</event>
<event>
 8    1  0.1091347E+005  0.1043930E+01  0.7957747E-01            NaN
         13   -1    0    0    0    0  0.00000000000E+00  0.00000000000E+00  0.74505805969E-08  0.10566000000E+00  0.10566000000E+00 0.  1.
     999900   -1    0    0    0    0 -0.00000000000E+00 -0.00000000000E+00 -0.74505805969E-08  0.93827000000E+00  0.93827000000E+00 0.  1.
     999902    2    1    2    0    0 -0.19135221616E-01 -0.13151797921E-01 -0.56606922441E-02  0.10200308383E+01  0.10197508230E+01 0.  0.
     999903    2    3    3    0    0  0.55613201970E-01 -0.93947944623E-02  0.11476076261E+00  0.12868199034E+00  0.14419833822E-01 0.  0.
         14    1    1    2    0    0  0.19135221616E-01  0.13151797921E-01  0.56606922441E-02  0.23899161733E-01  0.00000000000E+00 0. -1.
     999901    1    3    3    0    0 -0.74748423587E-01 -0.37570034582E-02 -0.12042145486E+00  0.89134884792E+00  0.88000000000E+00 0.  1.
        -11    1    4    4    0    0  0.31731610749E-01  0.18816208457E-02  0.61558120420E-01  0.69282746253E-01  0.51100000000E-03 0. -1.
         11    1    4    4    0    0  0.23881591221E-01 -0.11276415308E-01  0.53202642192E-01  0.59399244092E-01  0.51100000000E-03 0.  1.
</event>
<event>
 8    1  0.1091347E+005  0.1043930E+01  0.7957747E-01            NaN
         13   -1    0    0    0    0  0.00000000000E+00  0.00000000000E+00  0.74505805969E-08  0.10566000000E+00  0.10566000000E+00 0.  1.
     999900   -1    0    0    0    0 -0.00000000000E+00 -0.00000000000E+00 -0.74505805969E-08  0.93827000000E+00  0.93827000000E+00 0.  1.
     999902    2    1    2    0    0 -0.11258687212E-01 -0.19208207356E-01 -0.10005983526E-01  0.10195203098E+01  0.10192280555E+01 0.  0.
     999903    2    3    3    0    0 -0.11095110171E+00  0.92087008323E-02  0.65039233338E-01  0.13026338254E+00  0.18533748018E-01 0.  0.
         14    1    1    2    0    0  0.11258687212E-01  0.19208207356E-01  0.10005983526E-01  0.24409690164E-01  0.00000000000E+00 0.  1.
     999901    1    3    3    0    0  0.99692414494E-01 -0.28416908188E-01 -0.75045216864E-01  0.88925692730E+00  0.88000000000E+00 0.  1.
        -11    1    4    4    0    0 -0.60758488538E-01 -0.37712003437E-02  0.38361417004E-01  0.71956065186E-01  0.51100000000E-03 0. -1.
         11    1    4    4    0    0 -0.50192613168E-01  0.12979901176E-01  0.26677816334E-01  0.58307317349E-01  0.51100000000E-03 0.  1.
</event>
<event>
 8    1  0.1091347E+005  0.1043930E+01  0.7957747E-01            NaN
         13   -1    0    0    0    0  0.00000000000E+00  0.00000000000E+00  0.74505805969E-08  0.10566000000E+00  0.10566000000E+00 0.  1.
     999900   -1    0    0    0    0 -0.00000000000E+00 -0.00000000000E+00 -0.74505805969E-08  0.93827000000E+00  0.93827000000E+00 0.  1.
     999902    2    1    2    0    0 -0.20605637455E-01  0.10293647006E-01  0.36681509623E-02  0.10206060468E+01  0.10203395003E+01 0.  0.
     999903    2    3    3    0    0  0.38646854778E-01 -0.11932898098E+00 -0.22621344459E-01  0.12875178675E+00  0.18229434428E-01 0.  0.
         14    1    1    2    0    0  0.20605637455E-01 -0.10293647006E-01 -0.36681509623E-02  0.23323953248E-01  0.00000000000E+00 0.  1.
     999901    1    3    3    0    0 -0.59252492233E-01  0.12962262799E+00  0.26289495421E-01  0.89185426001E+00  0.88000000000E+00 0. -1.
        -11    1    4    4    0    0  0.58820671832E-02 -0.36452800545E-01 -0.51426205581E-03  0.36931436045E-01  0.51100000000E-03 0.  1.
         11    1    4    4    0    0  0.32764787594E-01 -0.82876180434E-01 -0.22107082403E-01  0.91820350701E-01  0.51100000000E-03 0. -1.
</event>
<event>
 8    1  0.1091347E+005  0.1043930E+01  0.7957747E-01            NaN
         13   -1    0    0    0    0  0.00000000000E+00  0.00000000000E+00  0.74505805969E-08  0.10566000000E+00  0.10566000000E+00 0.  1.
     999900   -1    0    0    0    0 -0.00000000000E+00 -0.00000000000E+00 -0.74505805969E-08  0.93827000000E+00  0.93827000000E+00 0. -1.
     999902    2    1    2    0    0  0.86991611593E-02 -0.20854358898E-01  0.61724138253E-02  0.10205061151E+01  0.10202372531E+01 0.  0.
     999903    2    3    3    0    0  0.12302975746E+00  0.12488632729E-01  0.40884283422E-01  0.13180585395E+00  0.20223039736E-01 0.  0.
         14    1    1    2    0    0 -0.86991611593E-02  0.20854358898E-01 -0.61724138253E-02  0.23423884869E-01  0.00000000000E+00 0.  1.
     999901    1    3    3    0    0 -0.11433059630E+00 -0.33342991627E-01 -0.34711869596E-01  0.88870026119E+00  0.88000000000E+00 0. -1.
        -11    1    4    4    0    0  0.83363617176E-01  0.13477341522E-01  0.19265729801E-01  0.86617324300E-01  0.51100000000E-03 0.  1.
         11    1    4    4    0    0  0.39666140280E-01 -0.98870879328E-03  0.21618553621E-01  0.45188529645E-01  0.51100000000E-03 0. -1.
</event>
<event>
 8    1  0.1091347E+005  0.1043930E+01  0.7957747E-01            NaN
         13   -1    0    0    0    0  0.00000000000E+00  0.00000000000E+00  0.74505805969E-08  0.10566000000E+00  0.10566000000E+00 0. -1.
     999900   -1    0    0    0    0 -0.00000000000E+00 -0.00000000000E+00 -0.74505805969E-08  0.93827000000E+00  0.93827000000E+00 0. -1.
     999902    2    1    2    0    0 -0.27566893600E-02  0.11343157919E-01 -0.18730626391E-01  0.10218595915E+01  0.10216212222E+01 0.  0.
     999903    2    3    3    0    0  0.14360118929E-01 -0.12315433308E+00 -0.38102736100E-01  0.13126549827E+00  0.20139755792E-01 0.  0.
         14    1    1    2    0    0  0.27566893600E-02 -0.11343157919E-01  0.18730626391E-01  0.22070408532E-01  0.00000000000E+00 0. -1.
     999901    1    3    3    0    0 -0.17116808289E-01  0.13449749100E+00  0.19372109709E-01  0.89059409320E+00  0.88000000000E+00 0.  1.
        -11    1    4    4    0    0  0.17425032691E-01 -0.68594029914E-01 -0.25076819122E-01  0.75085822113E-01  0.51100000000E-03 0. -1.
         11    1    4    4    0    0 -0.30649137623E-02 -0.54560303170E-01 -0.13025916978E-01  0.56179676152E-01  0.51100000000E-03 0.  1.
</event>
<event>
 8    1  0.1091347E+005  0.1043930E+01  0.7957747E-01            NaN
         13   -1    0    0    0    0  0.00000000000E+00  0.00000000000E+00  0.74505805969E-08  0.10566000000E+00  0.10566000000E+00 0. -1.
     999900   -1    0    0    0    0 -0.00000000000E+00 -0.00000000000E+00 -0.74505805969E-08  0.93827000000E+00  0.93827000000E+00 0. -1.
     999902    2    1    2    0    0  0.15463922741E-01  0.20797923238E-01  0.15547116371E-02  0.10179664940E+01  0.10176353370E+01 0.  0.
     999903    2    3    3    0    0  0.91959838294E-01  0.88767761028E-02  0.90197336770E-01  0.13013134381E+00  0.16223380337E-01 0.  0.
         14    1    1    2    0    0 -0.15463922741E-01 -0.20797923238E-01 -0.15547116371E-02  0.25963506039E-01  0.00000000000E+00 0. -1.
     999901    1    3    3    0    0 -0.76495915553E-01  0.11921147135E-01 -0.88642625133E-01  0.88783515015E+00  0.88000000000E+00 0. -1.
        -11    1    4    4    0    0  0.10717085925E-01  0.37010552875E-02  0.53575233357E-02  0.12550614258E-01  0.51100000000E-03 0.  1.
         11    1    4    4    0    0  0.81242752369E-01  0.51757208153E-02  0.84839813435E-01  0.11758072956E+00  0.51100000000E-03 0. -1.
</event>
<event>
 8    1  0.1091347E+005  0.1043930E+01  0.7957747E-01            NaN
         13   -1    0    0    0    0  0.00000000000E+00  0.00000000000E+00  0.74505805969E-08  0.10566000000E+00  0.10566000000E+00 0. -1.
     999900   -1    0    0    0    0 -0.00000000000E+00 -0.00000000000E+00 -0.74505805969E-08  0.93827000000E+00  0.93827000000E+00 0. -1.
     999902    2    1    2    0    0  0.13928537835E-01  0.20157342033E-01  0.31238089484E-02  0.10192301865E+01  0.10189308575E+01 0.  0.
     999903    2    3    3    0    0  0.63369595145E-01  0.82908828938E-01 -0.78156130493E-01  0.13188099041E+00  0.19865432146E-01 0.  0.
         14    1    1    2    0    0 -0.13928537835E-01 -0.20157342033E-01 -0.31238089484E-02  0.24699813490E-01  0.00000000000E+00 0.  1.
     999901    1    3    3    0    0 -0.49441057310E-01 -0.62751486905E-01  0.81279939441E-01  0.88734919610E+00  0.88000000000E+00 0.  1.
        -11    1    4    4    0    0  0.12284928775E-01  0.30229243731E-01 -0.27946260264E-01  0.42964883746E-01  0.51100000000E-03 0. -1.
         11    1    4    4    0    0  0.51084666370E-01  0.52679585207E-01 -0.50209870229E-01  0.88916106669E-01  0.51100000000E-03 0.  1.
</event>
<event>
 8    1  0.1091347E+005  0.1043930E+01  0.7957747E-01            NaN
         13   -1    0    0    0    0  0.00000000000E+00  0.00000000000E+00  0.74505805969E-08  0.10566000000E+00  0.10566000000E+00 0.  1.
     999900   -1    0    0    0    0 -0.00000000000E+00 -0.00000000000E+00 -0.74505805969E-08  0.93827000000E+00  0.93827000000E+00 0. -1.
     999902    2    1    2    0    0 -0.16398662294E-01 -0.17195117372E-01  0.38459071622E-02  0.10198597032E+01  0.10195756152E+01 0.  0.
     999903    2    3    3    0    0  0.78036349138E-02 -0.10104935002E-01 -0.12753153091E+00  0.12974956781E+00  0.20190407179E-01 0.  0.
         14    1    1    2    0    0  0.16398662294E-01  0.17195117372E-01 -0.38459071622E-02  0.24070296806E-01  0.00000000000E+00 0.  1.
     999901    1    3    3    0    0 -0.24202297207E-01 -0.70901823700E-02  0.13137743807E+00  0.89011013538E+00  0.88000000000E+00 0.  1.
        -11    1    4    4    0    0  0.90991440119E-02 -0.15662244054E-01 -0.93638685141E-01  0.95375913031E-01  0.51100000000E-03 0. -1.
         11    1    4    4    0    0 -0.12955090981E-02  0.55573090522E-02 -0.33892845768E-01  0.34373654780E-01  0.51100000000E-03 0.  1.
</event>
<event>
 8    1  0.1091347E+005  0.1043930E+01  0.7957747E-01            NaN
         13   -1    0    0    0    0  0.00000000000E+00  0.00000000000E+00  0.74505805969E-08  0.10566000000E+00  0.10566000000E+00 0. -1.
     999900   -1    0    0    0    0 -0.00000000000E+00 -0.00000000000E+00 -0.74505805969E-08  0.93827000000E+00  0.93827000000E+00 0.  1.
     999902    2    1    2    0    0  0.84633664007E-02  0.13444242811E-01  0.17520693589E-01  0.10202793988E+01  0.10200052454E+01 0.  0.
     999903    2    3    3    0    0  0.51519552265E-01  0.11755088498E+00 -0.24058858314E-01  0.13212350747E+00  0.20132504490E-01 0.  0.
         14    1    1    2    0    0 -0.84633664007E-02 -0.13444242811E-01 -0.17520693589E-01  0.23650601249E-01  0.00000000000E+00 0.  1.
     999901    1    3    3    0    0 -0.43056185864E-01 -0.10410664217E+00  0.41579551903E-01  0.88815589128E+00  0.88000000000E+00 0. -1.
        -11    1    4    4    0    0  0.32430610567E-01  0.67530676079E-01 -0.23719129804E-01  0.78581136114E-01  0.51100000000E-03 0. -1.
         11    1    4    4    0    0  0.19088941698E-01  0.50020208901E-01 -0.33972851039E-03  0.53542371354E-01  0.51100000000E-03 0.  1.
</event>
<event>
 8    1  0.1091347E+005  0.1043930E+01  0.7957747E-01            NaN
         13   -1    0    0    0    0  0.00000000000E+00  0.00000000000E+00  0.74505805969E-08  0.10566000000E+00  0.10566000000E+00 0. -1.
     999900   -1    0    0    0    0 -0.00000000000E+00 -0.00000000000E+00 -0.74505805969E-08  0.93827000000E+00  0.93827000000E+00 0.  1.
     999902    2    1    2    0    0  0.77883342829E-02 -0.49444873097E-02 -0.29046653607E-01  0.10134535469E+01  0.10129952012E+01 0.  0.
     999903    2    3    3    0    0 -0.99985418005E-02 -0.11796232133E+00 -0.37649256805E-01  0.12600585352E+00  0.21093328121E-01 0.  0.
         14    1    1    2    0    0 -0.77883342829E-02  0.49444873097E-02  0.29046653607E-01  0.30476453065E-01  0.00000000000E+00 0. -1.
     999901    1    3    3    0    0  0.17786876083E-01  0.11301783402E+00  0.86026031982E-02  0.88744769342E+00  0.88000000000E+00 0.  1.
        -11    1    4    4    0    0  0.65522404069E-02 -0.41036832911E-01 -0.13400436222E-01  0.43666764497E-01  0.51100000000E-03 0. -1.
         11    1    4    4    0    0 -0.16550782207E-01 -0.76925488420E-01 -0.24248820583E-01  0.82339089022E-01  0.51100000000E-03 0.  1.
</event>
<event>
 8    1  0.1091347E+005  0.1043930E+01  0.7957747E-01            NaN
         13   -1    0    0    0    0  0.00000000000E+00  0.00000000000E+00  0.74505805969E-08  0.10566000000E+00  0.10566000000E+00 0. -1.
     999900   -1    0    0    0    0 -0.00000000000E+00 -0.00000000000E+00 -0.74505805969E-08  0.93827000000E+00  0.93827000000E+00 0. -1.
     999902    2    1    2    0    0  0.65213251147E-02  0.18325165521E-01  0.13599637633E-01  0.10201962789E+01  0.10199201724E+01 0.  0.
     999903    2    3    3    0    0  0.29915623339E-01 -0.12279158179E+00  0.14492249395E-01  0.12864592907E+00  0.19158097385E-01 0.  0.
         14    1    1    2    0    0 -0.65213251147E-02 -0.18325165521E-01 -0.13599637633E-01  0.23733721081E-01  0.00000000000E+00 0.  1.
     999901    1    3    3    0    0 -0.23394298224E-01  0.14111674731E+00 -0.89261176220E-03  0.89155034985E+00  0.88000000000E+00 0.  1.
        -11    1    4    4    0    0  0.12560810244E-01 -0.87098552000E-01  0.12708712359E-01  0.88914027044E-01  0.51100000000E-03 0. -1.
         11    1    4    4    0    0  0.17354813095E-01 -0.35693029790E-01  0.17835370360E-02  0.39731902025E-01  0.51100000000E-03 0.  1.
</event>
<event>
 8    1  0.1091347E+005  0.1043930E+01  0.7957747E-01            NaN
         13   -1    0    0    0    0  0.00000000000E+00  0.00000000000E+00  0.74505805969E-08  0.10566000000E+00  0.10566000000E+00 0.  1.
     999900   -1    0    0    0    0 -0.00000000000E+00 -0.00000000000E+00 -0.74505805969E-08  0.93827000000E+00  0.93827000000E+00 0.  1.
     999902    2    1    2    0    0  0.10067652620E-01  0.16350570299E-01  0.42665615646E-02  0.10242601671E+01  0.10240712805E+01 0.  0.
     999903    2    3    3    0    0  0.19197614115E-01 -0.10189944585E-01 -0.13021282396E+00  0.13360172514E+00  0.20534314657E-01 0.  0.
         14    1    1    2    0    0 -0.10067652620E-01 -0.16350570299E-01 -0.42665615646E-02  0.19669832891E-01  0.00000000000E+00 0. -1.
     999901    1    3    3    0    0 -0.91299614956E-02  0.26540514884E-01  0.13447938552E+00  0.89065844197E+00  0.88000000000E+00 0. -1.
        -11    1    4    4    0    0  0.16374930111E-01 -0.84868746885E-02 -0.49610751659E-01  0.52930644992E-01  0.51100000000E-03 0.  1.
         11    1    4    4    0    0  0.28226840049E-02 -0.17030698964E-02 -0.80602072297E-01  0.80671080144E-01  0.51100000000E-03 0. -1.
</event>
<event>
 7    1  0.1091347E+005  0.1043930E+01  0.7957747E-01            NaN
         13   -1    0    0    0    0  0.00000000000E+00  0.00000000000E+00  0.74505805969E-08  0.10566000000E+00  0.10566000000E+00 0.  1.
     999900   -1    0    0    0    0 -0.00000000000E+00 -0.00000000000E+00 -0.74505805969E-08  0.93827000000E+00  0.93827000000E+00 0. -1.
     999902    2    1    2    0    0 -0.20142929187E-01  0.13030371993E-02 -0.13039306349E-01  0.10198996231E+01  0.10196164878E+01 0.  0.
         14    1    1    2    0    0  0.20142929187E-01 -0.13030371993E-02  0.13039306349E-01  0.24030376864E-01  0.00000000000E+00 0. -1.
     999901    1    3    3    0    0 -0.64782414309E-01 -0.63723599336E-01 -0.10111443404E+00  0.89043898561E+00  0.88000000000E+00 0.  1.
        -11    1    3    3    0    0  0.11263934255E-01  0.53340732346E-01  0.32154521692E-01  0.63295215683E-01  0.51100000000E-03 0. -1.
         11    1    3    3    0    0  0.33375550868E-01  0.11685904189E-01  0.55920605994E-01  0.66165421847E-01  0.51100000000E-03 0.  1.
</event>
<event>
 8    1  0.1091347E+005  0.1043930E+01  0.7957747E-01            NaN
         13   -1    0    0    0    0  0.00000000000E+00  0.00000000000E+00  0.74505805969E-08  0.10566000000E+00  0.10566000000E+00 0.  1.
     999900   -1    0    0    0    0 -0.00000000000E+00 -0.00000000000E+00 -0.74505805969E-08  0.93827000000E+00  0.93827000000E+00 0. -1.
     999902    2    1    2    0    0 -0.81979922498E-02 -0.89266364785E-02 -0.20826957537E-01  0.10198332352E+01  0.10195485145E+01 0.  0.
     999903    2    3    3    0    0  0.19589256358E-01 -0.46343587285E-01 -0.12143613830E+00  0.13287530681E+00  0.19433075639E-01 0.  0.
         14    1    1    2    0    0  0.81979922498E-02  0.89266364785E-02  0.20826957537E-01  0.24096764845E-01  0.00000000000E+00 0.  1.
     999901    1    3    3    0    0 -0.27787248608E-01  0.37416950807E-01  0.10060918076E+00  0.88695792834E+00  0.88000000000E+00 0. -1.
        -11    1    4    4    0    0 -0.28590886868E-02 -0.11705902464E-01 -0.19908466900E-01  0.23276827875E-01  0.51100000000E-03 0. -1.
         11    1    4    4    0    0  0.22448345045E-01 -0.34637684822E-01 -0.10152767140E+00  0.10959847894E+00  0.51100000000E-03 0.  1.
</event>
<event>
 8    1  0.1091347E+005  0.1043930E+01  0.7957747E-01            NaN
         13   -1    0    0    0    0  0.00000000000E+00  0.00000000000E+00  0.74505805969E-08  0.10566000000E+00  0.10566000000E+00 0. -1.
     999900   -1    0    0    0    0 -0.00000000000E+00 -0.00000000000E+00 -0.74505805969E-08  0.93827000000E+00  0.93827000000E+00 0. -1.
     999902    2    1    2    0    0 -0.22171178132E-01 -0.24021274544E-02 -0.70840789900E-02  0.10205309502E+01  0.10202626646E+01 0.  0.
     999903    2    3    3    0    0  0.12070403548E+00  0.28054370422E-01 -0.27228785393E-01  0.12826040036E+00  0.18783281558E-01 0.  0.
         14    1    1    2    0    0  0.22171178132E-01  0.24021274544E-02  0.70840789900E-02  0.23399049793E-01  0.00000000000E+00 0. -1.
     999901    1    3    3    0    0 -0.14287521361E+00 -0.30456497876E-01  0.20144706403E-01  0.89227054985E+00  0.88000000000E+00 0.  1.
        -11    1    4    4    0    0  0.10103110106E+00  0.16148655260E-01 -0.23144278339E-01  0.10489986267E+00  0.51100000000E-03 0. -1.
         11    1    4    4    0    0  0.19672934420E-01  0.11905715162E-01 -0.40845070541E-02  0.23360537689E-01  0.51100000000E-03 0.  1.
</event>
<event>
 8    1  0.1091347E+005  0.1043930E+01  0.7957747E-01            NaN
         13   -1    0    0    0    0  0.00000000000E+00  0.00000000000E+00  0.74505805969E-08  0.10566000000E+00  0.10566000000E+00 0. -1.
     999900   -1    0    0    0    0 -0.00000000000E+00 -0.00000000000E+00 -0.74505805969E-08  0.93827000000E+00  0.93827000000E+00 0.  1.
     999902    2    1    2    0    0  0.12395976034E-01  0.11118022827E-01 -0.15319038069E-01  0.10213038297E+01  0.10210531666E+01 0.  0.
     999903    2    3    3    0    0 -0.58289458955E-01 -0.24862193579E-01  0.11049239586E+00  0.12882440499E+00  0.19270912842E-01 0.  0.
         14    1    1    2    0    0 -0.12395976034E-01 -0.11118022827E-01  0.15319038069E-01  0.22626170263E-01  0.00000000000E+00 0. -1.
     999901    1    3    3    0    0  0.70685434989E-01  0.35980216406E-01 -0.12581143393E+00  0.89247942475E+00  0.88000000000E+00 0.  1.
        -11    1    4    4    0    0 -0.21401603151E-01 -0.14646341665E-01  0.29766189639E-01  0.39482035259E-01  0.51100000000E-03 0.  1.
         11    1    4    4    0    0 -0.36887855804E-01 -0.10215851914E-01  0.80726206226E-01  0.89342369729E-01  0.51100000000E-03 0. -1.
</event>
<event>
 8    1  0.1091347E+005  0.1043930E+01  0.7957747E-01            NaN
         13   -1    0    0    0    0  0.00000000000E+00  0.00000000000E+00  0.74505805969E-08  0.10566000000E+00  0.10566000000E+00 0.  1.
     999900   -1    0    0    0    0 -0.00000000000E+00 -0.00000000000E+00 -0.74505805969E-08  0.93827000000E+00  0.93827000000E+00 0. -1.
     999902    2    1    2    0    0  0.20151250021E-01  0.11021914465E-01  0.48198468048E-02  0.10204611611E+01  0.10201912541E+01 0.  0.
     999903    2    3    3    0    0  0.13135168771E-01 -0.71032891801E-01  0.10690034698E+00  0.13074061782E+00  0.21147590589E-01 0.  0.
         14    1    1    2    0    0 -0.20151250021E-01 -0.11021914465E-01 -0.48198468048E-02  0.23468838896E-01  0.00000000000E+00 0. -1.
     999901    1    3    3    0    0  0.70160812503E-02  0.82054806266E-01 -0.10208050017E+00  0.88972054328E+00  0.88000000000E+00 0. -1.
        -11    1    4    4    0    0  0.98128226067E-02 -0.71210785257E-01  0.10151475065E+00  0.12438960223E+00  0.51100000000E-03 0. -1.
         11    1    4    4    0    0  0.33223461640E-02  0.17789345574E-03  0.53855963320E-02  0.63510155854E-02  0.51100000000E-03 0.  1.
</event>
<event>
 8    1  0.1091347E+005  0.1043930E+01  0.7957747E-01            NaN
         13   -1    0    0    0    0  0.00000000000E+00  0.00000000000E+00  0.74505805969E-08  0.10566000000E+00  0.10566000000E+00 0.  1.
     999900   -1    0    0    0    0 -0.00000000000E+00 -0.00000000000E+00 -0.74505805969E-08  0.93827000000E+00  0.93827000000E+00 0. -1.
     999902    2    1    2    0    0  0.14589885724E-01 -0.72117432672E-02  0.17135627758E-01  0.10202973162E+01  0.10200235829E+01 0.  0.
     999903    2    3    3    0    0  0.11289789205E+00  0.64781764558E-01  0.61695023433E-02  0.13183359424E+00  0.19985563833E-01 0.  0.
         14    1    1    2    0    0 -0.14589885724E-01  0.72117432672E-02 -0.17135627758E-01  0.23632683830E-01  0.00000000000E+00 0. -1.
     999901    1    3    3    0    0 -0.98308006330E-01 -0.71993507825E-01  0.10966125414E-01  0.88846372193E+00  0.88000000000E+00 0.  1.
        -11    1    4    4    0    0  0.89388664807E-01  0.41986035431E-01  0.16532916178E-02  0.98773250738E-01  0.51100000000E-03 0. -1.
         11    1    4    4    0    0  0.23509227247E-01  0.22795729127E-01  0.45162107255E-02  0.33060343503E-01  0.51100000000E-03 0.  1.
</event>
<event>
 8    1  0.1091347E+005  0.1043930E+01  0.7957747E-01            NaN
         13   -1    0    0    0    0  0.00000000000E+00  0.00000000000E+00  0.74505805969E-08  0.10566000000E+00  0.10566000000E+00 0.  1.
     999900   -1    0    0    0    0 -0.00000000000E+00 -0.00000000000E+00 -0.74505805969E-08  0.93827000000E+00  0.93827000000E+00 0. -1.
     999902    2    1    2    0    0 -0.10517640376E-01  0.42140920010E-02  0.18858886132E-01  0.10219291610E+01  0.10216923085E+01 0.  0.
     999903    2    3    3    0    0  0.32386868759E-01 -0.76719518202E-01  0.10214171102E+00  0.13326326479E+00  0.19783196714E-01 0.  0.
         14    1    1    2    0    0  0.10517640376E-01 -0.42140920010E-02 -0.18858886132E-01  0.22000838998E-01  0.00000000000E+00 0. -1.
     999901    1    3    3    0    0 -0.42904509135E-01  0.80933610203E-01 -0.83282824886E-01  0.88866589621E+00  0.88000000000E+00 0. -1.
        -11    1    4    4    0    0  0.55615152466E-02 -0.38301535261E-01  0.47876079158E-01  0.61565559623E-01  0.51100000000E-03 0.  1.
         11    1    4    4    0    0  0.26825353512E-01 -0.38417982941E-01  0.54265631860E-01  0.71697705169E-01  0.51100000000E-03 0. -1.
</event>
<event>
 8    1  0.1091347E+005  0.1043930E+01  0.7957747E-01            NaN
         13   -1    0    0    0    0  0.00000000000E+00  0.00000000000E+00  0.74505805969E-08  0.10566000000E+00  0.10566000000E+00 0. -1.
     999900   -1    0    0    0    0 -0.00000000000E+00 -0.00000000000E+00 -0.74505805969E-08  0.93827000000E+00  0.93827000000E+00 0.  1.
     999902    2    1    2    0    0 -0.47931089165E-02  0.23275038939E-01  0.62847680225E-03  0.10201582455E+01  0.10198812428E+01 0.  0.
     999903    2    3    3    0    0 -0.23154049361E-01 -0.48637963287E-01  0.11606465280E+00  0.12952133024E+00  0.20075106043E-01 0.  0.
         14    1    1    2    0    0  0.47931089165E-02 -0.23275038939E-01 -0.62847680225E-03  0.23771754538E-01  0.00000000000E+00 0.  1.
     999901    1    3    3    0    0  0.18360940445E-01  0.71913002227E-01 -0.11543617600E+00  0.89063691522E+00  0.88000000000E+00 0.  1.
        -11    1    4    4    0    0 -0.22725020332E-01 -0.26257236000E-01  0.63271954762E-01  0.72176660852E-01  0.51100000000E-03 0. -1.
         11    1    4    4    0    0 -0.42902902886E-03 -0.22380727288E-01  0.52792698042E-01  0.57344669390E-01  0.51100000000E-03 0.  1.
</event>
<event>
 8    1  0.1091347E+005  0.1043930E+01  0.7957747E-01            NaN
         13   -1    0    0    0    0  0.00000000000E+00  0.00000000000E+00  0.74505805969E-08  0.10566000000E+00  0.10566000000E+00 0. -1.
     999900   -1    0    0    0    0 -0.00000000000E+00 -0.00000000000E+00 -0.74505805969E-08  0.93827000000E+00  0.93827000000E+00 0. -1.
     999902    2    1    2    0    0  0.15850200618E-01 -0.16713848764E-01 -0.80488793272E-02  0.10195298759E+01  0.10192378533E+01 0.  0.
     999903    2    3    3    0    0  0.12612671939E+00  0.10956873712E-01  0.28899600676E-01  0.13144667612E+00  0.20372513779E-01 0.  0.
         14    1    1    2    0    0 -0.15850200618E-01  0.16713848764E-01  0.80488793272E-02  0.24400124150E-01  0.00000000000E+00 0.  1.
     999901    1    3    3    0    0 -0.11027651877E+00 -0.27670722475E-01 -0.36948480003E-01  0.88808319973E+00  0.88000000000E+00 0. -1.
        -11    1    4    4    0    0  0.56960206350E-01  0.14286900416E-01  0.91371223204E-02  0.59433397650E-01  0.51100000000E-03 0. -1.
         11    1    4    4    0    0  0.69166513038E-01 -0.33300267049E-02  0.19762478356E-01  0.72013278467E-01  0.51100000000E-03 0.  1.
</event>
<event>
 8    1  0.1091347E+005  0.1043930E+01  0.7957747E-01            NaN
         13   -1    0    0    0    0  0.00000000000E+00  0.00000000000E+00  0.74505805969E-08  0.10566000000E+00  0.10566000000E+00 0. -1.
     999900   -1    0    0    0    0 -0.00000000000E+00 -0.00000000000E+00 -0.74505805969E-08  0.93827000000E+00  0.93827000000E+00 0. -1.
     999902    2    1    2    0    0  0.11741604046E-01  0.55302789621E-02  0.18676588108E-01  0.10211865571E+01  0.10209332594E+01 0.  0.
     999903    2    3    3    0    0  0.59134172264E-01  0.70023479026E-02 -0.11381554984E+00  0.13000622232E+00  0.20043833197E-01 0.  0.
         14    1    1    2    0    0 -0.11741604046E-01 -0.55302789621E-02 -0.18676588108E-01  0.22743442886E-01  0.00000000000E+00 0.  1.
     999901    1    3    3    0    0 -0.47392568218E-01 -0.14720689405E-02  0.13249213795E+00  0.89118033480E+00  0.88000000000E+00 0.  1.
        -11    1    4    4    0    0  0.37688730800E-01 -0.53009037170E-02 -0.66773795127E-01  0.76860528532E-01  0.51100000000E-03 0.  1.
         11    1    4    4    0    0  0.21445441464E-01  0.12303251620E-01 -0.47041754718E-01  0.53145693785E-01  0.51100000000E-03 0. -1.
</event>
<event>
 8    1  0.1091347E+005  0.1043930E+01  0.7957747E-01            NaN
         13   -1    0    0    0    0  0.00000000000E+00  0.00000000000E+00  0.74505805969E-08  0.10566000000E+00  0.10566000000E+00 0. -1.
     999900   -1    0    0    0    0 -0.00000000000E+00 -0.00000000000E+00 -0.74505805969E-08  0.93827000000E+00  0.93827000000E+00 0.  1.
     999902    2    1    2    0    0  0.16907609957E-01  0.24222497667E-02 -0.14384124901E-01  0.10215998048E+01  0.10213557282E+01 0.  0.
     999903    2    3    3    0    0  0.76244423052E-01 -0.10357430832E+00  0.23288950784E-01  0.13245674075E+00  0.21484030144E-01 0.  0.
         14    1    1    2    0    0 -0.16907609957E-01 -0.24222497667E-02  0.14384124901E-01  0.22330195198E-01  0.00000000000E+00 0. -1.
     999901    1    3    3    0    0 -0.59336813095E-01  0.10599655809E+00 -0.37673075685E-01  0.88914306405E+00  0.88000000000E+00 0. -1.
        -11    1    4    4    0    0  0.25361768023E-01 -0.27038526930E-01  0.15614885571E-01  0.40229180805E-01  0.51100000000E-03 0.  1.
         11    1    4    4    0    0  0.50882655029E-01 -0.76535781393E-01  0.76740652127E-02  0.92227559949E-01  0.51100000000E-03 0. -1.
</event>
<event>
 8    1  0.1091347E+005  0.1043930E+01  0.7957747E-01            NaN
         13   -1    0    0    0    0  0.00000000000E+00  0.00000000000E+00  0.74505805969E-08  0.10566000000E+00  0.10566000000E+00 0.  1.
     999900   -1    0    0    0    0 -0.00000000000E+00 -0.00000000000E+00 -0.74505805969E-08  0.93827000000E+00  0.93827000000E+00 0. -1.
     999902    2    1    2    0    0  0.15869793816E-01  0.16432157361E-01 -0.72024225195E-02  0.10199771079E+01  0.10196958172E+01 0.  0.
     999903    2    3    3    0    0 -0.73265188329E-01 -0.93176207591E-01 -0.42479120439E-01  0.12801102997E+00  0.23081478253E-01 0.  0.
         14    1    1    2    0    0 -0.15869793816E-01 -0.16432157361E-01  0.72024225195E-02  0.23952892131E-01  0.00000000000E+00 0. -1.
     999901    1    3    3    0    0  0.89134982145E-01  0.10960836495E+00  0.35276697919E-01  0.89196607790E+00  0.88000000000E+00 0.  1.
        -11    1    4    4    0    0 -0.35938700646E-01 -0.62773551846E-01 -0.21230340890E-01  0.75386321775E-01  0.51100000000E-03 0.  1.
         11    1    4    4    0    0 -0.37326487682E-01 -0.30402655745E-01 -0.21248779549E-01  0.52624708193E-01  0.51100000000E-03 0. -1.
</event>
<event>
 8    1  0.1091347E+005  0.1043930E+01  0.7957747E-01            NaN
         13   -1    0    0    0    0  0.00000000000E+00  0.00000000000E+00  0.74505805969E-08  0.10566000000E+00  0.10566000000E+00 0.  1.
     999900   -1    0    0    0    0 -0.00000000000E+00 -0.00000000000E+00 -0.74505805969E-08  0.93827000000E+00  0.93827000000E+00 0. -1.
     999902    2    1    2    0    0  0.51908253366E-02  0.24683739054E-01  0.64481324218E-02  0.10178952146E+01  0.10175622132E+01 0.  0.
     999903    2    3    3    0    0  0.12790780122E-01 -0.47592710715E-01  0.11518969246E+00  0.12822877629E+00  0.27299883678E-01 0.  0.
         14    1    1    2    0    0 -0.51908253366E-02 -0.24683739054E-01 -0.64481324218E-02  0.26034785443E-01  0.00000000000E+00 0. -1.
     999901    1    3    3    0    0 -0.75999547852E-02  0.72276449769E-01 -0.10874156004E+00  0.88966643827E+00  0.88000000000E+00 0. -1.
        -11    1    4    4    0    0 -0.22292191657E-03 -0.25873339605E-01  0.31371591301E-01  0.40668381555E-01  0.51100000000E-03 0.  1.
         11    1    4    4    0    0  0.13013702038E-01 -0.21719371109E-01  0.83818101162E-01  0.87560394732E-01  0.51100000000E-03 0. -1.
</event>
<event>
 8    1  0.1091347E+005  0.1043930E+01  0.7957747E-01            NaN
         13   -1    0    0    0    0  0.00000000000E+00  0.00000000000E+00  0.74505805969E-08  0.10566000000E+00  0.10566000000E+00 0.  1.
     999900   -1    0    0    0    0 -0.00000000000E+00 -0.00000000000E+00 -0.74505805969E-08  0.93827000000E+00  0.93827000000E+00 0.  1.
     999902    2    1    2    0    0 -0.71405544412E-02  0.18421141880E-01 -0.10761820843E-01  0.10214323829E+01  0.10211845916E+01 0.  0.
     999903    2    3    3    0    0  0.52012861512E-01  0.10532278588E+00 -0.60834788822E-01  0.13376221644E+00  0.19830078903E-01 0.  0.
         14    1    1    2    0    0  0.71405544412E-02 -0.18421141880E-01  0.10761820843E-01  0.22497617069E-01  0.00000000000E+00 0.  1.
     999901    1    3    3    0    0 -0.59153415953E-01 -0.86901643997E-01  0.50072967979E-01  0.88767016649E+00  0.88000000000E+00 0. -1.
        -11    1    4    4    0    0  0.17117179786E-01  0.30407895715E-01 -0.28348450549E-01  0.44961469450E-01  0.51100000000E-03 0. -1.
         11    1    4    4    0    0  0.34895681727E-01  0.74914890163E-01 -0.32486338274E-01  0.88800746994E-01  0.51100000000E-03 0.  1.
</event>
<event>
 8    1  0.1091347E+005  0.1043930E+01  0.7957747E-01            NaN
         13   -1    0    0    0    0  0.00000000000E+00  0.00000000000E+00  0.74505805969E-08  0.10566000000E+00  0.10566000000E+00 0.  1.
     999900   -1    0    0    0    0 -0.00000000000E+00 -0.00000000000E+00 -0.74505805969E-08  0.93827000000E+00  0.93827000000E+00 0. -1.
     999902    2    1    2    0    0  0.23037346517E-01  0.53169429289E-02 -0.16773711551E-02  0.10202276206E+01  0.10199522513E+01 0.  0.
     999903    2    3    3    0    0 -0.12213295068E+00 -0.30192975809E-02 -0.30749023089E-01  0.12782128429E+00  0.21614913754E-01 0.  0.
         14    1    1    2    0    0 -0.23037346517E-01 -0.53169429289E-02  0.16773711551E-02  0.23702379430E-01  0.00000000000E+00 0.  1.
     999901    1    3    3    0    0  0.14517029719E+00  0.83362405098E-02  0.29071651934E-01  0.89240633628E+00  0.88000000000E+00 0. -1.
        -11    1    4    4    0    0 -0.88517332061E-01 -0.11797454423E-01 -0.21115783305E-01  0.91764020354E-01  0.51100000000E-03 0.  1.
         11    1    4    4    0    0 -0.33615618616E-01  0.87781568417E-02 -0.96332397839E-02  0.36057263931E-01  0.51100000000E-03 0. -1.
</event>
<event>
 8    1  0.1091347E+005  0.1043930E+01  0.7957747E-01            NaN
         13   -1    0    0    0    0  0.00000000000E+00  0.00000000000E+00  0.74505805969E-08  0.10566000000E+00  0.10566000000E+00 0.  1.
     999900   -1    0    0    0    0 -0.00000000000E+00 -0.00000000000E+00 -0.74505805969E-08  0.93827000000E+00  0.93827000000E+00 0. -1.
     999902    2    1    2    0    0  0.15127647567E-01  0.18410415366E-01 -0.10420586598E-02  0.10200788994E+01  0.10198000225E+01 0.  0.
     999903    2    3    3    0    0  0.15178562764E-01  0.96127740914E-01 -0.87574487529E-01  0.13242590043E+00  0.19909718695E-01 0.  0.
         14    1    1    2    0    0 -0.15127647567E-01 -0.18410415366E-01  0.10420586598E-02  0.23851100627E-01  0.00000000000E+00 0. -1.
     999901    1    3    3    0    0 -0.50915197558E-04 -0.77717325548E-01  0.86532428869E-01  0.88765299894E+00  0.88000000000E+00 0.  1.
        -11    1    4    4    0    0  0.12129482951E-01  0.22492958413E-01 -0.24828284651E-01  0.35633725241E-01  0.51100000000E-03 0.  1.
         11    1    4    4    0    0  0.30490798131E-02  0.73634782501E-01 -0.62746202878E-01  0.96792175191E-01  0.51100000000E-03 0. -1.
</event>
<event>
 7    1  0.1091347E+005  0.1043930E+01  0.7957747E-01            NaN
         13   -1    0    0    0    0  0.00000000000E+00  0.00000000000E+00  0.74505805969E-08  0.10566000000E+00  0.10566000000E+00 0. -1.
     999900   -1    0    0    0    0 -0.00000000000E+00 -0.00000000000E+00 -0.74505805969E-08  0.93827000000E+00  0.93827000000E+00 0. -1.
     999903    2    1    2    0    0 -0.28746098292E-01  0.85252642336E-01  0.50143579819E-01  0.10489305120E+00  0.19844959075E-01 0.  0.
         14    1    1    2    0    0  0.83968870436E-02  0.45254326778E-01  0.10173453882E-01  0.47137680979E-01  0.00000000000E+00 0.  1.
     999901    1    1    2    0    0  0.20349211248E-01 -0.13050696911E+00 -0.60317033701E-01  0.89189926782E+00  0.88000000000E+00 0. -1.
        -11    1    3    3    0    0 -0.22259685031E-01  0.41393419880E-01  0.32641854847E-01  0.57224650247E-01  0.51100000000E-03 0.  1.
         11    1    3    3    0    0 -0.64864132612E-02  0.43859222455E-01  0.17501724972E-01  0.47668400952E-01  0.51100000000E-03 0. -1.
</event>
<event>
 8    1  0.1091347E+005  0.1043930E+01  0.7957747E-01            NaN
         13   -1    0    0    0    0  0.00000000000E+00  0.00000000000E+00  0.74505805969E-08  0.10566000000E+00  0.10566000000E+00 0.  1.
     999900   -1    0    0    0    0 -0.00000000000E+00 -0.00000000000E+00 -0.74505805969E-08  0.93827000000E+00  0.93827000000E+00 0. -1.
     999902    2    1    2    0    0  0.63814115492E-03  0.27880957116E-02  0.23324804925E-01  0.10204304845E+01  0.10201598632E+01 0.  0.
     999903    2    3    3    0    0  0.38767837223E-01  0.12330145480E+00 -0.43038466257E-02  0.13096958837E+00  0.20695797235E-01 0.  0.
         14    1    1    2    0    0 -0.63814115492E-03 -0.27880957116E-02 -0.23324804925E-01  0.23499515455E-01  0.00000000000E+00 0. -1.
     999901    1    3    3    0    0 -0.38129696068E-01 -0.12051335909E+00  0.27628651551E-01  0.88946089618E+00  0.88000000000E+00 0.  1.
        -11    1    4    4    0    0  0.23848306714E-01  0.50883349966E-01  0.51237746346E-02  0.56430233248E-01  0.51100000000E-03 0.  1.
         11    1    4    4    0    0  0.14919530508E-01  0.72418104833E-01 -0.94276212604E-02  0.74539355120E-01  0.51100000000E-03 0. -1.
</event>
<event>
 8    1  0.1091347E+005  0.1043930E+01  0.7957747E-01            NaN
         13   -1    0    0    0    0  0.00000000000E+00  0.00000000000E+00  0.74505805969E-08  0.10566000000E+00  0.10566000000E+00 0. -1.
     999900   -1    0    0    0    0 -0.00000000000E+00 -0.00000000000E+00 -0.74505805969E-08  0.93827000000E+00  0.93827000000E+00 0. -1.
     999902    2    1    2    0    0  0.18219989518E-01  0.54736686419E-02  0.11222440326E-01  0.10218421700E+01  0.10216034202E+01 0.  0.
     999903    2    3    3    0    0  0.10805956928E+00 -0.74604862396E-01 -0.12751018483E-01  0.13332742734E+00  0.19257684235E-01 0.  0.
         14    1    1    2    0    0 -0.18219989518E-01 -0.54736686419E-02 -0.11222440326E-01  0.22087829982E-01  0.00000000000E+00 0.  1.
     999901    1    3    3    0    0 -0.89839579767E-01  0.80078531038E-01  0.23973458808E-01  0.88851474268E+00  0.88000000000E+00 0.  1.
        -11    1    4    4    0    0  0.84196148841E-01 -0.56395532027E-01 -0.17779758825E-01  0.10288745530E+00  0.51100000000E-03 0. -1.
         11    1    4    4    0    0  0.23863420444E-01 -0.18209330369E-01  0.50287403423E-02  0.30439972047E-01  0.51100000000E-03 0.  1.
</event>
<event>
 8    1  0.1091347E+005  0.1043930E+01  0.7957747E-01            NaN
         13   -1    0    0    0    0  0.00000000000E+00  0.00000000000E+00  0.74505805969E-08  0.10566000000E+00  0.10566000000E+00 0.  1.
     999900   -1    0    0    0    0 -0.00000000000E+00 -0.00000000000E+00 -0.74505805969E-08  0.93827000000E+00  0.93827000000E+00 0.  1.
     999902    2    1    2    0    0 -0.17711515796E-01  0.60386969772E-02  0.94553330701E-02  0.10229641474E+01  0.10227492752E+01 0.  0.
     999903    2    3    3    0    0 -0.16311710275E-01  0.64656896619E-01 -0.11273210998E+00  0.13258904438E+00  0.20609218738E-01 0.  0.
         14    1    1    2    0    0  0.17711515796E-01 -0.60386969772E-02 -0.94553330701E-02  0.20965852629E-01  0.00000000000E+00 0. -1.
     999901    1    3    3    0    0 -0.13998055211E-02 -0.58618199642E-01  0.12218744305E+00  0.89037510299E+00  0.88000000000E+00 0. -1.
        -11    1    4    4    0    0 -0.86243026920E-02  0.48267140364E-01 -0.96614241945E-01  0.10834513512E+00  0.51100000000E-03 0.  1.
         11    1    4    4    0    0 -0.76874075831E-02  0.16389756255E-01 -0.16117868034E-01  0.24243909264E-01  0.51100000000E-03 0. -1.
</event>
<event>
 8    1  0.1091347E+005  0.1043930E+01  0.7957747E-01            NaN
         13   -1    0    0    0    0  0.00000000000E+00  0.00000000000E+00  0.74505805969E-08  0.10566000000E+00  0.10566000000E+00 0.  1.
     999900   -1    0    0    0    0 -0.00000000000E+00 -0.00000000000E+00 -0.74505805969E-08  0.93827000000E+00  0.93827000000E+00 0. -1.
     999902    2    1    2    0    0  0.20230371367E-01 -0.11662844917E-01 -0.61136775100E-02  0.10197915052E+01  0.10195057858E+01 0.  0.
     999903    2    3    3    0    0 -0.24669488039E-01 -0.11913220936E+00 -0.45169698571E-01  0.13125842512E+00  0.19682620447E-01 0.  0.
         14    1    1    2    0    0 -0.20230371367E-01  0.11662844917E-01  0.61136775100E-02  0.24138494773E-01  0.00000000000E+00 0.  1.
     999901    1    3    3    0    0  0.44899859407E-01  0.10746936444E+00  0.39056021061E-01  0.88853308011E+00  0.88000000000E+00 0. -1.
        -11    1    4    4    0    0 -0.19637611047E-01 -0.51804629376E-01 -0.25075109764E-01  0.60814288149E-01  0.51100000000E-03 0.  1.
         11    1    4    4    0    0 -0.50318769919E-02 -0.67327579986E-01 -0.20094588807E-01  0.70444136968E-01  0.51100000000E-03 0. -1.
</event>
<event>
 8    1  0.1091347E+005  0.1043930E+01  0.7957747E-01            NaN
         13   -1    0    0    0    0  0.00000000000E+00  0.00000000000E+00  0.74505805969E-08  0.10566000000E+00  0.10566000000E+00 0.  1.
     999900   -1    0    0    0    0 -0.00000000000E+00 -0.00000000000E+00 -0.74505805969E-08  0.93827000000E+00  0.93827000000E+00 0.  1.
     999902    2    1    2    0    0 -0.22278495937E-01 -0.66195459202E-02 -0.34393595135E-02  0.10204357674E+01  0.10201652692E+01 0.  0.
     999903    2    3    3    0    0  0.10502953355E+00 -0.10214865976E-01 -0.71055867749E-01  0.12870023889E+00  0.19474823359E-01 0.  0.
         14    1    1    2    0    0  0.22278495937E-01  0.66195459202E-02  0.34393595135E-02  0.23494232553E-01  0.00000000000E+00 0.  1.
     999901    1    3    3    0    0 -0.12730802949E+00  0.35953200558E-02  0.67616508236E-01  0.89173552855E+00  0.88000000000E+00 0. -1.
        -11    1    4    4    0    0  0.65451426571E-01 -0.12718525333E-01 -0.36042050548E-01  0.75795386770E-01  0.51100000000E-03 0.  1.
         11    1    4    4    0    0  0.39578106980E-01  0.25036593571E-02 -0.35013817201E-01  0.52904852124E-01  0.51100000000E-03 0. -1.
</event>
<event>
 8    1  0.1091347E+005  0.1043930E+01  0.7957747E-01            NaN
         13   -1    0    0    0    0  0.00000000000E+00  0.00000000000E+00  0.74505805969E-08  0.10566000000E+00  0.10566000000E+00 0. -1.
     999900   -1    0    0    0    0 -0.00000000000E+00 -0.00000000000E+00 -0.74505805969E-08  0.93827000000E+00  0.93827000000E+00 0. -1.
     999902    2    1    2    0    0  0.17743399691E-01 -0.71483858451E-02  0.16416927688E-01  0.10187220019E+01  0.10184100716E+01 0.  0.
     999903    2    3    3    0    0 -0.11944142352E+00 -0.24893900646E-01  0.32577538670E-01  0.12776984587E+00  0.19439072662E-01 0.  0.
         14    1    1    2    0    0 -0.17743399691E-01  0.71483858451E-02 -0.16416927688E-01  0.25207998085E-01  0.00000000000E+00 0.  1.
     999901    1    3    3    0    0  0.13718482321E+00  0.17745514801E-01 -0.16160610982E-01  0.89095215605E+00  0.88000000000E+00 0. -1.
        -11    1    4    4    0    0 -0.98814869386E-01 -0.25457036797E-01  0.21273430030E-01  0.10423655348E+00  0.51100000000E-03 0. -1.
         11    1    4    4    0    0 -0.20626554133E-01  0.56313615113E-03  0.11304108639E-01  0.23533292393E-01  0.51100000000E-03 0.  1.
</event>
<event>
 8    1  0.1091347E+005  0.1043930E+01  0.7957747E-01            NaN
         13   -1    0    0    0    0  0.00000000000E+00  0.00000000000E+00  0.74505805969E-08  0.10566000000E+00  0.10566000000E+00 0.  1.
     999900   -1    0    0    0    0 -0.00000000000E+00 -0.00000000000E+00 -0.74505805969E-08  0.93827000000E+00  0.93827000000E+00 0.  1.
     999902    2    1    2    0    0 -0.56340693007E-02  0.12210336414E-01  0.17663959395E-01  0.10217297632E+01  0.10214885504E+01 0.  0.
     999903    2    3    3    0    0  0.48872056341E-01  0.11861480617E+00  0.31316415026E-01  0.13354103413E+00  0.19863026227E-01 0.  0.
         14    1    1    2    0    0  0.56340693007E-02 -0.12210336414E-01 -0.17663959395E-01  0.22200236795E-01  0.00000000000E+00 0. -1.
     999901    1    3    3    0    0 -0.54506125642E-01 -0.10640446976E+00 -0.13652455631E-01  0.88818872908E+00  0.88000000000E+00 0.  1.
        -11    1    4    4    0    0  0.36279569519E-01  0.62609055973E-01  0.19268638490E-01  0.74884194625E-01  0.51100000000E-03 0. -1.
         11    1    4    4    0    0  0.12592486822E-01  0.56005750201E-01  0.12047776536E-01  0.58656839502E-01  0.51100000000E-03 0.  1.
</event>
<event>
 8    1  0.1091347E+005  0.1043930E+01  0.7957747E-01            NaN
         13   -1    0    0    0    0  0.00000000000E+00  0.00000000000E+00  0.74505805969E-08  0.10566000000E+00  0.10566000000E+00 0.  1.
     999900   -1    0    0    0    0 -0.00000000000E+00 -0.00000000000E+00 -0.74505805969E-08  0.93827000000E+00  0.93827000000E+00 0.  1.
     999902    2    1    2    0    0  0.17564074593E-01 -0.15538848235E-01 -0.97255899163E-03  0.10204587752E+01  0.10201888127E+01 0.  0.
     999903    2    3    3    0    0 -0.45337903484E-02 -0.80322301260E-01  0.10160224404E+00  0.13186055240E+00  0.24330268173E-01 0.  0.
         14    1    1    2    0    0 -0.17564074593E-01  0.15538848235E-01  0.97255899163E-03  0.23471224761E-01  0.00000000000E+00 0.  1.
     999901    1    3    3    0    0  0.22097864941E-01  0.64783453025E-01 -0.10257480303E+00  0.88859822284E+00  0.88000000000E+00 0.  1.
        -11    1    4    4    0    0 -0.81537390363E-02 -0.73048271034E-01  0.79335752009E-01  0.10815246659E+00  0.51100000000E-03 0.  1.
         11    1    4    4    0    0  0.36199486879E-02 -0.72740302264E-02  0.22266492034E-01  0.23708085809E-01  0.51100000000E-03 0. -1.
</event>
<event>
 8    1  0.1091347E+005  0.1043930E+01  0.7957747E-01            NaN
         13   -1    0    0    0    0  0.00000000000E+00  0.00000000000E+00  0.74505805969E-08  0.10566000000E+00  0.10566000000E+00 0.  1.
     999900   -1    0    0    0    0 -0.00000000000E+00 -0.00000000000E+00 -0.74505805969E-08  0.93827000000E+00  0.93827000000E+00 0.  1.
     999902    2    1    2    0    0  0.22999776255E-03  0.13769222980E-01  0.18486275353E-01  0.10208781719E+01  0.10206178791E+01 0.  0.
     999903    2    3    3    0    0 -0.25993213633E-01  0.49193401741E-01 -0.11376525946E+00  0.12990510966E+00  0.28933809354E-01 0.  0.
         14    1    1    2    0    0 -0.22999776255E-03 -0.13769222980E-01 -0.18486275353E-01  0.23051828059E-01  0.00000000000E+00 0. -1.
     999901    1    3    3    0    0  0.26223211396E-01 -0.35424178760E-01  0.13225153482E+00  0.89097306229E+00  0.88000000000E+00 0. -1.
        -11    1    4    4    0    0  0.16925118589E-02  0.23921395531E-01 -0.57409245558E-01  0.62218810316E-01  0.51100000000E-03 0.  1.
         11    1    4    4    0    0 -0.27685725492E-01  0.25272006210E-01 -0.56356013906E-01  0.67686299339E-01  0.51100000000E-03 0. -1.
</event>
<event>
 8    1  0.1091347E+005  0.1043930E+01  0.7957747E-01            NaN
         13   -1    0    0    0    0  0.00000000000E+00  0.00000000000E+00  0.74505805969E-08  0.10566000000E+00  0.10566000000E+00 0. -1.
     999900   -1    0    0    0    0 -0.00000000000E+00 -0.00000000000E+00 -0.74505805969E-08  0.93827000000E+00  0.93827000000E+00 0. -1.
     999902    2    1    2    0    0 -0.11762305542E-01 -0.19463171275E-01  0.39125801384E-03  0.10211853314E+01  0.10209320061E+01 0.  0.
     999903    2    3    3    0    0  0.11209089039E+00  0.60553499487E-01 -0.22094391745E-02  0.12891348639E+00  0.19563009525E-01 0.  0.
         14    1    1    2    0    0  0.11762305542E-01  0.19463171275E-01 -0.39125801384E-03  0.22744668619E-01  0.00000000000E+00 0.  1.
     999901    1    3    3    0    0 -0.12385319594E+00 -0.80016670763E-01  0.26006971883E-02  0.89227184499E+00  0.88000000000E+00 0.  1.
        -11    1    4    4    0    0  0.17955797876E-01  0.18511544983E-01 -0.14325045571E-03  0.25794759482E-01  0.51100000000E-03 0. -1.
         11    1    4    4    0    0  0.94135092517E-01  0.42041954504E-01 -0.20661887188E-02  0.10311872691E+00  0.51100000000E-03 0.  1.
</event>
<event>
 7    1  0.1091347E+005  0.1043930E+01  0.7957747E-01            NaN
         13   -1    0    0    0    0  0.00000000000E+00  0.00000000000E+00  0.74505805969E-08  0.10566000000E+00  0.10566000000E+00 0. -1.
     999900   -1    0    0    0    0 -0.00000000000E+00 -0.00000000000E+00 -0.74505805969E-08  0.93827000000E+00  0.93827000000E+00 0.  1.
     999903    2    1    2    0    0  0.24064304773E-01 -0.53518177502E-01  0.89280675123E-01  0.10859213001E+00  0.19440310246E-01 0.  0.
         14    1    1    2    0    0 -0.46472282305E-02 -0.29669487038E-02 -0.52245862145E-01  0.52535984108E-01  0.00000000000E+00 0.  1.
     999901    1    1    2    0    0 -0.19417076543E-01  0.56485126206E-01 -0.37034812978E-01  0.88280188588E+00  0.88000000000E+00 0. -1.
        -11    1    3    3    0    0  0.13081901202E-01 -0.47013887991E-01  0.66681180090E-01  0.82632213466E-01  0.51100000000E-03 0.  1.
         11    1    3    3    0    0  0.10982403572E-01 -0.65042895107E-02  0.22599495033E-01  0.25959916544E-01  0.51100000000E-03 0. -1.
</event>
<event>
 8    1  0.1091347E+005  0.1043930E+01  0.7957747E-01            NaN
         13   -1    0    0    0    0  0.00000000000E+00  0.00000000000E+00  0.74505805969E-08  0.10566000000E+00  0.10566000000E+00 0. -1.
     999900   -1    0    0    0    0 -0.00000000000E+00 -0.00000000000E+00 -0.74505805969E-08  0.93827000000E+00  0.93827000000E+00 0. -1.
     999902    2    1    2    0    0 -0.15282994691E-01 -0.15144477003E-01  0.13546516803E-01  0.10185049488E+01  0.10181875552E+01 0.  0.
     999903    2    3    3    0    0  0.10163938613E+00 -0.75199268401E-01  0.90677252737E-02  0.12873111200E+00  0.22449516086E-01 0.  0.
         14    1    1    2    0    0  0.15282994691E-01  0.15144477003E-01 -0.13546516803E-01  0.25425051188E-01  0.00000000000E+00 0.  1.
     999901    1    3    3    0    0 -0.11692238082E+00  0.60054791398E-01  0.44787915291E-02  0.88977383682E+00  0.88000000000E+00 0. -1.
        -11    1    4    4    0    0  0.37806351786E-01 -0.36997044894E-01  0.12139802286E-01  0.54274648656E-01  0.51100000000E-03 0. -1.
         11    1    4    4    0    0  0.63833034348E-01 -0.38202223507E-01 -0.30720770121E-02  0.74456463340E-01  0.51100000000E-03 0.  1.
</event>
<event>
 8    1  0.1091347E+005  0.1043930E+01  0.7957747E-01            NaN
         13   -1    0    0    0    0  0.00000000000E+00  0.00000000000E+00  0.74505805969E-08  0.10566000000E+00  0.10566000000E+00 0. -1.
     999900   -1    0    0    0    0 -0.00000000000E+00 -0.00000000000E+00 -0.74505805969E-08  0.93827000000E+00  0.93827000000E+00 0. -1.
     999902    2    1    2    0    0  0.64504930633E-02 -0.29842143593E-02  0.28872890950E-01  0.10141952017E+01  0.10137592165E+01 0.  0.
     999903    2    3    3    0    0 -0.75987924227E-01  0.46481229497E-01 -0.82481436466E-01  0.12198294615E+00  0.11915639545E-01 0.  0.
         14    1    1    2    0    0 -0.64504930633E-02  0.29842143593E-02 -0.28872890950E-01  0.29734798266E-01  0.00000000000E+00 0.  1.
     999901    1    3    3    0    0  0.82438417290E-01 -0.49465443857E-01  0.11135432742E+00  0.89221225558E+00  0.88000000000E+00 0.  1.
        -11    1    4    4    0    0 -0.10707538629E-01  0.10203123938E-01 -0.18086307591E-01  0.23369440833E-01  0.51100000000E-03 0.  1.
         11    1    4    4    0    0 -0.65280385598E-01  0.36278105560E-01 -0.64395128875E-01  0.98613505316E-01  0.51100000000E-03 0. -1.
</event>
<event>
 8    1  0.1091347E+005  0.1043930E+01  0.7957747E-01            NaN
         13   -1    0    0    0    0  0.00000000000E+00  0.00000000000E+00  0.74505805969E-08  0.10566000000E+00  0.10566000000E+00 0. -1.
     999900   -1    0    0    0    0 -0.00000000000E+00 -0.00000000000E+00 -0.74505805969E-08  0.93827000000E+00  0.93827000000E+00 0. -1.
     999902    2    1    2    0    0 -0.22702394589E-01  0.11236604558E-01 -0.95031854777E-02  0.10168750460E+01  0.10165150705E+01 0.  0.
     999903    2    3    3    0    0  0.20277793190E-01 -0.16072722401E-01 -0.12384296608E+00  0.12801809389E+00  0.19545608497E-01 0.  0.
         14    1    1    2    0    0  0.22702394589E-01 -0.11236604558E-01  0.95031854777E-02  0.27054954006E-01  0.00000000000E+00 0. -1.
     999901    1    3    3    0    0 -0.42980187779E-01  0.27309326959E-01  0.11433978061E+00  0.88885695211E+00  0.88000000000E+00 0.  1.
        -11    1    4    4    0    0  0.10347941680E-01 -0.16906955398E-01 -0.55194166256E-01  0.58647950924E-01  0.51100000000E-03 0.  1.
         11    1    4    4    0    0  0.99298515101E-02  0.83423299694E-03 -0.68648799829E-01  0.69370142963E-01  0.51100000000E-03 0. -1.
</event>
<event>
 8    1  0.1091347E+005  0.1043930E+01  0.7957747E-01            NaN
         13   -1    0    0    0    0  0.00000000000E+00  0.00000000000E+00  0.74505805969E-08  0.10566000000E+00  0.10566000000E+00 0. -1.
     999900   -1    0    0    0    0 -0.00000000000E+00 -0.00000000000E+00 -0.74505805969E-08  0.93827000000E+00  0.93827000000E+00 0.  1.
     999902    2    1    2    0    0  0.30128609298E-01 -0.21553114696E-01  0.62839206915E-03  0.10068805097E+01  0.10061986365E+01 0.  0.
     999903    2    3    3    0    0  0.99890955684E-01 -0.64468743381E-01 -0.24066056901E-01  0.12273213308E+00  0.18697045072E-01 0.  0.
         14    1    1    2    0    0 -0.30128609298E-01  0.21553114696E-01 -0.62839206915E-03  0.37049490252E-01  0.00000000000E+00 0.  1.
     999901    1    3    3    0    0 -0.69762346386E-01  0.42915628685E-01  0.24694448970E-01  0.88414837667E+00  0.88000000000E+00 0.  1.
        -11    1    4    4    0    0  0.53076051614E-01 -0.26558998116E-01 -0.50795037719E-02  0.59569372294E-01  0.51100000000E-03 0.  1.
         11    1    4    4    0    0  0.46814904070E-01 -0.37909745265E-01 -0.18986553129E-01  0.63162760784E-01  0.51100000000E-03 0. -1.
</event>
<event>
 8    1  0.1091347E+005  0.1043930E+01  0.7957747E-01            NaN
         13   -1    0    0    0    0  0.00000000000E+00  0.00000000000E+00  0.74505805969E-08  0.10566000000E+00  0.10566000000E+00 0. -1.
     999900   -1    0    0    0    0 -0.00000000000E+00 -0.00000000000E+00 -0.74505805969E-08  0.93827000000E+00  0.93827000000E+00 0. -1.
     999902    2    1    2    0    0 -0.13318606645E-01 -0.24505836154E-01  0.44061008101E-02  0.10156928788E+01  0.10153002950E+01 0.  0.
     999903    2    3    3    0    0 -0.88345509734E-01 -0.85399300852E-01  0.36921668080E-01  0.12980670534E+00  0.19712978010E-01 0.  0.
         14    1    1    2    0    0  0.13318606645E-01  0.24505836154E-01 -0.44061008101E-02  0.28237121187E-01  0.00000000000E+00 0.  1.
     999901    1    3    3    0    0  0.75026903089E-01  0.60893464698E-01 -0.32515567270E-01  0.88588617347E+00  0.88000000000E+00 0.  1.
        -11    1    4    4    0    0 -0.74799876713E-01 -0.67967480930E-01  0.22841052280E-01  0.10361744453E+00  0.51100000000E-03 0.  1.
         11    1    4    4    0    0 -0.13545633021E-01 -0.17431819923E-01  0.14080615800E-01  0.26189260816E-01  0.51100000000E-03 0. -1.
</event>
<event>
 8    1  0.1091347E+005  0.1043930E+01  0.7957747E-01            NaN
         13   -1    0    0    0    0  0.00000000000E+00  0.00000000000E+00  0.74505805969E-08  0.10566000000E+00  0.10566000000E+00 0. -1.
     999900   -1    0    0    0    0 -0.00000000000E+00 -0.00000000000E+00 -0.74505805969E-08  0.93827000000E+00  0.93827000000E+00 0.  1.
     999902    2    1    2    0    0  0.14547749738E-01  0.12452842377E-01  0.14394918932E-01  0.10199732891E+01  0.10196919076E+01 0.  0.
     999903    2    3    3    0    0 -0.66664378639E-01 -0.75176533770E-01  0.79665833813E-01  0.12950453071E+00  0.18141879384E-01 0.  0.
         14    1    1    2    0    0 -0.14547749738E-01 -0.12452842377E-01 -0.14394918932E-01  0.23956710892E-01  0.00000000000E+00 0.  1.
     999901    1    3    3    0    0  0.81212128376E-01  0.87629376147E-01 -0.65270914881E-01  0.89046875840E+00  0.88000000000E+00 0. -1.
        -11    1    4    4    0    0 -0.57011510665E-02 -0.62822686750E-02  0.14357643775E-01  0.16684516144E-01  0.51100000000E-03 0. -1.
         11    1    4    4    0    0 -0.60963227572E-01 -0.68894265095E-01  0.65308190038E-01  0.11282001456E+00  0.51100000000E-03 0.  1.
</event>
<event>
 8    1  0.1091347E+005  0.1043930E+01  0.7957747E-01            NaN
         13   -1    0    0    0    0  0.00000000000E+00  0.00000000000E+00  0.74505805969E-08  0.10566000000E+00  0.10566000000E+00 0. -1.
     999900   -1    0    0    0    0 -0.00000000000E+00 -0.00000000000E+00 -0.74505805969E-08  0.93827000000E+00  0.93827000000E+00 0.  1.
     999902    2    1    2    0    0 -0.14296814286E-02 -0.43145394746E-02 -0.23017897254E-01  0.10204676294E+01  0.10201978729E+01 0.  0.
     999903    2    3    3    0    0  0.11990711603E+00 -0.40591758983E-02 -0.50526487316E-01  0.13171602960E+00  0.20049766824E-01 0.  0.
         14    1    1    2    0    0  0.14296814286E-02  0.43145394746E-02  0.23017897254E-01  0.23462370594E-01  0.00000000000E+00 0. -1.
     999901    1    3    3    0    0 -0.12133679746E+00 -0.25536357631E-03  0.27508590062E-01  0.88875159980E+00  0.88000000000E+00 0. -1.
        -11    1    4    4    0    0  0.75698078551E-01  0.26855710213E-02 -0.40450636355E-01  0.85871569746E-01  0.51100000000E-03 0. -1.
         11    1    4    4    0    0  0.44209037479E-01 -0.67447469195E-02 -0.10075850961E-01  0.45844459856E-01  0.51100000000E-03 0.  1.
</event>
<event>
 8    1  0.1091347E+005  0.1043930E+01  0.7957747E-01            NaN
         13   -1    0    0    0    0  0.00000000000E+00  0.00000000000E+00  0.74505805969E-08  0.10566000000E+00  0.10566000000E+00 0. -1.
     999900   -1    0    0    0    0 -0.00000000000E+00 -0.00000000000E+00 -0.74505805969E-08  0.93827000000E+00  0.93827000000E+00 0.  1.
     999902    2    1    2    0    0 -0.89785878813E-02  0.93047955201E-02 -0.18318060331E-01  0.10215080109E+01  0.10212619012E+01 0.  0.
     999903    2    3    3    0    0  0.86890243452E-01 -0.17546842528E-01  0.91654769729E-01  0.12909226328E+00  0.20159601550E-01 0.  0.
         14    1    1    2    0    0  0.89785878813E-02 -0.93047955201E-02  0.18318060331E-01  0.22421989080E-01  0.00000000000E+00 0. -1.
     999901    1    3    3    0    0 -0.95868831333E-01  0.26851638048E-01 -0.10997283006E+00  0.89241574764E+00  0.88000000000E+00 0.  1.
        -11    1    4    4    0    0  0.83678373271E-01 -0.13221324637E-01  0.81345184257E-01  0.11744860025E+00  0.51100000000E-03 0. -1.
         11    1    4    4    0    0  0.32118701809E-02 -0.43255178903E-02  0.10309585471E-01  0.11643663026E-01  0.51100000000E-03 0.  1.
</event>
<event>
 8    1  0.1091347E+005  0.1043930E+01  0.7957747E-01            NaN
         13   -1    0    0    0    0  0.00000000000E+00  0.00000000000E+00  0.74505805969E-08  0.10566000000E+00  0.10566000000E+00 0. -1.
     999900   -1    0    0    0    0 -0.00000000000E+00 -0.00000000000E+00 -0.74505805969E-08  0.93827000000E+00  0.93827000000E+00 0. -1.
     999902    2    1    2    0    0 -0.20717287333E-01 -0.38061821702E-02 -0.18016926317E-01  0.10162117271E+01  0.10158336339E+01 0.  0.
     999903    2    3    3    0    0  0.24982819574E-02 -0.14168987136E-01 -0.12681619707E+00  0.12914711184E+00  0.19738972808E-01 0.  0.
         14    1    1    2    0    0  0.20717287333E-01  0.38061821702E-02  0.18016926317E-01  0.27718272873E-01  0.00000000000E+00 0. -1.
     999901    1    3    3    0    0 -0.23215569290E-01  0.10362804966E-01  0.10879927075E+00  0.88706461529E+00  0.88000000000E+00 0.  1.
        -11    1    4    4    0    0 -0.55866517690E-02 -0.14928056288E-01 -0.93603896969E-01  0.94952662897E-01  0.51100000000E-03 0. -1.
         11    1    4    4    0    0  0.80849337263E-02  0.75906915141E-03 -0.33212300100E-01  0.34194448939E-01  0.51100000000E-03 0.  1.
</event>
<event>
 8    1  0.1091347E+005  0.1043930E+01  0.7957747E-01            NaN
         13   -1    0    0    0    0  0.00000000000E+00  0.00000000000E+00  0.74505805969E-08  0.10566000000E+00  0.10566000000E+00 0. -1.
     999900   -1    0    0    0    0 -0.00000000000E+00 -0.00000000000E+00 -0.74505805969E-08  0.93827000000E+00  0.93827000000E+00 0. -1.
     999902    2    1    2    0    0  0.12250105459E-01  0.18026919039E-01  0.95248788475E-02  0.10201443276E+01  0.10198669967E+01 0.  0.
     999903    2    3    3    0    0 -0.10523145189E+00 -0.13521051426E-01 -0.69541905933E-01  0.12826499317E+00  0.18956647743E-01 0.  0.
         14    1    1    2    0    0 -0.12250105459E-01 -0.18026919039E-01 -0.95248788475E-02  0.23785672386E-01  0.00000000000E+00 0.  1.
     999901    1    3    3    0    0  0.11748155735E+00  0.31547970465E-01  0.79066784780E-01  0.89187933445E+00  0.88000000000E+00 0.  1.
        -11    1    4    4    0    0 -0.92282598859E-01 -0.73510416433E-02 -0.54286737944E-01  0.10731927554E+00  0.51100000000E-03 0.  1.
         11    1    4    4    0    0 -0.12948853028E-01 -0.61700097827E-02 -0.15255167989E-01  0.20945717625E-01  0.51100000000E-03 0. -1.
</event>
<event>
 8    1  0.1091347E+005  0.1043930E+01  0.7957747E-01            NaN
         13   -1    0    0    0    0  0.00000000000E+00  0.00000000000E+00  0.74505805969E-08  0.10566000000E+00  0.10566000000E+00 0.  1.
     999900   -1    0    0    0    0 -0.00000000000E+00 -0.00000000000E+00 -0.74505805969E-08  0.93827000000E+00  0.93827000000E+00 0.  1.
     999902    2    1    2    0    0 -0.62663113298E-03 -0.20427091248E-01  0.10142507994E-01  0.10211148911E+01  0.10208599766E+01 0.  0.
     999903    2    3    3    0    0  0.62760836541E-01  0.10531648104E+00  0.36740846653E-01  0.12952255793E+00  0.19892697632E-01 0.  0.
         14    1    1    2    0    0  0.62663113298E-03  0.20427091248E-01 -0.10142507994E-01  0.22815108850E-01  0.00000000000E+00 0. -1.
     999901    1    3    3    0    0 -0.63387467674E-01 -0.12574357229E+00 -0.26598338659E-01  0.89159233322E+00  0.88000000000E+00 0.  1.
        -11    1    4    4    0    0  0.41457066781E-01  0.54603798368E-01  0.13869439756E-01  0.69949164844E-01  0.51100000000E-03 0.  1.
         11    1    4    4    0    0  0.21303769760E-01  0.50712682673E-01  0.22871406897E-01  0.59573393090E-01  0.51100000000E-03 0. -1.
</event>
<event>
 8    1  0.1091347E+005  0.1043930E+01  0.7957747E-01            NaN
         13   -1    0    0    0    0  0.00000000000E+00  0.00000000000E+00  0.74505805969E-08  0.10566000000E+00  0.10566000000E+00 0. -1.
     999900   -1    0    0    0    0 -0.00000000000E+00 -0.00000000000E+00 -0.74505805969E-08  0.93827000000E+00  0.93827000000E+00 0. -1.
     999902    2    1    2    0    0 -0.69681673096E-02  0.17140841155E-01  0.14973564404E-01  0.10201272392E+01  0.10198495049E+01 0.  0.
     999903    2    3    3    0    0 -0.94749489276E-01  0.79088688592E-01 -0.42190444477E-01  0.13175185671E+00  0.18601928930E-01 0.  0.
         14    1    1    2    0    0  0.69681673096E-02 -0.17140841155E-01 -0.14973564404E-01  0.23802760808E-01  0.00000000000E+00 0.  1.
     999901    1    3    3    0    0  0.87781321967E-01 -0.61947847438E-01  0.57164008881E-01  0.88837538248E+00  0.88000000000E+00 0.  1.
        -11    1    4    4    0    0 -0.35956043250E-01  0.28822571006E-01 -0.64283115321E-02  0.46531300818E-01  0.51100000000E-03 0.  1.
         11    1    4    4    0    0 -0.58793446026E-01  0.50266117586E-01 -0.35762132945E-01  0.85220555892E-01  0.51100000000E-03 0. -1.
</event>
<event>
 8    1  0.1091347E+005  0.1043930E+01  0.7957747E-01            NaN
         13   -1    0    0    0    0  0.00000000000E+00  0.00000000000E+00  0.74505805969E-08  0.10566000000E+00  0.10566000000E+00 0. -1.
     999900   -1    0    0    0    0 -0.00000000000E+00 -0.00000000000E+00 -0.74505805969E-08  0.93827000000E+00  0.93827000000E+00 0. -1.
     999902    2    1    2    0    0 -0.21027191589E-01  0.71223248282E-02  0.93731268956E-02  0.10198317469E+01  0.10195469906E+01 0.  0.
     999903    2    3    3    0    0  0.11805090874E+00  0.43300609984E-01 -0.12143527129E-01  0.12791552169E+00  0.20098645681E-01 0.  0.
         14    1    1    2    0    0  0.21027191589E-01 -0.71223248282E-02 -0.93731268956E-02  0.24098253150E-01  0.00000000000E+00 0. -1.
     999901    1    3    3    0    0 -0.13907810033E+00 -0.36178285155E-01  0.21516654025E-01  0.89191622516E+00  0.88000000000E+00 0.  1.
        -11    1    4    4    0    0  0.74829234075E-01  0.20706179311E-01 -0.14917266621E-01  0.79062924929E-01  0.51100000000E-03 0. -1.
         11    1    4    4    0    0  0.43221674665E-01  0.22594430673E-01  0.27737394924E-02  0.48852596759E-01  0.51100000000E-03 0.  1.
</event>
<event>
 8    1  0.1091347E+005  0.1043930E+01  0.7957747E-01            NaN
         13   -1    0    0    0    0  0.00000000000E+00  0.00000000000E+00  0.74505805969E-08  0.10566000000E+00  0.10566000000E+00 0.  1.
     999900   -1    0    0    0    0 -0.00000000000E+00 -0.00000000000E+00 -0.74505805969E-08  0.93827000000E+00  0.93827000000E+00 0.  1.
     999902    2    1    2    0    0  0.17433652747E-01 -0.41766706536E-02  0.15367300098E-01  0.10203179112E+01  0.10200446604E+01 0.  0.
     999903    2    3    3    0    0  0.32803866022E-01 -0.11934047259E+00 -0.41508944037E-01  0.13086085664E+00  0.91284906130E-02 0.  0.
         14    1    1    2    0    0 -0.17433652747E-01  0.41766706536E-02 -0.15367300098E-01  0.23612088814E-01  0.00000000000E+00 0. -1.
     999901    1    3    3    0    0 -0.15370213275E-01  0.11516380194E+00  0.56876244135E-01  0.88945705455E+00  0.88000000000E+00 0.  1.
        -11    1    4    4    0    0  0.17293552669E-01 -0.46245369194E-01 -0.16068922085E-01  0.51924681162E-01  0.51100000000E-03 0.  1.
         11    1    4    4    0    0  0.15510313353E-01 -0.73095103400E-01 -0.25440021952E-01  0.78936175479E-01  0.51100000000E-03 0. -1.
</event>
<event>
 8    1  0.1091347E+005  0.1043930E+01  0.7957747E-01            NaN
         13   -1    0    0    0    0  0.00000000000E+00  0.00000000000E+00  0.74505805969E-08  0.10566000000E+00  0.10566000000E+00 0.  1.
     999900   -1    0    0    0    0 -0.00000000000E+00 -0.00000000000E+00 -0.74505805969E-08  0.93827000000E+00  0.93827000000E+00 0.  1.
     999902    2    1    2    0    0  0.21549470055E-01  0.10590377746E-01  0.30332288330E-02  0.10197280117E+01  0.10194407691E+01 0.  0.
     999903    2    3    3    0    0  0.64118957970E-01  0.11226655154E+00  0.22148739174E-01  0.13264537274E+00  0.19728377930E-01 0.  0.
         14    1    1    2    0    0 -0.21549470055E-01 -0.10590377746E-01 -0.30332288330E-02  0.24201988299E-01  0.00000000000E+00 0.  1.
     999901    1    3    3    0    0 -0.42569487915E-01 -0.10167617379E+00 -0.19115510341E-01  0.88708263897E+00  0.88000000000E+00 0. -1.
        -11    1    4    4    0    0  0.21748961981E-01  0.57566614400E-01  0.12271046890E-01  0.62751670524E-01  0.51100000000E-03 0.  1.
         11    1    4    4    0    0  0.42369995990E-01  0.54699937138E-01  0.98776922839E-02  0.69893702212E-01  0.51100000000E-03 0. -1.
</event>
<event>
 8    1  0.1091347E+005  0.1043930E+01  0.7957747E-01            NaN
         13   -1    0    0    0    0  0.00000000000E+00  0.00000000000E+00  0.74505805969E-08  0.10566000000E+00  0.10566000000E+00 0.  1.
     999900   -1    0    0    0    0 -0.00000000000E+00 -0.00000000000E+00 -0.74505805969E-08  0.93827000000E+00  0.93827000000E+00 0. -1.
     999902    2    1    2    0    0  0.13652613860E-01 -0.78219966472E-02 -0.18317768611E-01  0.10197821607E+01  0.10194962173E+01 0.  0.
     999903    2    3    3    0    0 -0.38608287241E-01 -0.11238965311E+00 -0.52265553074E-01  0.13140270987E+00  0.20321174979E-01 0.  0.
         14    1    1    2    0    0 -0.13652613860E-01  0.78219966472E-02  0.18317768611E-01  0.24147839316E-01  0.00000000000E+00 0.  1.
     999901    1    3    3    0    0  0.52260901101E-01  0.10456765646E+00  0.33947784463E-01  0.88837945082E+00  0.88000000000E+00 0. -1.
        -11    1    4    4    0    0 -0.27483980209E-01 -0.96979521563E-01 -0.38381056610E-01  0.10785992489E+00  0.51100000000E-03 0. -1.
         11    1    4    4    0    0 -0.11124307032E-01 -0.15410131548E-01 -0.13884496464E-01  0.23542784974E-01  0.51100000000E-03 0.  1.
</event>
<event>
 8    1  0.1091347E+005  0.1043930E+01  0.7957747E-01            NaN
         13   -1    0    0    0    0  0.00000000000E+00  0.00000000000E+00  0.74505805969E-08  0.10566000000E+00  0.10566000000E+00 0.  1.
     999900   -1    0    0    0    0 -0.00000000000E+00 -0.00000000000E+00 -0.74505805969E-08  0.93827000000E+00  0.93827000000E+00 0. -1.
     999902    2    1    2    0    0 -0.19041729096E-01 -0.73646786113E-02 -0.10414543060E-01  0.10210108236E+01  0.10207535517E+01 0.  0.
     999903    2    3    3    0    0 -0.10749114953E+00  0.75374058609E-01  0.18543080198E-02  0.13263054284E+00  0.18757038602E-01 0.  0.
         14    1    1    2    0    0  0.19041729096E-01  0.73646786113E-02  0.10414543060E-01  0.22919176363E-01  0.00000000000E+00 0. -1.
     999901    1    3    3    0    0  0.88449420430E-01 -0.82738737220E-01 -0.12268851079E-01  0.88838028080E+00  0.88000000000E+00 0. -1.
        -11    1    4    4    0    0 -0.62094524028E-01  0.34776069986E-01  0.69704942489E-02  0.71511914176E-01  0.51100000000E-03 0.  1.
         11    1    4    4    0    0 -0.45396625497E-01  0.40597988623E-01 -0.51161862290E-02  0.61118628660E-01  0.51100000000E-03 0. -1.
</event>
<event>
 8    1  0.1091347E+005  0.1043930E+01  0.7957747E-01            NaN
         13   -1    0    0    0    0  0.00000000000E+00  0.00000000000E+00  0.74505805969E-08  0.10566000000E+00  0.10566000000E+00 0. -1.
     999900   -1    0    0    0    0 -0.00000000000E+00 -0.00000000000E+00 -0.74505805969E-08  0.93827000000E+00  0.93827000000E+00 0. -1.
     999902    2    1    2    0    0  0.15205842975E-01 -0.17235181491E-01 -0.13431730635E-01  0.10173089457E+01  0.10169605747E+01 0.  0.
     999903    2    3    3    0    0 -0.10640694367E+00 -0.13061809131E-01  0.62477943199E-01  0.12569839988E+00  0.20088450098E-01 0.  0.
         14    1    1    2    0    0 -0.15205842975E-01  0.17235181491E-01  0.13431730635E-01  0.26621054252E-01  0.00000000000E+00 0. -1.
     999901    1    3    3    0    0  0.12161278665E+00 -0.41733723606E-02 -0.75909673833E-01  0.89161054586E+00  0.88000000000E+00 0. -1.
        -11    1    4    4    0    0 -0.12499061862E-01 -0.79337956421E-02  0.59157449576E-02  0.15950825061E-01  0.51100000000E-03 0. -1.
         11    1    4    4    0    0 -0.93907881812E-01 -0.51280134885E-02  0.56562198241E-01  0.10974757482E+00  0.51100000000E-03 0.  1.
</event>
<event>
 8    1  0.1091347E+005  0.1043930E+01  0.7957747E-01            NaN
         13   -1    0    0    0    0  0.00000000000E+00  0.00000000000E+00  0.74505805969E-08  0.10566000000E+00  0.10566000000E+00 0. -1.
     999900   -1    0    0    0    0 -0.00000000000E+00 -0.00000000000E+00 -0.74505805969E-08  0.93827000000E+00  0.93827000000E+00 0. -1.
     999902    2    1    2    0    0  0.15791721327E-01 -0.16899298118E-01  0.10661702340E-01  0.10184616542E+01  0.10181431650E+01 0.  0.
     999903    2    3    3    0    0  0.48410906738E-01  0.11645927077E+00  0.55578979405E-02  0.12780202903E+00  0.19902028927E-01 0.  0.
         14    1    1    2    0    0 -0.15791721327E-01  0.16899298118E-01 -0.10661702340E-01  0.25468345767E-01  0.00000000000E+00 0. -1.
     999901    1    3    3    0    0 -0.32619185412E-01 -0.13335856888E+00  0.51038043992E-02  0.89065962521E+00  0.88000000000E+00 0. -1.
        -11    1    4    4    0    0  0.31558468384E-01  0.95511080483E-01  0.72975584252E-02  0.10085543566E+00  0.51100000000E-03 0.  1.
         11    1    4    4    0    0  0.16852438354E-01  0.20948190283E-01 -0.17396604847E-02  0.26946593370E-01  0.51100000000E-03 0. -1.
</event>
<event>
 8    1  0.1091347E+005  0.1043930E+01  0.7957747E-01            NaN
         13   -1    0    0    0    0  0.00000000000E+00  0.00000000000E+00  0.74505805969E-08  0.10566000000E+00  0.10566000000E+00 0. -1.
     999900   -1    0    0    0    0 -0.00000000000E+00 -0.00000000000E+00 -0.74505805969E-08  0.93827000000E+00  0.93827000000E+00 0. -1.
     999902    2    1    2    0    0 -0.54922393250E-02  0.23302112266E-01 -0.10963388261E-02  0.10199642935E+01  0.10196826982E+01 0.  0.
     999903    2    3    3    0    0 -0.10141601867E+00 -0.49861633621E-01  0.60210070873E-01  0.12962010106E+00  0.20117818343E-01 0.  0.
         14    1    1    2    0    0  0.54922393250E-02 -0.23302112266E-01  0.10963388261E-02  0.23965706493E-01  0.00000000000E+00 0.  1.
     999901    1    3    3    0    0  0.95923779341E-01  0.73163745888E-01 -0.61306409699E-01  0.89034419245E+00  0.88000000000E+00 0. -1.
        -11    1    4    4    0    0 -0.42432398474E-01 -0.10045856428E-01  0.21941002013E-01  0.48816967972E-01  0.51100000000E-03 0.  1.
         11    1    4    4    0    0 -0.58983620191E-01 -0.39815777193E-01  0.38269068860E-01  0.80803133088E-01  0.51100000000E-03 0. -1.
</event>
<event>
 8    1  0.1091347E+005  0.1043930E+01  0.7957747E-01            NaN
         13   -1    0    0    0    0  0.00000000000E+00  0.00000000000E+00  0.74505805969E-08  0.10566000000E+00  0.10566000000E+00 0.  1.
     999900   -1    0    0    0    0 -0.00000000000E+00 -0.00000000000E+00 -0.74505805969E-08  0.93827000000E+00  0.93827000000E+00 0.  1.
     999902    2    1    2    0    0  0.63767367542E-02  0.15827592686E-01  0.16196055766E-01  0.10204036810E+01  0.10201324348E+01 0.  0.
     999903    2    3    3    0    0  0.94231393973E-01  0.57677197526E-01 -0.69626745960E-01  0.13088955325E+00  0.88304401553E-02 0.  0.
         14    1    1    2    0    0 -0.63767367542E-02 -0.15827592686E-01 -0.16196055766E-01  0.23526318969E-01  0.00000000000E+00 0. -1.
     999901    1    3    3    0    0 -0.87854657218E-01 -0.41849604840E-01  0.85822801726E-01  0.88951412778E+00  0.88000000000E+00 0. -1.
        -11    1    4    4    0    0  0.72616356849E-01  0.48411839789E-01 -0.53480167856E-01  0.10235834596E+00  0.51100000000E-03 0. -1.
         11    1    4    4    0    0  0.21615037123E-01  0.92653577373E-02 -0.16146578105E-01  0.28531207289E-01  0.51100000000E-03 0.  1.
</event>
<event>
 8    1  0.1091347E+005  0.1043930E+01  0.7957747E-01            NaN
         13   -1    0    0    0    0  0.00000000000E+00  0.00000000000E+00  0.74505805969E-08  0.10566000000E+00  0.10566000000E+00 0.  1.
     999900   -1    0    0    0    0 -0.00000000000E+00 -0.00000000000E+00 -0.74505805969E-08  0.93827000000E+00  0.93827000000E+00 0. -1.
     999902    2    1    2    0    0 -0.14786520060E-01  0.10133546013E-01 -0.13952516811E-01  0.10212143082E+01  0.10209616352E+01 0.  0.
     999903    2    3    3    0    0 -0.11799355754E+00 -0.55816045083E-01  0.94691738063E-02  0.13242320968E+00  0.20207194232E-01 0.  0.
         14    1    1    2    0    0  0.14786520060E-01 -0.10133546013E-01  0.13952516811E-01  0.22715691837E-01  0.00000000000E+00 0. -1.
     999901    1    3    3    0    0  0.10320703748E+00  0.65949591097E-01 -0.23421690617E-01  0.88879109848E+00  0.88000000000E+00 0. -1.
        -11    1    4    4    0    0 -0.33474711422E-01 -0.14631542115E-01 -0.63416235146E-02  0.37082551682E-01  0.51100000000E-03 0. -1.
         11    1    4    4    0    0 -0.84518846122E-01 -0.41184502968E-01  0.15810797321E-01  0.95340657998E-01  0.51100000000E-03 0.  1.
</event>
<event>
 8    1  0.1091347E+005  0.1043930E+01  0.7957747E-01            NaN
         13   -1    0    0    0    0  0.00000000000E+00  0.00000000000E+00  0.74505805969E-08  0.10566000000E+00  0.10566000000E+00 0.  1.
     999900   -1    0    0    0    0 -0.00000000000E+00 -0.00000000000E+00 -0.74505805969E-08  0.93827000000E+00  0.93827000000E+00 0. -1.
     999902    2    1    2    0    0 -0.11945594053E-01  0.19430479105E-01 -0.59303417146E-02  0.10203628685E+01  0.10200906693E+01 0.  0.
     999903    2    3    3    0    0 -0.14203052918E-01 -0.28337422834E-01 -0.12531549790E+00  0.13101497024E+00  0.21359123766E-01 0.  0.
         14    1    1    2    0    0  0.11945594053E-01 -0.19430479105E-01  0.59303417146E-02  0.23567131527E-01  0.00000000000E+00 0. -1.
     999901    1    3    3    0    0  0.22574588648E-02  0.47767901939E-01  0.11938515618E+00  0.88934789823E+00  0.88000000000E+00 0.  1.
        -11    1    4    4    0    0 -0.44990428129E-02 -0.25916290053E-01 -0.69596476534E-01  0.74403132617E-01  0.51100000000E-03 0. -1.
         11    1    4    4    0    0 -0.97040101052E-02 -0.24211327817E-02 -0.55719021365E-01  0.56611837622E-01  0.51100000000E-03 0.  1.
</event>
<event>
 8    1  0.1091347E+005  0.1043930E+01  0.7957747E-01            NaN
         13   -1    0    0    0    0  0.00000000000E+00  0.00000000000E+00  0.74505805969E-08  0.10566000000E+00  0.10566000000E+00 0. -1.
     999900   -1    0    0    0    0 -0.00000000000E+00 -0.00000000000E+00 -0.74505805969E-08  0.93827000000E+00  0.93827000000E+00 0.  1.
     999902    2    1    2    0    0 -0.11982569004E-01  0.15916662467E-01 -0.12304090043E-01  0.10205139214E+01  0.10202452407E+01 0.  0.
     999903    2    3    3    0    0 -0.10723621051E+00 -0.22255633681E-03  0.72885386855E-01  0.13113718597E+00  0.19622118914E-01 0.  0.
         14    1    1    2    0    0  0.11982569004E-01 -0.15916662467E-01  0.12304090043E-01  0.23416078574E-01  0.00000000000E+00 0. -1.
     999901    1    3    3    0    0  0.95253641504E-01  0.16139218804E-01 -0.85189476897E-01  0.88937673546E+00  0.88000000000E+00 0.  1.
        -11    1    4    4    0    0 -0.92690893330E-01 -0.70071614490E-02  0.61856932763E-01  0.11165681023E+00  0.51100000000E-03 0.  1.
         11    1    4    4    0    0 -0.14545317177E-01  0.67846051122E-02  0.11028454092E-01  0.19480375740E-01  0.51100000000E-03 0. -1.
</event>
<event>
 8    1  0.1091347E+005  0.1043930E+01  0.7957747E-01            NaN
         13   -1    0    0    0    0  0.00000000000E+00  0.00000000000E+00  0.74505805969E-08  0.10566000000E+00  0.10566000000E+00 0.  1.
     999900   -1    0    0    0    0 -0.00000000000E+00 -0.00000000000E+00 -0.74505805969E-08  0.93827000000E+00  0.93827000000E+00 0.  1.
     999902    2    1    2    0    0 -0.12020880928E-01  0.20895384315E-01  0.12846924878E-02  0.10197893890E+01  0.10195036188E+01 0.  0.
     999903    2    3    3    0    0  0.71823971283E-01 -0.15881419961E-01  0.10412755626E+00  0.12908228384E+00  0.20218448945E-01 0.  0.
         14    1    1    2    0    0  0.12020880928E-01 -0.20895384315E-01 -0.12846924878E-02  0.24140610985E-01  0.00000000000E+00 0.  1.
     999901    1    3    3    0    0 -0.83844852211E-01  0.36776804276E-01 -0.10284286378E+00  0.89070710517E+00  0.88000000000E+00 0.  1.
        -11    1    4    4    0    0  0.11299897488E-01  0.23443773595E-02  0.26958421793E-01  0.29329190494E-01  0.51100000000E-03 0.  1.
         11    1    4    4    0    0  0.60524073795E-01 -0.18225797320E-01  0.77169134470E-01  0.99753093348E-01  0.51100000000E-03 0. -1.
</event>
<event>
 8    1  0.1091347E+005  0.1043930E+01  0.7957747E-01            NaN
         13   -1    0    0    0    0  0.00000000000E+00  0.00000000000E+00  0.74505805969E-08  0.10566000000E+00  0.10566000000E+00 0. -1.
     999900   -1    0    0    0    0 -0.00000000000E+00 -0.00000000000E+00 -0.74505805969E-08  0.93827000000E+00  0.93827000000E+00 0.  1.
     999902    2    1    2    0    0  0.22292926852E-01  0.13785309365E-01 -0.57474599274E-03  0.10177128363E+01  0.10173750918E+01 0.  0.
     999903    2    3    3    0    0  0.64418300667E-01 -0.10896230460E+00  0.17696944501E-02  0.12819216744E+00  0.20189073483E-01 0.  0.
         14    1    1    2    0    0 -0.22292926852E-01 -0.13785309365E-01  0.57474599274E-03  0.26217163746E-01  0.00000000000E+00 0.  1.
     999901    1    3    3    0    0 -0.42125373815E-01  0.12274761397E+00 -0.23444404429E-02  0.88952066882E+00  0.88000000000E+00 0.  1.
        -11    1    4    4    0    0  0.18324769489E-01 -0.18836959553E-01  0.56619133308E-02  0.26887666422E-01  0.51100000000E-03 0. -1.
         11    1    4    4    0    0  0.46093531178E-01 -0.90125345050E-01 -0.38922188807E-02  0.10130450101E+00  0.51100000000E-03 0.  1.
</event>
<event>
 8    1  0.1091347E+005  0.1043930E+01  0.7957747E-01            NaN
         13   -1    0    0    0    0  0.00000000000E+00  0.00000000000E+00  0.74505805969E-08  0.10566000000E+00  0.10566000000E+00 0. -1.
     999900   -1    0    0    0    0 -0.00000000000E+00 -0.00000000000E+00 -0.74505805969E-08  0.93827000000E+00  0.93827000000E+00 0. -1.
     999902    2    1    2    0    0 -0.19844518231E-01  0.12667099000E-01 -0.85003340150E-02  0.10188996988E+01  0.10185922051E+01 0.  0.
     999903    2    3    3    0    0  0.11673439311E+00  0.29321730641E-01  0.36991346479E-01  0.12704731818E+00  0.16910911272E-01 0.  0.
         14    1    1    2    0    0  0.19844518231E-01 -0.12667099000E-01  0.85003340150E-02  0.25030301222E-01  0.00000000000E+00 0. -1.
     999901    1    3    3    0    0 -0.13657891134E+00 -0.16654631641E-01 -0.45491680494E-01  0.89185238059E+00  0.88000000000E+00 0. -1.
        -11    1    4    4    0    0  0.51582832386E-01  0.44284631098E-02  0.14604331568E-01  0.53795422705E-01  0.51100000000E-03 0. -1.
         11    1    4    4    0    0  0.65151560727E-01  0.24893267531E-01  0.22387014911E-01  0.73251895478E-01  0.51100000000E-03 0.  1.
</event>
<event>
 8    1  0.1091347E+005  0.1043930E+01  0.7957747E-01            NaN
         13   -1    0    0    0    0  0.00000000000E+00  0.00000000000E+00  0.74505805969E-08  0.10566000000E+00  0.10566000000E+00 0.  1.
     999900   -1    0    0    0    0 -0.00000000000E+00 -0.00000000000E+00 -0.74505805969E-08  0.93827000000E+00  0.93827000000E+00 0. -1.
     999902    2    1    2    0    0 -0.16699882977E-01 -0.11647917974E-01  0.12887001935E-01  0.10198336330E+01  0.10195489219E+01 0.  0.
     999903    2    3    3    0    0 -0.93214104233E-01 -0.31891072446E-01  0.87321800468E-01  0.13315175621E+00  0.19959549502E-01 0.  0.
         14    1    1    2    0    0  0.16699882977E-01  0.11647917974E-01 -0.12887001935E-01  0.24096367017E-01  0.00000000000E+00 0. -1.
     999901    1    3    3    0    0  0.76514221256E-01  0.20243154472E-01 -0.74434798533E-01  0.88668187677E+00  0.88000000000E+00 0. -1.
        -11    1    4    4    0    0 -0.82470338812E-01 -0.32006547264E-01  0.70210910848E-01  0.11294073213E+00  0.51100000000E-03 0. -1.
         11    1    4    4    0    0 -0.10743765421E-01  0.11547481752E-03  0.17110889620E-01  0.20211024082E-01  0.51100000000E-03 0.  1.
</event>
<event>
 8    1  0.1091347E+005  0.1043930E+01  0.7957747E-01            NaN
         13   -1    0    0    0    0  0.00000000000E+00  0.00000000000E+00  0.74505805969E-08  0.10566000000E+00  0.10566000000E+00 0.  1.
     999900   -1    0    0    0    0 -0.00000000000E+00 -0.00000000000E+00 -0.74505805969E-08  0.93827000000E+00  0.93827000000E+00 0.  1.
     999902    2    1    2    0    0  0.61270235586E-02 -0.18902311949E-01  0.11732770737E-01  0.10208541311E+01  0.10205932889E+01 0.  0.
     999903    2    3    3    0    0  0.90700631142E-02  0.12669043605E+00 -0.99769902713E-03  0.12879585131E+00  0.21322365691E-01 0.  0.
         14    1    1    2    0    0 -0.61270235586E-02  0.18902311949E-01 -0.11732770737E-01  0.23075868865E-01  0.00000000000E+00 0. -1.
     999901    1    3    3    0    0 -0.29430395556E-02 -0.14559274800E+00  0.12730469765E-01  0.89205827983E+00  0.88000000000E+00 0.  1.
        -11    1    4    4    0    0  0.15863692473E-03  0.77185297457E-01 -0.95324688644E-02  0.77773545585E-01  0.51100000000E-03 0. -1.
         11    1    4    4    0    0  0.89114261895E-02  0.49505138593E-01  0.85347698373E-02  0.51022305720E-01  0.51100000000E-03 0.  1.
</event>
<event>
 8    1  0.1091347E+005  0.1043930E+01  0.7957747E-01            NaN
         13   -1    0    0    0    0  0.00000000000E+00  0.00000000000E+00  0.74505805969E-08  0.10566000000E+00  0.10566000000E+00 0.  1.
     999900   -1    0    0    0    0 -0.00000000000E+00 -0.00000000000E+00 -0.74505805969E-08  0.93827000000E+00  0.93827000000E+00 0.  1.
     999902    2    1    2    0    0  0.97678641643E-02 -0.11169306638E-01 -0.17522848072E-01  0.10209688418E+01  0.10207106158E+01 0.  0.
     999903    2    3    3    0    0  0.75306915109E-03 -0.47907142699E-01  0.11875940129E+00  0.12967551937E+00  0.20403026612E-01 0.  0.
         14    1    1    2    0    0 -0.97678641643E-02  0.11169306638E-01  0.17522848072E-01  0.22961158195E-01  0.00000000000E+00 0.  1.
     999901    1    3    3    0    0  0.90147950132E-02  0.36737836061E-01 -0.13628224936E+00  0.89129332244E+00  0.88000000000E+00 0.  1.
        -11    1    4    4    0    0  0.22301268676E-02 -0.31484681294E-01  0.99128324589E-01  0.10403338156E+00  0.51100000000E-03 0. -1.
         11    1    4    4    0    0 -0.14770577165E-02 -0.16422461405E-01  0.19631076699E-01  0.25642137810E-01  0.51100000000E-03 0.  1.
</event>
<event>
 8    1  0.1091347E+005  0.1043930E+01  0.7957747E-01            NaN
         13   -1    0    0    0    0  0.00000000000E+00  0.00000000000E+00  0.74505805969E-08  0.10566000000E+00  0.10566000000E+00 0.  1.
     999900   -1    0    0    0    0 -0.00000000000E+00 -0.00000000000E+00 -0.74505805969E-08  0.93827000000E+00  0.93827000000E+00 0.  1.
     999902    2    1    2    0    0  0.63657225342E-02  0.22986275669E-01  0.18428421534E-02  0.10200074717E+01  0.10197269022E+01 0.  0.
     999903    2    3    3    0    0  0.75971455488E-01  0.85874070055E-01  0.64093881322E-01  0.13283498306E+00  0.19775973926E-01 0.  0.
         14    1    1    2    0    0 -0.63657225342E-02 -0.22986275669E-01 -0.18428421534E-02  0.23922528289E-01  0.00000000000E+00 0. -1.
     999901    1    3    3    0    0 -0.69605732954E-01 -0.62887794386E-01 -0.62251039169E-01  0.88717248865E+00  0.88000000000E+00 0.  1.
        -11    1    4    4    0    0  0.54933427076E-01  0.57431826642E-01  0.53849468956E-01  0.96000638277E-01  0.51100000000E-03 0. -1.
         11    1    4    4    0    0  0.21038028412E-01  0.28442243413E-01  0.10244412366E-01  0.36834344782E-01  0.51100000000E-03 0.  1.
</event>
<event>
 8    1  0.1091347E+005  0.1043930E+01  0.7957747E-01            NaN
         13   -1    0    0    0    0  0.00000000000E+00  0.00000000000E+00  0.74505805969E-08  0.10566000000E+00  0.10566000000E+00 0.  1.
     999900   -1    0    0    0    0 -0.00000000000E+00 -0.00000000000E+00 -0.74505805969E-08  0.93827000000E+00  0.93827000000E+00 0. -1.
     999902    2    1    2    0    0  0.68553806582E-02  0.18660051764E-01  0.11298763297E-01  0.10210639591E+01  0.10208078922E+01 0.  0.
     999903    2    3    3    0    0 -0.59533918483E-01  0.80795846179E-01 -0.82299278396E-01  0.13144101119E+00  0.20768052093E-01 0.  0.
         14    1    1    2    0    0 -0.68553806582E-02 -0.18660051764E-01 -0.11298763297E-01  0.22866040931E-01  0.00000000000E+00 0. -1.
     999901    1    3    3    0    0  0.66389299142E-01 -0.62135794415E-01  0.93598041693E-01  0.88962294788E+00  0.88000000000E+00 0.  1.
        -11    1    4    4    0    0 -0.24974057174E-01  0.22311446517E-01 -0.18585170153E-01  0.38303705409E-01  0.51100000000E-03 0.  1.
         11    1    4    4    0    0 -0.34559861309E-01  0.58484399662E-01 -0.63714108244E-01  0.93137305779E-01  0.51100000000E-03 0. -1.
</event>
<event>
 8    1  0.1091347E+005  0.1043930E+01  0.7957747E-01            NaN
         13   -1    0    0    0    0  0.00000000000E+00  0.00000000000E+00  0.74505805969E-08  0.10566000000E+00  0.10566000000E+00 0. -1.
     999900   -1    0    0    0    0 -0.00000000000E+00 -0.00000000000E+00 -0.74505805969E-08  0.93827000000E+00  0.93827000000E+00 0.  1.
     999902    2    1    2    0    0 -0.21436866973E-01  0.80512926773E-02  0.71067424533E-02  0.10199535873E+01  0.10196717373E+01 0.  0.
     999903    2    3    3    0    0 -0.22954816311E-01 -0.53446498956E-01 -0.11314752168E+00  0.12964725201E+00  0.24951882668E-01 0.  0.
         14    1    1    2    0    0  0.21436866973E-01 -0.80512926773E-02 -0.71067424533E-02  0.23976412736E-01  0.00000000000E+00 0.  1.
     999901    1    3    3    0    0  0.15179493381E-02  0.61497791634E-01  0.12025426414E+00  0.89030633525E+00  0.88000000000E+00 0. -1.
        -11    1    4    4    0    0 -0.35643330244E-02 -0.26439400501E-01 -0.71738757948E-01  0.76540557103E-01  0.51100000000E-03 0. -1.
         11    1    4    4    0    0 -0.19390483287E-01 -0.27007098455E-01 -0.41408763736E-01  0.53106694909E-01  0.51100000000E-03 0.  1.
</event>
<event>
 8    1  0.1091347E+005  0.1043930E+01  0.7957747E-01            NaN
         13   -1    0    0    0    0  0.00000000000E+00  0.00000000000E+00  0.74505805969E-08  0.10566000000E+00  0.10566000000E+00 0.  1.
     999900   -1    0    0    0    0 -0.00000000000E+00 -0.00000000000E+00 -0.74505805969E-08  0.93827000000E+00  0.93827000000E+00 0. -1.
     999902    2    1    2    0    0  0.98529939329E-02 -0.18439962601E-01 -0.11586434255E-01  0.10200268795E+01  0.10197467704E+01 0.  0.
     999903    2    3    3    0    0 -0.60151434750E-01 -0.91001138280E-01 -0.71421171876E-01  0.13225104065E+00  0.22134852363E-01 0.  0.
         14    1    1    2    0    0 -0.98529939329E-02  0.18439962601E-01  0.11586434255E-01  0.23903120485E-01  0.00000000000E+00 0. -1.
     999901    1    3    3    0    0  0.70004428683E-01  0.72561175679E-01  0.59834737621E-01  0.88777583887E+00  0.88000000000E+00 0.  1.
        -11    1    4    4    0    0 -0.32510511584E-01 -0.67106909368E-01 -0.51593666705E-01  0.90677661050E-01  0.51100000000E-03 0. -1.
         11    1    4    4    0    0 -0.27640923167E-01 -0.23894228912E-01 -0.19827505171E-01  0.41573379597E-01  0.51100000000E-03 0.  1.
</event>
<event>
 8    1  0.1091347E+005  0.1043930E+01  0.7957747E-01            NaN
         13   -1    0    0    0    0  0.00000000000E+00  0.00000000000E+00  0.74505805969E-08  0.10566000000E+00  0.10566000000E+00 0. -1.
     999900   -1    0    0    0    0 -0.00000000000E+00 -0.00000000000E+00 -0.74505805969E-08  0.93827000000E+00  0.93827000000E+00 0. -1.
     999902    2    1    2    0    0 -0.13402037132E-01  0.19232454840E-01  0.29266114053E-02  0.10203065588E+01  0.10200330421E+01 0.  0.
     999903    2    3    3    0    0  0.58273543811E-01  0.18860547438E-01  0.11354631438E+00  0.13048958557E+00  0.19576523521E-01 0.  0.
         14    1    1    2    0    0  0.13402037132E-01 -0.19232454840E-01 -0.29266114053E-02  0.23623441171E-01  0.00000000000E+00 0. -1.
     999901    1    3    3    0    0 -0.71675580943E-01  0.37190740191E-03 -0.11061970298E+00  0.88981697326E+00  0.88000000000E+00 0. -1.
        -11    1    4    4    0    0  0.31291171253E-01  0.18214228493E-01  0.76648348532E-01  0.84771020825E-01  0.51100000000E-03 0. -1.
         11    1    4    4    0    0  0.26982372558E-01  0.64631894501E-03  0.36897965852E-01  0.45718564742E-01  0.51100000000E-03 0.  1.
</event>
<event>
 8    1  0.1091347E+005  0.1043930E+01  0.7957747E-01            NaN
         13   -1    0    0    0    0  0.00000000000E+00  0.00000000000E+00  0.74505805969E-08  0.10566000000E+00  0.10566000000E+00 0.  1.
     999900   -1    0    0    0    0 -0.00000000000E+00 -0.00000000000E+00 -0.74505805969E-08  0.93827000000E+00  0.93827000000E+00 0.  1.
     999902    2    1    2    0    0 -0.19099806650E-01 -0.14334849643E-01 -0.85239662754E-03  0.10200340357E+01  0.10197540963E+01 0.  0.
     999903    2    3    3    0    0 -0.12320692402E+00  0.26734509816E-01 -0.34462429940E-01  0.13230963114E+00  0.20579097925E-01 0.  0.
         14    1    1    2    0    0  0.19099806650E-01  0.14334849643E-01  0.85239662754E-03  0.23895964270E-01  0.00000000000E+00 0. -1.
     999901    1    3    3    0    0  0.10410711737E+00 -0.41069359459E-01  0.33610033313E-01  0.88772440459E+00  0.88000000000E+00 0. -1.
        -11    1    4    4    0    0 -0.21189738572E-01  0.20880297253E-02 -0.13694393270E-01  0.25321185140E-01  0.51100000000E-03 0.  1.
         11    1    4    4    0    0 -0.10201718545E+00  0.24646480090E-01 -0.20768036670E-01  0.10698844600E+00  0.51100000000E-03 0. -1.
</event>
<event>
 8    1  0.1091347E+005  0.1043930E+01  0.7957747E-01            NaN
         13   -1    0    0    0    0  0.00000000000E+00  0.00000000000E+00  0.74505805969E-08  0.10566000000E+00  0.10566000000E+00 0.  1.
     999900   -1    0    0    0    0 -0.00000000000E+00 -0.00000000000E+00 -0.74505805969E-08  0.93827000000E+00  0.93827000000E+00 0.  1.
     999902    2    1    2    0    0  0.17835148109E-01  0.11247290519E-01 -0.11252611583E-01  0.10200298887E+01  0.10197498510E+01 0.  0.
     999903    2    3    3    0    0 -0.63129857440E-01  0.10364490178E+00  0.42468596368E-01  0.12987337502E+00  0.18326682621E-01 0.  0.
         14    1    1    2    0    0 -0.17835148109E-01 -0.11247290519E-01  0.11252611583E-01  0.23900111287E-01  0.00000000000E+00 0.  1.
     999901    1    3    3    0    0  0.80965005549E-01 -0.92397611260E-01 -0.53721207951E-01  0.89015651370E+00  0.88000000000E+00 0.  1.
        -11    1    4    4    0    0 -0.41323703262E-01  0.64542621053E-01  0.17518501709E-01  0.78616521208E-01  0.51100000000E-03 0. -1.
         11    1    4    4    0    0 -0.21806154178E-01  0.39102280726E-01  0.24950094659E-01  0.51256853810E-01  0.51100000000E-03 0.  1.
</event>
<event>
 8    1  0.1091347E+005  0.1043930E+01  0.7957747E-01            NaN
         13   -1    0    0    0    0  0.00000000000E+00  0.00000000000E+00  0.74505805969E-08  0.10566000000E+00  0.10566000000E+00 0.  1.
     999900   -1    0    0    0    0 -0.00000000000E+00 -0.00000000000E+00 -0.74505805969E-08  0.93827000000E+00  0.93827000000E+00 0.  1.
     999902    2    1    2    0    0  0.14497762209E-01 -0.20741175097E-02 -0.15024109636E-01  0.10229487955E+01  0.10227336052E+01 0.  0.
     999903    2    3    3    0    0  0.46712800003E-01 -0.41366010434E-01 -0.11860280513E+00  0.13541839732E+00  0.19449535840E-01 0.  0.
         14    1    1    2    0    0 -0.14497762209E-01  0.20741175097E-02  0.15024109636E-01  0.20981204515E-01  0.00000000000E+00 0.  1.
     999901    1    3    3    0    0 -0.32215037794E-01  0.39291892924E-01  0.10357869549E+00  0.88753039817E+00  0.88000000000E+00 0. -1.
        -11    1    4    4    0    0  0.71666976847E-02 -0.12560816727E-01 -0.42954540358E-01  0.45326474945E-01  0.51100000000E-03 0. -1.
         11    1    4    4    0    0  0.39546102318E-01 -0.28805193707E-01 -0.75648264772E-01  0.90091922374E-01  0.51100000000E-03 0.  1.
</event>
<event>
 8    1  0.1091347E+005  0.1043930E+01  0.7957747E-01            NaN
         13   -1    0    0    0    0  0.00000000000E+00  0.00000000000E+00  0.74505805969E-08  0.10566000000E+00  0.10566000000E+00 0. -1.
     999900   -1    0    0    0    0 -0.00000000000E+00 -0.00000000000E+00 -0.74505805969E-08  0.93827000000E+00  0.93827000000E+00 0. -1.
     999902    2    1    2    0    0 -0.84603567936E-02 -0.21338153081E-01  0.95482864170E-02  0.10190691032E+01  0.10187658087E+01 0.  0.
     999903    2    3    3    0    0  0.57644572266E-02 -0.12703741496E+00 -0.28445383198E-01  0.13181592730E+00  0.19863662751E-01 0.  0.
         14    1    1    2    0    0  0.84603567936E-02  0.21338153081E-01 -0.95482864170E-02  0.24860896755E-01  0.00000000000E+00 0.  1.
     999901    1    3    3    0    0 -0.14224814020E-01  0.10569926188E+00  0.37993669615E-01  0.88725317595E+00  0.88000000000E+00 0.  1.
        -11    1    4    4    0    0 -0.42941139245E-02 -0.58755178354E-01 -0.20312142447E-01  0.62317370368E-01  0.51100000000E-03 0.  1.
         11    1    4    4    0    0  0.10058571151E-01 -0.68282236605E-01 -0.81332407502E-02  0.69498556931E-01  0.51100000000E-03 0. -1.
</event>
<event>
 8    1  0.1091347E+005  0.1043930E+01  0.7957747E-01            NaN
         13   -1    0    0    0    0  0.00000000000E+00  0.00000000000E+00  0.74505805969E-08  0.10566000000E+00  0.10566000000E+00 0.  1.
     999900   -1    0    0    0    0 -0.00000000000E+00 -0.00000000000E+00 -0.74505805969E-08  0.93827000000E+00  0.93827000000E+00 0. -1.
     999902    2    1    2    0    0 -0.12550769198E-01  0.19974439043E-01  0.68614752512E-04  0.10203396475E+01  0.10200669054E+01 0.  0.
     999903    2    3    3    0    0  0.60124616665E-01 -0.59438177009E-01 -0.94893217962E-01  0.12870865603E+00  0.20330492041E-01 0.  0.
         14    1    1    2    0    0  0.12550769198E-01 -0.19974439043E-01 -0.68614752512E-04  0.23590352488E-01  0.00000000000E+00 0.  1.
     999901    1    3    3    0    0 -0.72675385862E-01  0.79412616052E-01  0.94961832714E-01  0.89163099148E+00  0.88000000000E+00 0. -1.
        -11    1    4    4    0    0  0.52066005243E-01 -0.44345815357E-01 -0.65525364380E-01  0.94716707818E-01  0.51100000000E-03 0.  1.
         11    1    4    4    0    0  0.80586114219E-02 -0.15092361652E-01 -0.29367853582E-01  0.33991948213E-01  0.51100000000E-03 0. -1.
</event>
<event>
 8    1  0.1091347E+005  0.1043930E+01  0.7957747E-01            NaN
         13   -1    0    0    0    0  0.00000000000E+00  0.00000000000E+00  0.74505805969E-08  0.10566000000E+00  0.10566000000E+00 0.  1.
     999900   -1    0    0    0    0 -0.00000000000E+00 -0.00000000000E+00 -0.74505805969E-08  0.93827000000E+00  0.93827000000E+00 0.  1.
     999902    2    1    2    0    0 -0.54546507859E-02  0.16058303451E-01  0.16603847845E-01  0.10201958455E+01  0.10199197288E+01 0.  0.
     999903    2    3    3    0    0  0.18588035276E-01  0.12517154171E+00  0.35647298215E-01  0.13292677557E+00  0.19630789182E-01 0.  0.
         14    1    1    2    0    0  0.54546507859E-02 -0.16058303451E-01 -0.16603847845E-01  0.23734154465E-01  0.00000000000E+00 0. -1.
     999901    1    3    3    0    0 -0.24042686062E-01 -0.10911323826E+00 -0.19043450369E-01  0.88726906997E+00  0.88000000000E+00 0.  1.
        -11    1    4    4    0    0  0.72440192697E-02  0.93161449891E-01  0.31979204443E-01  0.98764680928E-01  0.51100000000E-03 0. -1.
         11    1    4    4    0    0  0.11344016007E-01  0.32010091817E-01  0.36680937718E-02  0.34162094641E-01  0.51100000000E-03 0.  1.
</event>
<event>
 8    1  0.1091347E+005  0.1043930E+01  0.7957747E-01            NaN
         13   -1    0    0    0    0  0.00000000000E+00  0.00000000000E+00  0.74505805969E-08  0.10566000000E+00  0.10566000000E+00 0.  1.
     999900   -1    0    0    0    0 -0.00000000000E+00 -0.00000000000E+00 -0.74505805969E-08  0.93827000000E+00  0.93827000000E+00 0.  1.
     999902    2    1    2    0    0  0.83545302864E-03  0.23332353241E-01  0.63704312139E-02  0.10197291925E+01  0.10194419782E+01 0.  0.
     999903    2    3    3    0    0  0.82810008941E-01 -0.88451723778E-01 -0.35497561333E-01  0.12789488251E+00  0.20391642661E-01 0.  0.
         14    1    1    2    0    0 -0.83545302864E-03 -0.23332353241E-01 -0.63704312139E-02  0.24200807495E-01  0.00000000000E+00 0. -1.
     999901    1    3    3    0    0 -0.81974555913E-01  0.11178407702E+00  0.41867992547E-01  0.89183431000E+00  0.88000000000E+00 0.  1.
        -11    1    4    4    0    0  0.17787112099E-02 -0.92966729715E-02 -0.42364585143E-02  0.10382708878E-01  0.51100000000E-03 0.  1.
         11    1    4    4    0    0  0.81031297731E-01 -0.79155050807E-01 -0.31261102819E-01  0.11751217363E+00  0.51100000000E-03 0. -1.
</event>
<event>
 8    1  0.1091347E+005  0.1043930E+01  0.7957747E-01            NaN
         13   -1    0    0    0    0  0.00000000000E+00  0.00000000000E+00  0.74505805969E-08  0.10566000000E+00  0.10566000000E+00 0. -1.
     999900   -1    0    0    0    0 -0.00000000000E+00 -0.00000000000E+00 -0.74505805969E-08  0.93827000000E+00  0.93827000000E+00 0.  1.
     999902    2    1    2    0    0 -0.91815166334E-02 -0.19231724575E-01 -0.62638812738E-02  0.10217174881E+01  0.10214760055E+01 0.  0.
     999903    2    3    3    0    0  0.43012690648E-01 -0.10809487536E+00 -0.63055595314E-01  0.13388518767E+00  0.20362753805E-01 0.  0.
         14    1    1    2    0    0  0.91815166334E-02  0.19231724575E-01  0.62638812738E-02  0.22212511934E-01  0.00000000000E+00 0. -1.
     999901    1    3    3    0    0 -0.52194207282E-01  0.88863150780E-01  0.56791714040E-01  0.88783230039E+00  0.88000000000E+00 0.  1.
        -11    1    4    4    0    0  0.27980987640E-01 -0.48225410420E-01 -0.36781714633E-01  0.66796568264E-01  0.51100000000E-03 0. -1.
         11    1    4    4    0    0  0.15031703008E-01 -0.59869464935E-01 -0.26273880681E-01  0.67088619407E-01  0.51100000000E-03 0.  1.
</event>
<event>
 8    1  0.1091347E+005  0.1043930E+01  0.7957747E-01            NaN
         13   -1    0    0    0    0  0.00000000000E+00  0.00000000000E+00  0.74505805969E-08  0.10566000000E+00  0.10566000000E+00 0. -1.
     999900   -1    0    0    0    0 -0.00000000000E+00 -0.00000000000E+00 -0.74505805969E-08  0.93827000000E+00  0.93827000000E+00 0.  1.
     999902    2    1    2    0    0  0.32392472983E-02 -0.16241161174E-01  0.16973153394E-01  0.10202159540E+01  0.10199403105E+01 0.  0.
     999903    2    3    3    0    0 -0.43300654347E-01  0.73379729647E-01 -0.92446244821E-01  0.12770798701E+00  0.22438591197E-01 0.  0.
         14    1    1    2    0    0 -0.32392472983E-02  0.16241161174E-01 -0.16973153394E-01  0.23714045953E-01  0.00000000000E+00 0. -1.
     999901    1    3    3    0    0  0.46539901645E-01 -0.89620890821E-01  0.10941939822E+00  0.89250796704E+00  0.88000000000E+00 0. -1.
        -11    1    4    4    0    0 -0.27978729773E-01  0.56890598853E-01 -0.54597883884E-01  0.83669227337E-01  0.51100000000E-03 0.  1.
         11    1    4    4    0    0 -0.15321924574E-01  0.16489130794E-01 -0.37848360937E-01  0.44038759674E-01  0.51100000000E-03 0. -1.
</event>
<event>
 8    1  0.1091347E+005  0.1043930E+01  0.7957747E-01            NaN
         13   -1    0    0    0    0  0.00000000000E+00  0.00000000000E+00  0.74505805969E-08  0.10566000000E+00  0.10566000000E+00 0. -1.
     999900   -1    0    0    0    0 -0.00000000000E+00 -0.00000000000E+00 -0.74505805969E-08  0.93827000000E+00  0.93827000000E+00 0. -1.
     999902    2    1    2    0    0 -0.12810084293E-01  0.18063028505E-01 -0.94898287717E-02  0.10198379244E+01  0.10195533159E+01 0.  0.
     999903    2    3    3    0    0 -0.73268419617E-01 -0.22759371313E-01 -0.10516991276E+00  0.13165080607E+00  0.19620751572E-01 0.  0.
         14    1    1    2    0    0  0.12810084293E-01 -0.18063028505E-01  0.94898287717E-02  0.24092075637E-01  0.00000000000E+00 0. -1.
     999901    1    3    3    0    0  0.60458335324E-01  0.40822399818E-01  0.95680083988E-01  0.88818711830E+00  0.88000000000E+00 0.  1.
        -11    1    4    4    0    0 -0.33570471008E-01 -0.20480757666E-01 -0.55540941680E-01  0.68055090052E-01  0.51100000000E-03 0. -1.
         11    1    4    4    0    0 -0.39697948609E-01 -0.22786136466E-02 -0.49628971080E-01  0.63595716014E-01  0.51100000000E-03 0.  1.
</event>
<event>
 8    1  0.1091347E+005  0.1043930E+01  0.7957747E-01            NaN
         13   -1    0    0    0    0  0.00000000000E+00  0.00000000000E+00  0.74505805969E-08  0.10566000000E+00  0.10566000000E+00 0.  1.
     999900   -1    0    0    0    0 -0.00000000000E+00 -0.00000000000E+00 -0.74505805969E-08  0.93827000000E+00  0.93827000000E+00 0.  1.
     999902    2    1    2    0    0  0.19697623863E-01  0.12863155220E-01  0.45506294465E-02  0.10199682518E+01  0.10196867506E+01 0.  0.
     999903    2    3    3    0    0  0.91991073562E-03 -0.89041661056E-01 -0.90779320560E-01  0.12877523486E+00  0.20320246855E-01 0.  0.
         14    1    1    2    0    0 -0.19697623863E-01 -0.12863155220E-01 -0.45506294465E-02  0.23961748192E-01  0.00000000000E+00 0.  1.
     999901    1    3    3    0    0  0.18777713127E-01  0.10190481628E+00  0.95329950006E-01  0.89119301695E+00  0.88000000000E+00 0. -1.
        -11    1    4    4    0    0 -0.65780102117E-02 -0.11612296483E-01 -0.16347208369E-01  0.21109428945E-01  0.51100000000E-03 0. -1.
         11    1    4    4    0    0  0.74979209474E-02 -0.77429364574E-01 -0.74432112191E-01  0.10766580591E+00  0.51100000000E-03 0.  1.
</event>
<event>
 8    1  0.1091347E+005  0.1043930E+01  0.7957747E-01            NaN
         13   -1    0    0    0    0  0.00000000000E+00  0.00000000000E+00  0.74505805969E-08  0.10566000000E+00  0.10566000000E+00 0. -1.
     999900   -1    0    0    0    0 -0.00000000000E+00 -0.00000000000E+00 -0.74505805969E-08  0.93827000000E+00  0.93827000000E+00 0.  1.
     999902    2    1    2    0    0 -0.82302883122E-02 -0.18239375255E-01 -0.12464273175E-01  0.10203552134E+01  0.10200828354E+01 0.  0.
     999903    2    3    3    0    0  0.11669686642E-01  0.56318231302E-02  0.12677554137E+00  0.12886569075E+00  0.19142344317E-01 0.  0.
         14    1    1    2    0    0  0.82302883122E-02  0.18239375255E-01  0.12464273175E-01  0.23574786557E-01  0.00000000000E+00 0. -1.
     999901    1    3    3    0    0 -0.19899974954E-01 -0.23871198386E-01 -0.13923981454E+00  0.89148952269E+00  0.88000000000E+00 0.  1.
        -11    1    4    4    0    0  0.93880920453E-02 -0.58961168926E-03  0.22686222971E-01  0.24564400010E-01  0.51100000000E-03 0. -1.
         11    1    4    4    0    0  0.22815945970E-02  0.62214348194E-02  0.10408931840E+00  0.10430129074E+00  0.51100000000E-03 0.  1.
</event>
<event>
 8    1  0.1091347E+005  0.1043930E+01  0.7957747E-01            NaN
         13   -1    0    0    0    0  0.00000000000E+00  0.00000000000E+00  0.74505805969E-08  0.10566000000E+00  0.10566000000E+00 0. -1.
     999900   -1    0    0    0    0 -0.00000000000E+00 -0.00000000000E+00 -0.74505805969E-08  0.93827000000E+00  0.93827000000E+00 0. -1.
     999902    2    1    2    0    0 -0.15168717243E-01 -0.28266808832E-02 -0.18959101775E-01  0.10194856213E+01  0.10191925257E+01 0.  0.
     999903    2    3    3    0    0 -0.12090173887E+00 -0.37549814143E-01  0.28362162808E-01  0.13121512768E+00  0.19641243540E-01 0.  0.
         14    1    1    2    0    0  0.15168717243E-01  0.28266808832E-02  0.18959101775E-01  0.24444378653E-01  0.00000000000E+00 0. -1.
     999901    1    3    3    0    0  0.10573302163E+00  0.34723133260E-01 -0.47321264583E-01  0.88827049367E+00  0.88000000000E+00 0.  1.
        -11    1    4    4    0    0 -0.10151855449E+00 -0.23749188327E-01  0.24548996047E-01  0.10711188160E+00  0.51100000000E-03 0.  1.
         11    1    4    4    0    0 -0.19383184378E-01 -0.13800625816E-01  0.38131667608E-02  0.24103246074E-01  0.51100000000E-03 0. -1.
</event>
<event>
 8    1  0.1091347E+005  0.1043930E+01  0.7957747E-01            NaN
         13   -1    0    0    0    0  0.00000000000E+00  0.00000000000E+00  0.74505805969E-08  0.10566000000E+00  0.10566000000E+00 0. -1.
     999900   -1    0    0    0    0 -0.00000000000E+00 -0.00000000000E+00 -0.74505805969E-08  0.93827000000E+00  0.93827000000E+00 0. -1.
     999902    2    1    2    0    0 -0.70428237100E-02  0.14641589614E-01 -0.15733421316E-01  0.10213132350E+01  0.10210627826E+01 0.  0.
     999903    2    3    3    0    0 -0.62479713924E-01 -0.71615772820E-01  0.85610932198E-01  0.12958218847E+00  0.20731094739E-01 0.  0.
         14    1    1    2    0    0  0.70428237100E-02 -0.14641589614E-01  0.15733421316E-01  0.22616764989E-01  0.00000000000E+00 0. -1.
     999901    1    3    3    0    0  0.55436890214E-01  0.86257362435E-01 -0.10134435351E+00  0.89173104654E+00  0.88000000000E+00 0. -1.
        -11    1    4    4    0    0 -0.42243499204E-01 -0.34960144018E-01  0.41566782566E-01  0.68809762597E-01  0.51100000000E-03 0.  1.
         11    1    4    4    0    0 -0.20236214719E-01 -0.36655628803E-01  0.44044149631E-01  0.60772425876E-01  0.51100000000E-03 0. -1.
</event>
<event>
 7    1  0.1091347E+005  0.1043930E+01  0.7957747E-01            NaN
         13   -1    0    0    0    0  0.00000000000E+00  0.00000000000E+00  0.74505805969E-08  0.10566000000E+00  0.10566000000E+00 0.  1.
     999900   -1    0    0    0    0 -0.00000000000E+00 -0.00000000000E+00 -0.74505805969E-08  0.93827000000E+00  0.93827000000E+00 0.  1.
     999903    2    1    2    0    0 -0.94771529499E-01  0.65668821380E-01  0.78781442931E-02  0.11725528928E+00  0.19816679873E-01 0.  0.
         14    1    1    2    0    0  0.39238182027E-01  0.13071110893E-01 -0.17269355165E-02  0.41394095896E-01  0.00000000000E+00 0. -1.
     999901    1    1    2    0    0  0.55533347472E-01 -0.78739932273E-01 -0.61512087766E-02  0.88528061483E+00  0.88000000000E+00 0.  1.
        -11    1    3    3    0    0 -0.45197204148E-01  0.39532577605E-01  0.11314646895E-01  0.61105599663E-01  0.51100000000E-03 0. -1.
         11    1    3    3    0    0 -0.49574325352E-01  0.26136243775E-01 -0.34365026020E-02  0.56149689615E-01  0.51100000000E-03 0.  1.
</event>
<event>
 8    1  0.1091347E+005  0.1043930E+01  0.7957747E-01            NaN
         13   -1    0    0    0    0  0.00000000000E+00  0.00000000000E+00  0.74505805969E-08  0.10566000000E+00  0.10566000000E+00 0. -1.
     999900   -1    0    0    0    0 -0.00000000000E+00 -0.00000000000E+00 -0.74505805969E-08  0.93827000000E+00  0.93827000000E+00 0.  1.
     999902    2    1    2    0    0 -0.21325618924E-01  0.94516961971E-02  0.79411275654E-03  0.10205901800E+01  0.10203232666E+01 0.  0.
     999903    2    3    3    0    0  0.51210592177E-01  0.25919657211E-01  0.11513857635E+00  0.13008057755E+00  0.19227883716E-01 0.  0.
         14    1    1    2    0    0  0.21325618924E-01 -0.94516961971E-02 -0.79411275654E-03  0.23339820020E-01  0.00000000000E+00 0. -1.
     999901    1    3    3    0    0 -0.72536211101E-01 -0.16467961014E-01 -0.11434446359E+00  0.89050960243E+00  0.88000000000E+00 0.  1.
        -11    1    4    4    0    0  0.30072031594E-01  0.23199583813E-01  0.60565673262E-01  0.71491325851E-01  0.51100000000E-03 0.  1.
         11    1    4    4    0    0  0.21138560584E-01  0.27200733977E-02  0.54572903085E-01  0.58589251702E-01  0.51100000000E-03 0. -1.
</event>
<event>
 8    1  0.1091347E+005  0.1043930E+01  0.7957747E-01            NaN
         13   -1    0    0    0    0  0.00000000000E+00  0.00000000000E+00  0.74505805969E-08  0.10566000000E+00  0.10566000000E+00 0.  1.
     999900   -1    0    0    0    0 -0.00000000000E+00 -0.00000000000E+00 -0.74505805969E-08  0.93827000000E+00  0.93827000000E+00 0.  1.
     999902    2    1    2    0    0 -0.57946634282E-02 -0.21756362990E-01  0.59145820841E-02  0.10206512600E+01  0.10203857578E+01 0.  0.
     999903    2    3    3    0    0  0.14428284354E-01  0.12022218898E+00  0.40323807248E-01  0.12837839164E+00  0.13908698574E-01 0.  0.
         14    1    1    2    0    0  0.57946634282E-02  0.21756362990E-01 -0.59145820841E-02  0.23278740001E-01  0.00000000000E+00 0. -1.
     999901    1    3    3    0    0 -0.20222947782E-01 -0.14197855197E+00 -0.34409225164E-01  0.89227286836E+00  0.88000000000E+00 0.  1.
        -11    1    4    4    0    0  0.15778745748E-02  0.49675519200E-01  0.22066343697E-01  0.54381352881E-01  0.51100000000E-03 0. -1.
         11    1    4    4    0    0  0.12850409779E-01  0.70546669780E-01  0.18257463551E-01  0.73997038757E-01  0.51100000000E-03 0.  1.
</event>
<event>
 8    1  0.1091347E+005  0.1043930E+01  0.7957747E-01            NaN
         13   -1    0    0    0    0  0.00000000000E+00  0.00000000000E+00  0.74505805969E-08  0.10566000000E+00  0.10566000000E+00 0. -1.
     999900   -1    0    0    0    0 -0.00000000000E+00 -0.00000000000E+00 -0.74505805969E-08  0.93827000000E+00  0.93827000000E+00 0.  1.
     999902    2    1    2    0    0  0.58796333281E-02  0.19723912756E-01  0.11161447614E-01  0.10205167402E+01  0.10202481248E+01 0.  0.
     999903    2    3    3    0    0 -0.53528464031E-01 -0.11430202078E+00 -0.95201286997E-02  0.12814910266E+00  0.20032754374E-01 0.  0.
         14    1    1    2    0    0 -0.58796333281E-02 -0.19723912756E-01 -0.11161447614E-01  0.23413259818E-01  0.00000000000E+00 0.  1.
     999901    1    3    3    0    0  0.59408097359E-01  0.13402593353E+00  0.20681576314E-01  0.89236763752E+00  0.88000000000E+00 0.  1.
        -11    1    4    4    0    0 -0.17184801951E-01 -0.58522299446E-01 -0.77614631555E-03  0.61000331759E-01  0.51100000000E-03 0.  1.
         11    1    4    4    0    0 -0.36343662080E-01 -0.55779721330E-01 -0.87439823842E-02  0.67148770905E-01  0.51100000000E-03 0. -1.
</event>
<event>
 8    1  0.1091347E+005  0.1043930E+01  0.7957747E-01            NaN
         13   -1    0    0    0    0  0.00000000000E+00  0.00000000000E+00  0.74505805969E-08  0.10566000000E+00  0.10566000000E+00 0.  1.
     999900   -1    0    0    0    0 -0.00000000000E+00 -0.00000000000E+00 -0.74505805969E-08  0.93827000000E+00  0.93827000000E+00 0.  1.
     999902    2    1    2    0    0 -0.11353028701E-01  0.16653854912E-01 -0.11065638000E-01  0.10209367295E+01  0.10206777724E+01 0.  0.
     999903    2    3    3    0    0 -0.87452819214E-01  0.52302230676E-01  0.81343340737E-01  0.13211649786E+00  0.21319263660E-01 0.  0.
         14    1    1    2    0    0  0.11353028701E-01 -0.16653854912E-01  0.11065638000E-01  0.22993270504E-01  0.00000000000E+00 0.  1.
     999901    1    3    3    0    0  0.76099790513E-01 -0.35648375764E-01 -0.92408978738E-01  0.88882023163E+00  0.88000000000E+00 0. -1.
        -11    1    4    4    0    0 -0.28599304949E-01  0.29196083740E-01  0.31365841658E-01  0.51520953924E-01  0.51100000000E-03 0.  1.
         11    1    4    4    0    0 -0.58853514264E-01  0.23106146936E-01  0.49977499079E-01  0.80595543938E-01  0.51100000000E-03 0. -1.
</event>
<event>
 8    1  0.1091347E+005  0.1043930E+01  0.7957747E-01            NaN
         13   -1    0    0    0    0  0.00000000000E+00  0.00000000000E+00  0.74505805969E-08  0.10566000000E+00  0.10566000000E+00 0.  1.
     999900   -1    0    0    0    0 -0.00000000000E+00 -0.00000000000E+00 -0.74505805969E-08  0.93827000000E+00  0.93827000000E+00 0.  1.
     999902    2    1    2    0    0  0.23139964040E-01  0.18680610257E-02  0.26395742695E-02  0.10205651773E+01  0.10202976851E+01 0.  0.
     999903    2    3    3    0    0  0.12458474179E+00 -0.43632024561E-01  0.80425361039E-03  0.13356761860E+00  0.20360512287E-01 0.  0.
         14    1    1    2    0    0 -0.23139964040E-01 -0.18680610257E-02 -0.26395742695E-02  0.23364822706E-01  0.00000000000E+00 0.  1.
     999901    1    3    3    0    0 -0.10144477775E+00  0.45500085586E-01  0.18353206591E-02  0.88699755869E+00  0.88000000000E+00 0.  1.
        -11    1    4    4    0    0  0.27786820349E-01 -0.18520061261E-01 -0.26713693246E-02  0.33503692174E-01  0.51100000000E-03 0. -1.
         11    1    4    4    0    0  0.96797921444E-01 -0.25111963299E-01  0.34756229350E-02  0.10006392643E+00  0.51100000000E-03 0.  1.
</event>
<event>
 8    1  0.1091347E+005  0.1043930E+01  0.7957747E-01            NaN
         13   -1    0    0    0    0  0.00000000000E+00  0.00000000000E+00  0.74505805969E-08  0.10566000000E+00  0.10566000000E+00 0. -1.
     999900   -1    0    0    0    0 -0.00000000000E+00 -0.00000000000E+00 -0.74505805969E-08  0.93827000000E+00  0.93827000000E+00 0. -1.
     999902    2    1    2    0    0 -0.10254276298E-01  0.22097167939E-01  0.77329903471E-02  0.10183715542E+01  0.10180507788E+01 0.  0.
     999903    2    3    3    0    0  0.11360594512E+00  0.34828665336E-01  0.45338133276E-01  0.12881121769E+00  0.20431269596E-01 0.  0.
         14    1    1    2    0    0  0.10254276298E-01 -0.22097167939E-01 -0.77329903471E-02  0.25558445826E-01  0.00000000000E+00 0.  1.
     999901    1    3    3    0    0 -0.12386022142E+00 -0.12731497397E-01 -0.37605142929E-01  0.88956033649E+00  0.88000000000E+00 0.  1.
        -11    1    4    4    0    0  0.93061948479E-01  0.23853712617E-01  0.28990679583E-01  0.10035061776E+00  0.51100000000E-03 0. -1.
         11    1    4    4    0    0  0.20543996641E-01  0.10974952719E-01  0.16347453693E-01  0.28460599930E-01  0.51100000000E-03 0.  1.
</event>
<event>
 8    1  0.1091347E+005  0.1043930E+01  0.7957747E-01            NaN
         13   -1    0    0    0    0  0.00000000000E+00  0.00000000000E+00  0.74505805969E-08  0.10566000000E+00  0.10566000000E+00 0.  1.
     999900   -1    0    0    0    0 -0.00000000000E+00 -0.00000000000E+00 -0.74505805969E-08  0.93827000000E+00  0.93827000000E+00 0.  1.
     999902    2    1    2    0    0 -0.89808810222E-02 -0.11952816382E-01  0.15762211255E-01  0.10222050524E+01  0.10219741659E+01 0.  0.
     999903    2    3    3    0    0 -0.45558684614E-01 -0.12488730456E+00 -0.15064548710E-02  0.13406635765E+00  0.17294110610E-01 0.  0.
         14    1    1    2    0    0  0.89808810222E-02  0.11952816382E-01 -0.15762211255E-01  0.21724947573E-01  0.00000000000E+00 0. -1.
     999901    1    3    3    0    0  0.36577803591E-01  0.11293448818E+00  0.17268666126E-01  0.88813869478E+00  0.88000000000E+00 0.  1.
        -11    1    4    4    0    0 -0.15262186677E-01 -0.58310673623E-01  0.57955845361E-02  0.60555089973E-01  0.51100000000E-03 0.  1.
         11    1    4    4    0    0 -0.30296497937E-01 -0.66576630940E-01 -0.73020394071E-02  0.73511267674E-01  0.51100000000E-03 0. -1.
</event>
<event>
 8    1  0.1091347E+005  0.1043930E+01  0.7957747E-01            NaN
         13   -1    0    0    0    0  0.00000000000E+00  0.00000000000E+00  0.74505805969E-08  0.10566000000E+00  0.10566000000E+00 0. -1.
     999900   -1    0    0    0    0 -0.00000000000E+00 -0.00000000000E+00 -0.74505805969E-08  0.93827000000E+00  0.93827000000E+00 0.  1.
     999902    2    1    2    0    0 -0.12347140771E-01 -0.51887487022E-02 -0.20253917031E-01  0.10196483989E+01  0.10193592405E+01 0.  0.
     999903    2    3    3    0    0 -0.11162759859E+00  0.52699758857E-01 -0.40874531942E-01  0.13193622797E+00  0.22326117838E-01 0.  0.
         14    1    1    2    0    0  0.12347140771E-01  0.51887487022E-02  0.20253917031E-01  0.24281601129E-01  0.00000000000E+00 0. -1.
     999901    1    3    3    0    0  0.99280457820E-01 -0.57888507559E-01  0.20620614912E-01  0.88771217090E+00  0.88000000000E+00 0.  1.
        -11    1    4    4    0    0 -0.56359615923E-01  0.18210046473E-01 -0.10910670052E-01  0.60227202670E-01  0.51100000000E-03 0.  1.
         11    1    4    4    0    0 -0.55267982668E-01  0.34489712384E-01 -0.29963861890E-01  0.71709025296E-01  0.51100000000E-03 0. -1.
</event>
<event>
 8    1  0.1091347E+005  0.1043930E+01  0.7957747E-01            NaN
         13   -1    0    0    0    0  0.00000000000E+00  0.00000000000E+00  0.74505805969E-08  0.10566000000E+00  0.10566000000E+00 0.  1.
     999900   -1    0    0    0    0 -0.00000000000E+00 -0.00000000000E+00 -0.74505805969E-08  0.93827000000E+00  0.93827000000E+00 0. -1.
     999902    2    1    2    0    0 -0.18128123021E-01  0.13999043903E-01 -0.54248973883E-03  0.10210193830E+01  0.10207623054E+01 0.  0.
     999903    2    3    3    0    0 -0.10107651937E+00  0.63092186139E-01 -0.57791810245E-01  0.13390718170E+00  0.19853293383E-01 0.  0.
         14    1    1    2    0    0  0.18128123021E-01 -0.13999043903E-01  0.54248973883E-03  0.22910616962E-01  0.00000000000E+00 0.  1.
     999901    1    3    3    0    0  0.82948396351E-01 -0.49093142236E-01  0.57249320506E-01  0.88711220134E+00  0.88000000000E+00 0.  1.
        -11    1    4    4    0    0 -0.23997176508E-01  0.15538650351E-01 -0.48570246878E-02  0.29002860978E-01  0.51100000000E-03 0.  1.
         11    1    4    4    0    0 -0.77079342864E-01  0.47553535788E-01 -0.52934785557E-01  0.10490432072E+00  0.51100000000E-03 0. -1.
</event>
<event>
 8    1  0.1091347E+005  0.1043930E+01  0.7957747E-01            NaN
         13   -1    0    0    0    0  0.00000000000E+00  0.00000000000E+00  0.74505805969E-08  0.10566000000E+00  0.10566000000E+00 0. -1.
     999900   -1    0    0    0    0 -0.00000000000E+00 -0.00000000000E+00 -0.74505805969E-08  0.93827000000E+00  0.93827000000E+00 0. -1.
     999902    2    1    2    0    0  0.22107622225E-01  0.13010004662E-01  0.53812498557E-02  0.10177199822E+01  0.10173824243E+01 0.  0.
     999903    2    3    3    0    0  0.40976603293E-01  0.10800133222E+00 -0.56778182765E-01  0.13022734236E+00  0.19799719189E-01 0.  0.
         14    1    1    2    0    0 -0.22107622225E-01 -0.13010004662E-01 -0.53812498557E-02  0.26210017775E-01  0.00000000000E+00 0.  1.
     999901    1    3    3    0    0 -0.18868981068E-01 -0.94991327558E-01  0.62159432621E-01  0.88749263987E+00  0.88000000000E+00 0.  1.
        -11    1    4    4    0    0  0.29876227528E-01  0.51005175456E-01 -0.27580564088E-01  0.65230863332E-01  0.51100000000E-03 0.  1.
         11    1    4    4    0    0  0.11100375766E-01  0.56996156764E-01 -0.29197618677E-01  0.64996479024E-01  0.51100000000E-03 0. -1.
</event>
<event>
 8    1  0.1126116E+005  0.1043930E+01  0.7957747E-01            NaN
         13   -1    0    0    0    0  0.00000000000E+00  0.00000000000E+00  0.74505805969E-08  0.10566000000E+00  0.10566000000E+00 0. -1.
     999900   -1    0    0    0    0 -0.00000000000E+00 -0.00000000000E+00 -0.74505805969E-08  0.93827000000E+00  0.93827000000E+00 0.  1.
     999902    2    1    2    0    0 -0.59898193584E-03 -0.21192136432E-01 -0.84130950183E-02  0.10211211071E+01  0.10208663330E+01 0.  0.
     999903    2    3    3    0    0 -0.87761399670E-01 -0.81349220358E-01 -0.55258629603E-01  0.13353411651E+00  0.21402925095E-01 0.  0.
         14    1    1    2    0    0  0.59898193584E-03  0.21192136432E-01  0.84130950183E-02  0.22808892864E-01  0.00000000000E+00 0. -1.
     999901    1    3    3    0    0  0.87162417734E-01  0.60157083926E-01  0.46845534584E-01  0.88758699062E+00  0.88000000000E+00 0. -1.
        -11    1    4    4    0    0 -0.54707056104E-01 -0.62605533258E-01 -0.32704883203E-01  0.89343076332E-01  0.51100000000E-03 0.  1.
         11    1    4    4    0    0 -0.33054343566E-01 -0.18743687100E-01 -0.22553746400E-01  0.44191040182E-01  0.51100000000E-03 0. -1.
</event>
<event>
 8    1  0.1091347E+005  0.1043930E+01  0.7957747E-01            NaN
         13   -1    0    0    0    0  0.00000000000E+00  0.00000000000E+00  0.74505805969E-08  0.10566000000E+00  0.10566000000E+00 0.  1.
     999900   -1    0    0    0    0 -0.00000000000E+00 -0.00000000000E+00 -0.74505805969E-08  0.93827000000E+00  0.93827000000E+00 0. -1.
     999902    2    1    2    0    0 -0.78750668097E-02  0.21864973466E-01 -0.48946477703E-02  0.10201802354E+01  0.10199037510E+01 0.  0.
     999903    2    3    3    0    0  0.88376732400E-01 -0.87889143415E-01 -0.11005598904E-01  0.12813330908E+00  0.27605675668E-01 0.  0.
         14    1    1    2    0    0  0.78750668097E-02 -0.21864973466E-01  0.48946477703E-02  0.23749764604E-01  0.00000000000E+00 0.  1.
     999901    1    3    3    0    0 -0.96251799210E-01  0.10975411688E+00  0.61109511340E-02  0.89204692631E+00  0.88000000000E+00 0. -1.
        -11    1    4    4    0    0  0.17513377164E-01 -0.34597470943E-01  0.37798664111E-04  0.38780999537E-01  0.51100000000E-03 0. -1.
         11    1    4    4    0    0  0.70863355236E-01 -0.53291672472E-01 -0.11043397568E-01  0.89352309545E-01  0.51100000000E-03 0.  1.
</event>
<event>
 8    1  0.1091347E+005  0.1043930E+01  0.7957747E-01            NaN
         13   -1    0    0    0    0  0.00000000000E+00  0.00000000000E+00  0.74505805969E-08  0.10566000000E+00  0.10566000000E+00 0. -1.
     999900   -1    0    0    0    0 -0.00000000000E+00 -0.00000000000E+00 -0.74505805969E-08  0.93827000000E+00  0.93827000000E+00 0. -1.
     999902    2    1    2    0    0 -0.12385549030E-01 -0.19361850863E-01 -0.71233606862E-02  0.10198670542E+01  0.10195831417E+01 0.  0.
     999903    2    3    3    0    0 -0.69130879460E-01  0.74683989100E-01  0.78360834181E-01  0.12892811121E+00  0.11191997346E-01 0.  0.
         14    1    1    2    0    0  0.12385549030E-01  0.19361850863E-01  0.71233606862E-02  0.24062945811E-01  0.00000000000E+00 0.  1.
     999901    1    3    3    0    0  0.56745330430E-01 -0.94045839963E-01 -0.85484194867E-01  0.89093894298E+00  0.88000000000E+00 0. -1.
        -11    1    4    4    0    0 -0.50577894458E-01  0.59835768766E-01  0.63923982462E-01  0.10111863966E+00  0.51100000000E-03 0.  1.
         11    1    4    4    0    0 -0.18552985002E-01  0.14848220334E-01  0.14436851719E-01  0.27809471554E-01  0.51100000000E-03 0. -1.
</event>
<event>
 8    1  0.1091347E+005  0.1043930E+01  0.7957747E-01            NaN
         13   -1    0    0    0    0  0.00000000000E+00  0.00000000000E+00  0.74505805969E-08  0.10566000000E+00  0.10566000000E+00 0.  1.
     999900   -1    0    0    0    0 -0.00000000000E+00 -0.00000000000E+00 -0.74505805969E-08  0.93827000000E+00  0.93827000000E+00 0. -1.
     999902    2    1    2    0    0  0.20058585735E-01 -0.17137900398E-01  0.33489995304E-02  0.10173354462E+01  0.10169877776E+01 0.  0.
     999903    2    3    3    0    0 -0.78814324718E-01 -0.77462755200E-01  0.61251269638E-01  0.12785941317E+00  0.19599369360E-01 0.  0.
         14    1    1    2    0    0 -0.20058585735E-01  0.17137900398E-01 -0.33489995304E-02  0.26594553759E-01  0.00000000000E+00 0. -1.
     999901    1    3    3    0    0  0.98872910454E-01  0.60324854802E-01 -0.57902270108E-01  0.88947603307E+00  0.88000000000E+00 0. -1.
        -11    1    4    4    0    0 -0.39683261105E-01 -0.47112305480E-01  0.24976283639E-01  0.66471094507E-01  0.51100000000E-03 0. -1.
         11    1    4    4    0    0 -0.39131063613E-01 -0.30350449720E-01  0.36274986000E-01  0.61388318660E-01  0.51100000000E-03 0.  1.
</event>
<event>
 8    1  0.1091347E+005  0.1043930E+01  0.7957747E-01            NaN
         13   -1    0    0    0    0  0.00000000000E+00  0.00000000000E+00  0.74505805969E-08  0.10566000000E+00  0.10566000000E+00 0.  1.
     999900   -1    0    0    0    0 -0.00000000000E+00 -0.00000000000E+00 -0.74505805969E-08  0.93827000000E+00  0.93827000000E+00 0. -1.
     999902    2    1    2    0    0 -0.31271797069E-02  0.23126917646E-02 -0.21353626203E-01  0.10222250432E+01  0.10219945860E+01 0.  0.
     999903    2    3    3    0    0 -0.99022154066E-01  0.71699281594E-01 -0.51272217176E-01  0.13379639273E+00  0.18068217299E-01 0.  0.
         14    1    1    2    0    0  0.31271797069E-02 -0.23126917646E-02  0.21353626203E-01  0.21704956764E-01  0.00000000000E+00 0.  1.
     999901    1    3    3    0    0  0.95894974359E-01 -0.69386589829E-01  0.29918590973E-01  0.88842865051E+00  0.88000000000E+00 0.  1.
        -11    1    4    4    0    0 -0.74677049139E-01  0.44264038963E-01 -0.33718752619E-01  0.93129921145E-01  0.51100000000E-03 0. -1.
         11    1    4    4    0    0 -0.24345104927E-01  0.27435242631E-01 -0.17553464557E-01  0.40666471584E-01  0.51100000000E-03 0.  1.
</event>
<event>
 8    1  0.1091347E+005  0.1043930E+01  0.7957747E-01            NaN
         13   -1    0    0    0    0  0.00000000000E+00  0.00000000000E+00  0.74505805969E-08  0.10566000000E+00  0.10566000000E+00 0. -1.
     999900   -1    0    0    0    0 -0.00000000000E+00 -0.00000000000E+00 -0.74505805969E-08  0.93827000000E+00  0.93827000000E+00 0. -1.
     999902    2    1    2    0    0 -0.94872140382E-02  0.12190241098E-01 -0.17535057145E-01  0.10205614862E+01  0.10202939085E+01 0.  0.
     999903    2    3    3    0    0 -0.75025988193E-01  0.10195439790E+00 -0.37424178032E-01  0.13334758195E+00  0.18905299639E-01 0.  0.
         14    1    1    2    0    0  0.94872140382E-02 -0.12190241098E-01  0.17535057145E-01  0.23368513802E-01  0.00000000000E+00 0. -1.
     999901    1    3    3    0    0  0.65538774155E-01 -0.89764156802E-01  0.19889120887E-01  0.88721390425E+00  0.88000000000E+00 0. -1.
        -11    1    4    4    0    0 -0.31294401377E-01  0.33298925615E-01 -0.21053738380E-01  0.50315793002E-01  0.51100000000E-03 0. -1.
         11    1    4    4    0    0 -0.43731586816E-01  0.68655472285E-01 -0.16370439653E-01  0.83031788946E-01  0.51100000000E-03 0.  1.
</event>
<event>
 8    1  0.1091347E+005  0.1043930E+01  0.7957747E-01            NaN
         13   -1    0    0    0    0  0.00000000000E+00  0.00000000000E+00  0.74505805969E-08  0.10566000000E+00  0.10566000000E+00 0. -1.
     999900   -1    0    0    0    0 -0.00000000000E+00 -0.00000000000E+00 -0.74505805969E-08  0.93827000000E+00  0.93827000000E+00 0. -1.
     999902    2    1    2    0    0 -0.13936121447E-01 -0.14786469426E-01 -0.11941034430E-01  0.10203621519E+01  0.10200899361E+01 0.  0.
     999903    2    3    3    0    0 -0.69121038480E-01  0.83120374612E-01 -0.71874960560E-01  0.13119220155E+00  0.18938562633E-01 0.  0.
         14    1    1    2    0    0  0.13936121447E-01  0.14786469426E-01  0.11941034430E-01  0.23567848063E-01  0.00000000000E+00 0.  1.
     999901    1    3    3    0    0  0.55184917033E-01 -0.97906844038E-01  0.59933926130E-01  0.88916995039E+00  0.88000000000E+00 0. -1.
        -11    1    4    4    0    0 -0.39784191508E-01  0.41828795819E-01 -0.48525412947E-01  0.75414898238E-01  0.51100000000E-03 0. -1.
         11    1    4    4    0    0 -0.29336846972E-01  0.41291578793E-01 -0.23349547613E-01  0.55777303307E-01  0.51100000000E-03 0.  1.
</event>
<event>
 8    1  0.1091347E+005  0.1043930E+01  0.7957747E-01            NaN
         13   -1    0    0    0    0  0.00000000000E+00  0.00000000000E+00  0.74505805969E-08  0.10566000000E+00  0.10566000000E+00 0.  1.
     999900   -1    0    0    0    0 -0.00000000000E+00 -0.00000000000E+00 -0.74505805969E-08  0.93827000000E+00  0.93827000000E+00 0.  1.
     999902    2    1    2    0    0  0.25515690110E-01  0.20926785450E-02 -0.51799378736E-02  0.10178098641E+01  0.10174746473E+01 0.  0.
     999903    2    3    3    0    0 -0.12192564442E+00  0.15742972885E-01  0.11178062266E-01  0.12528935346E+00  0.21418894728E-01 0.  0.
         14    1    1    2    0    0 -0.25515690110E-01 -0.20926785450E-02  0.51799378736E-02  0.26120135943E-01  0.00000000000E+00 0.  1.
     999901    1    3    3    0    0  0.14744133453E+00 -0.13650294340E-01 -0.16358000139E-01  0.89252051060E+00  0.88000000000E+00 0. -1.
        -11    1    4    4    0    0 -0.11567861511E+00  0.97267423430E-02  0.99251215058E-02  0.11651146153E+00  0.51100000000E-03 0. -1.
         11    1    4    4    0    0 -0.62470293136E-02  0.60162305419E-02  0.12529407600E-02  0.87778919295E-02  0.51100000000E-03 0.  1.
</event>
<event>
 8    1  0.1091347E+005  0.1043930E+01  0.7957747E-01            NaN
         13   -1    0    0    0    0  0.00000000000E+00  0.00000000000E+00  0.74505805969E-08  0.10566000000E+00  0.10566000000E+00 0. -1.
     999900   -1    0    0    0    0 -0.00000000000E+00 -0.00000000000E+00 -0.74505805969E-08  0.93827000000E+00  0.93827000000E+00 0.  1.
     999902    2    1    2    0    0  0.56562756023E-02 -0.16420653275E-01 -0.15474813488E-01  0.10206684188E+01  0.10204033124E+01 0.  0.
     999903    2    3    3    0    0  0.37885467542E-01 -0.79326007713E-01  0.95040537137E-01  0.13094405296E+00  0.19639683213E-01 0.  0.
         14    1    1    2    0    0 -0.56562756023E-02  0.16420653275E-01  0.15474813488E-01  0.23261581205E-01  0.00000000000E+00 0. -1.
     999901    1    3    3    0    0 -0.32229191939E-01  0.62905354438E-01 -0.11051535062E+00  0.88972436583E+00  0.88000000000E+00 0.  1.
        -11    1    4    4    0    0  0.20634357125E-01 -0.23065322861E-01  0.27986890225E-01  0.41729042142E-01  0.51100000000E-03 0. -1.
         11    1    4    4    0    0  0.17251110416E-01 -0.56260684852E-01  0.67053646912E-01  0.89215010821E-01  0.51100000000E-03 0.  1.
</event>
<event>
 8    1  0.1091347E+005  0.1043930E+01  0.7957747E-01            NaN
         13   -1    0    0    0    0  0.00000000000E+00  0.00000000000E+00  0.74505805969E-08  0.10566000000E+00  0.10566000000E+00 0.  1.
     999900   -1    0    0    0    0 -0.00000000000E+00 -0.00000000000E+00 -0.74505805969E-08  0.93827000000E+00  0.93827000000E+00 0.  1.
     999902    2    1    2    0    0  0.18948278607E-01  0.11716129113E-02  0.14836589040E-01  0.10198357203E+01  0.10195510591E+01 0.  0.
     999903    2    3    3    0    0 -0.11594242326E+00  0.40230538723E-01 -0.28554553155E-01  0.12764521804E+00  0.20415617159E-01 0.  0.
         14    1    1    2    0    0 -0.18948278607E-01 -0.11716129113E-02 -0.14836589040E-01  0.24094279681E-01  0.00000000000E+00 0. -1.
     999901    1    3    3    0    0  0.13489070187E+00 -0.39058925811E-01  0.43391142195E-01  0.89219050228E+00  0.88000000000E+00 0. -1.
        -11    1    4    4    0    0 -0.60887639242E-01  0.25131046894E-01 -0.24958572314E-01  0.70441930577E-01  0.51100000000E-03 0.  1.
         11    1    4    4    0    0 -0.55054784023E-01  0.15099491829E-01 -0.35959808408E-02  0.57203287463E-01  0.51100000000E-03 0. -1.
</event>
<event>
 8    1  0.1091347E+005  0.1043930E+01  0.7957747E-01            NaN
         13   -1    0    0    0    0  0.00000000000E+00  0.00000000000E+00  0.74505805969E-08  0.10566000000E+00  0.10566000000E+00 0.  1.
     999900   -1    0    0    0    0 -0.00000000000E+00 -0.00000000000E+00 -0.74505805969E-08  0.93827000000E+00  0.93827000000E+00 0.  1.
     999902    2    1    2    0    0 -0.50536908714E-02 -0.13608601120E-01  0.19136164953E-01  0.10199107031E+01  0.10196278319E+01 0.  0.
     999903    2    3    3    0    0  0.31332380286E-01  0.12268289917E+00  0.89112941078E-02  0.12861733543E+00  0.20741166941E-01 0.  0.
         14    1    1    2    0    0  0.50536908714E-02  0.13608601120E-01 -0.19136164953E-01  0.24019296929E-01  0.00000000000E+00 0. -1.
     999901    1    3    3    0    0 -0.36386071158E-01 -0.13629150029E+00  0.10224870845E-01  0.89129336765E+00  0.88000000000E+00 0.  1.
        -11    1    4    4    0    0  0.28897839924E-01  0.10164143899E+00  0.10176392037E-03  0.10567089830E+00  0.51100000000E-03 0. -1.
         11    1    4    4    0    0  0.24345403622E-02  0.21041460184E-01  0.88095301874E-02  0.22946437121E-01  0.51100000000E-03 0.  1.
</event>
<event>
 8    1  0.1091347E+005  0.1043930E+01  0.7957747E-01            NaN
         13   -1    0    0    0    0  0.00000000000E+00  0.00000000000E+00  0.74505805969E-08  0.10566000000E+00  0.10566000000E+00 0.  1.
     999900   -1    0    0    0    0 -0.00000000000E+00 -0.00000000000E+00 -0.74505805969E-08  0.93827000000E+00  0.93827000000E+00 0. -1.
     999902    2    1    2    0    0 -0.51852971959E-02  0.22937047316E-01  0.61769930786E-02  0.10196164094E+01  0.10193264794E+01 0.  0.
     999903    2    3    3    0    0 -0.33931878051E-01  0.12327079406E+00  0.31212328431E-01  0.13309512102E+00  0.19825256085E-01 0.  0.
         14    1    1    2    0    0  0.51852971959E-02 -0.22937047316E-01 -0.61769930786E-02  0.24313590645E-01  0.00000000000E+00 0.  1.
     999901    1    3    3    0    0  0.28746580855E-01 -0.10033374674E+00 -0.25035335352E-01  0.88652128833E+00  0.88000000000E+00 0.  1.
        -11    1    4    4    0    0 -0.22688296155E-01  0.56628864399E-01  0.22154876834E-01  0.64905213613E-01  0.51100000000E-03 0.  1.
         11    1    4    4    0    0 -0.11243581896E-01  0.66641929659E-01  0.90574515968E-02  0.68189907412E-01  0.51100000000E-03 0. -1.
</event>
<event>
 8    1  0.1225012E+005  0.1043930E+01  0.7957747E-01            NaN
         13   -1    0    0    0    0  0.00000000000E+00  0.00000000000E+00  0.74505805969E-08  0.10566000000E+00  0.10566000000E+00 0.  1.
     999900   -1    0    0    0    0 -0.00000000000E+00 -0.00000000000E+00 -0.74505805969E-08  0.93827000000E+00  0.93827000000E+00 0.  1.
     999902    2    1    2    0    0  0.23104012060E-01  0.19111674361E-01  0.88871547055E-02  0.10126564810E+01  0.10121734612E+01 0.  0.
     999903    2    3    3    0    0 -0.38191034350E-01 -0.65261795519E-01  0.94133298124E-01  0.12240771237E+00  0.20122454428E-01 0.  0.
         14    1    1    2    0    0 -0.23104012060E-01 -0.19111674361E-01 -0.88871547055E-02  0.31273518972E-01  0.00000000000E+00 0.  1.
     999901    1    3    3    0    0  0.61295046411E-01  0.84373469879E-01 -0.85246143418E-01  0.89024876866E+00  0.88000000000E+00 0.  1.
        -11    1    4    4    0    0 -0.24316180684E-01 -0.23251714879E-01  0.46482674442E-01  0.57383090124E-01  0.51100000000E-03 0.  1.
         11    1    4    4    0    0 -0.13874853666E-01 -0.42010080640E-01  0.47650623682E-01  0.65024622243E-01  0.51100000000E-03 0. -1.
</event>
<event>
 8    1  0.1091347E+005  0.1043930E+01  0.7957747E-01            NaN
         13   -1    0    0    0    0  0.00000000000E+00  0.00000000000E+00  0.74505805969E-08  0.10566000000E+00  0.10566000000E+00 0. -1.
     999900   -1    0    0    0    0 -0.00000000000E+00 -0.00000000000E+00 -0.74505805969E-08  0.93827000000E+00  0.93827000000E+00 0. -1.
     999902    2    1    2    0    0 -0.17764979457E-01 -0.11577795123E-01  0.10048296439E-01  0.10204649601E+01  0.10201951415E+01 0.  0.
     999903    2    3    3    0    0  0.42745071438E-01  0.65544748602E-02  0.12181481774E+00  0.13114949261E+00  0.22163874148E-01 0.  0.
         14    1    1    2    0    0  0.17764979457E-01  0.11577795123E-01 -0.10048296439E-01  0.23465039875E-01  0.00000000000E+00 0.  1.
     999901    1    3    3    0    0 -0.60510050895E-01 -0.18132269983E-01 -0.11176652131E+00  0.88931546751E+00  0.88000000000E+00 0. -1.
        -11    1    4    4    0    0  0.26434906939E-01  0.15419442326E-02  0.42958233718E-01  0.50466353762E-01  0.51100000000E-03 0. -1.
         11    1    4    4    0    0  0.16310164499E-01  0.50125306276E-02  0.78856584026E-01  0.80683138849E-01  0.51100000000E-03 0.  1.
</event>
<event>
 8    1  0.1091347E+005  0.1043930E+01  0.7957747E-01            NaN
         13   -1    0    0    0    0  0.00000000000E+00  0.00000000000E+00  0.74505805969E-08  0.10566000000E+00  0.10566000000E+00 0.  1.
     999900   -1    0    0    0    0 -0.00000000000E+00 -0.00000000000E+00 -0.74505805969E-08  0.93827000000E+00  0.93827000000E+00 0.  1.
     999902    2    1    2    0    0 -0.83235035871E-03 -0.24890082147E-01  0.54335277689E-02  0.10184401546E+01  0.10181211206E+01 0.  0.
     999903    2    3    3    0    0 -0.74407704852E-01 -0.76012861562E-01  0.74184434026E-01  0.13122340626E+00  0.20044710864E-01 0.  0.
         14    1    1    2    0    0  0.83235035871E-03  0.24890082147E-01 -0.54335277689E-02  0.25489845437E-01  0.00000000000E+00 0.  1.
     999901    1    3    3    0    0  0.73575354494E-01  0.51122779415E-01 -0.68750906257E-01  0.88721674831E+00  0.88000000000E+00 0.  1.
        -11    1    4    4    0    0 -0.21280958128E-01 -0.24038099368E-01  0.33865976502E-01  0.46667707095E-01  0.51100000000E-03 0.  1.
         11    1    4    4    0    0 -0.53126746724E-01 -0.51974762194E-01  0.40318457524E-01  0.84555699161E-01  0.51100000000E-03 0. -1.
</event>
<event>
 8    1  0.1091347E+005  0.1043930E+01  0.7957747E-01            NaN
         13   -1    0    0    0    0  0.00000000000E+00  0.00000000000E+00  0.74505805969E-08  0.10566000000E+00  0.10566000000E+00 0.  1.
     999900   -1    0    0    0    0 -0.00000000000E+00 -0.00000000000E+00 -0.74505805969E-08  0.93827000000E+00  0.93827000000E+00 0.  1.
     999902    2    1    2    0    0 -0.14302979342E-01  0.19038801970E-01 -0.65681605948E-02  0.10192279367E+01  0.10189285524E+01 0.  0.
     999903    2    3    3    0    0  0.75585717465E-01 -0.27296107364E-01 -0.98336513580E-01  0.12869532513E+00  0.20835993959E-01 0.  0.
         14    1    1    2    0    0  0.14302979342E-01 -0.19038801970E-01  0.65681605948E-02  0.24702063317E-01  0.00000000000E+00 0. -1.
     999901    1    3    3    0    0 -0.89888696807E-01  0.46334909335E-01  0.91768352985E-01  0.89053261156E+00  0.88000000000E+00 0. -1.
        -11    1    4    4    0    0  0.43351748013E-01 -0.81005289018E-02 -0.64713839850E-01  0.78314333384E-01  0.51100000000E-03 0. -1.
         11    1    4    4    0    0  0.32233969451E-01 -0.19195578463E-01 -0.33622673730E-01  0.50380991742E-01  0.51100000000E-03 0.  1.
</event>
<event>
 8    1  0.1091347E+005  0.1043930E+01  0.7957747E-01            NaN
         13   -1    0    0    0    0  0.00000000000E+00  0.00000000000E+00  0.74505805969E-08  0.10566000000E+00  0.10566000000E+00 0. -1.
     999900   -1    0    0    0    0 -0.00000000000E+00 -0.00000000000E+00 -0.74505805969E-08  0.93827000000E+00  0.93827000000E+00 0. -1.
     999902    2    1    2    0    0 -0.93047468539E-02 -0.20416843626E-01  0.32781859109E-02  0.10212546319E+01  0.10210028652E+01 0.  0.
     999903    2    3    3    0    0 -0.12238875496E-01 -0.75044967840E-01 -0.10680401663E+00  0.13271035475E+00  0.20576759121E-01 0.  0.
         14    1    1    2    0    0  0.93047468539E-02  0.20416843626E-01 -0.32781859109E-02  0.22675368145E-01  0.00000000000E+00 0.  1.
     999901    1    3    3    0    0  0.29341286424E-02  0.54628124214E-01  0.11008220255E+00  0.88854427711E+00  0.88000000000E+00 0.  1.
        -11    1    4    4    0    0 -0.37174605525E-02 -0.30634667773E-01 -0.27111338532E-01  0.41080265098E-01  0.51100000000E-03 0. -1.
         11    1    4    4    0    0 -0.85214149439E-02 -0.44410300067E-01 -0.79692678102E-01  0.91630089647E-01  0.51100000000E-03 0.  1.
</event>
<event>
 8    1  0.1091347E+005  0.1043930E+01  0.7957747E-01            NaN
         13   -1    0    0    0    0  0.00000000000E+00  0.00000000000E+00  0.74505805969E-08  0.10566000000E+00  0.10566000000E+00 0. -1.
     999900   -1    0    0    0    0 -0.00000000000E+00 -0.00000000000E+00 -0.74505805969E-08  0.93827000000E+00  0.93827000000E+00 0.  1.
     999902    2    1    2    0    0 -0.10195617608E-01  0.11030561993E-02 -0.21851062393E-01  0.10197921401E+01  0.10195064359E+01 0.  0.
     999903    2    3    3    0    0 -0.10108556133E+00  0.40271716343E-01  0.67817496594E-01  0.12971595447E+00  0.19670133525E-01 0.  0.
         14    1    1    2    0    0  0.10195617608E-01 -0.11030561993E-02  0.21851062393E-01  0.24137859869E-01  0.00000000000E+00 0. -1.
     999901    1    3    3    0    0  0.90889943725E-01 -0.39168660143E-01 -0.89668558987E-01  0.89007618566E+00  0.88000000000E+00 0.  1.
        -11    1    4    4    0    0 -0.44486388838E-01  0.23628024311E-01  0.21778725982E-01  0.54880746634E-01  0.51100000000E-03 0.  1.
         11    1    4    4    0    0 -0.56599172494E-01  0.16643692031E-01  0.46038770612E-01  0.74835207837E-01  0.51100000000E-03 0. -1.
</event>
<event>
 8    1  0.1091347E+005  0.1043930E+01  0.7957747E-01            NaN
         13   -1    0    0    0    0  0.00000000000E+00  0.00000000000E+00  0.74505805969E-08  0.10566000000E+00  0.10566000000E+00 0. -1.
     999900   -1    0    0    0    0 -0.00000000000E+00 -0.00000000000E+00 -0.74505805969E-08  0.93827000000E+00  0.93827000000E+00 0. -1.
     999902    2    1    2    0    0 -0.52947674475E-02  0.22673471507E-01 -0.48153413591E-02  0.10201537853E+01  0.10198766775E+01 0.  0.
     999903    2    3    3    0    0 -0.12481711930E+00 -0.26375599996E-01  0.17593849918E-01  0.13043833874E+00  0.20727544787E-01 0.  0.
         14    1    1    2    0    0  0.52947674475E-02 -0.22673471507E-01  0.48153413591E-02  0.23776214689E-01  0.00000000000E+00 0.  1.
     999901    1    3    3    0    0  0.11952235186E+00  0.49049071503E-01 -0.22409191277E-01  0.88971544657E+00  0.88000000000E+00 0.  1.
        -11    1    4    4    0    0 -0.11480110413E+00 -0.18175550651E-01  0.17013676514E-01  0.11747072171E+00  0.51100000000E-03 0.  1.
         11    1    4    4    0    0 -0.10016015177E-01 -0.82000493449E-02  0.58017340366E-03  0.12967617031E-01  0.51100000000E-03 0. -1.
</event>
<event>
 8    1  0.1091347E+005  0.1043930E+01  0.7957747E-01            NaN
         13   -1    0    0    0    0  0.00000000000E+00  0.00000000000E+00  0.74505805969E-08  0.10566000000E+00  0.10566000000E+00 0. -1.
     999900   -1    0    0    0    0 -0.00000000000E+00 -0.00000000000E+00 -0.74505805969E-08  0.93827000000E+00  0.93827000000E+00 0.  1.
     999902    2    1    2    0    0  0.22111250627E-01 -0.77905185408E-02  0.20677380460E-02  0.10203954483E+01  0.10201240100E+01 0.  0.
     999903    2    3    3    0    0  0.70443689455E-01  0.97374344405E-01 -0.50608570239E-01  0.13125515200E+00  0.14920161260E-01 0.  0.
         14    1    1    2    0    0 -0.22111250627E-01  0.77905185408E-02 -0.20677380460E-02  0.23534551707E-01  0.00000000000E+00 0.  1.
     999901    1    3    3    0    0 -0.48332438828E-01 -0.10516486295E+00  0.52676308285E-01  0.88914029630E+00  0.88000000000E+00 0. -1.
        -11    1    4    4    0    0  0.62926272407E-01  0.77895495866E-01 -0.43682754271E-01  0.10925139897E+00  0.51100000000E-03 0.  1.
         11    1    4    4    0    0  0.75174170479E-02  0.19478848539E-01 -0.69258159682E-02  0.22003753028E-01  0.51100000000E-03 0. -1.
</event>
<event>
 8    1  0.1091347E+005  0.1043930E+01  0.7957747E-01            NaN
         13   -1    0    0    0    0  0.00000000000E+00  0.00000000000E+00  0.74505805969E-08  0.10566000000E+00  0.10566000000E+00 0.  1.
     999900   -1    0    0    0    0 -0.00000000000E+00 -0.00000000000E+00 -0.74505805969E-08  0.93827000000E+00  0.93827000000E+00 0. -1.
     999902    2    1    2    0    0  0.20286160832E-01 -0.97754050595E-02 -0.63718747061E-02  0.10205272725E+01  0.10202589016E+01 0.  0.
     999903    2    3    3    0    0 -0.60032614724E-01 -0.94282530672E-01 -0.65408600489E-01  0.13087683839E+00  0.18903740079E-01 0.  0.
         14    1    1    2    0    0 -0.20286160832E-01  0.97754050595E-02  0.63718747061E-02  0.23402727462E-01  0.00000000000E+00 0.  1.
     999901    1    3    3    0    0  0.80318775557E-01  0.84507125612E-01  0.59036725783E-01  0.88965043415E+00  0.88000000000E+00 0. -1.
        -11    1    4    4    0    0 -0.19470776600E-01 -0.17787121084E-01 -0.20031827135E-01  0.33121413575E-01  0.51100000000E-03 0.  1.
         11    1    4    4    0    0 -0.40561838125E-01 -0.76495409587E-01 -0.45376773354E-01  0.97755424816E-01  0.51100000000E-03 0. -1.
</event>
<event>
 8    1  0.1091347E+005  0.1043930E+01  0.7957747E-01            NaN
         13   -1    0    0    0    0  0.00000000000E+00  0.00000000000E+00  0.74505805969E-08  0.10566000000E+00  0.10566000000E+00 0. -1.
     999900   -1    0    0    0    0 -0.00000000000E+00 -0.00000000000E+00 -0.74505805969E-08  0.93827000000E+00  0.93827000000E+00 0.  1.
     999902    2    1    2    0    0 -0.63657313717E-02  0.14272606489E-01 -0.18028178580E-01  0.10200711431E+01  0.10197920826E+01 0.  0.
     999903    2    3    3    0    0 -0.87383461199E-01  0.89223442540E-01  0.35883010355E-01  0.13153981740E+00  0.20455833890E-01 0.  0.
         14    1    1    2    0    0  0.63657313717E-02 -0.14272606489E-01  0.18028178580E-01  0.23858856947E-01  0.00000000000E+00 0. -1.
     999901    1    3    3    0    0  0.81017729827E-01 -0.74950836052E-01 -0.53911188935E-01  0.88853132565E+00  0.88000000000E+00 0.  1.
        -11    1    4    4    0    0 -0.67702209728E-01  0.66665165653E-01  0.18128669618E-01  0.96730260502E-01  0.51100000000E-03 0. -1.
         11    1    4    4    0    0 -0.19681251471E-01  0.22558276887E-01  0.17754340737E-01  0.34809556900E-01  0.51100000000E-03 0.  1.
</event>
<event>
 8    1  0.1091347E+005  0.1043930E+01  0.7957747E-01            NaN
         13   -1    0    0    0    0  0.00000000000E+00  0.00000000000E+00  0.74505805969E-08  0.10566000000E+00  0.10566000000E+00 0.  1.
     999900   -1    0    0    0    0 -0.00000000000E+00 -0.00000000000E+00 -0.74505805969E-08  0.93827000000E+00  0.93827000000E+00 0. -1.
     999902    2    1    2    0    0  0.74898463269E-02  0.20280238661E-01  0.93121217883E-02  0.10203906396E+01  0.10201190890E+01 0.  0.
     999903    2    3    3    0    0  0.10533403256E+00  0.15936987017E-01  0.76034049426E-01  0.13244685516E+00  0.20291545002E-01 0.  0.
         14    1    1    2    0    0 -0.74898463269E-02 -0.20280238661E-01 -0.93121217883E-02  0.23539360449E-01  0.00000000000E+00 0.  1.
     999901    1    3    3    0    0 -0.97844186233E-01  0.43432516440E-02 -0.66721927638E-01  0.88794378439E+00  0.88000000000E+00 0. -1.
        -11    1    4    4    0    0  0.94630941006E-01  0.87884567195E-02  0.62419172851E-01  0.11370429292E+00  0.51100000000E-03 0.  1.
         11    1    4    4    0    0  0.10703091554E-01  0.71485302976E-02  0.13614876575E-01  0.18742562242E-01  0.51100000000E-03 0. -1.
</event>
<event>
 8    1  0.1091347E+005  0.1043930E+01  0.7957747E-01            NaN
         13   -1    0    0    0    0  0.00000000000E+00  0.00000000000E+00  0.74505805969E-08  0.10566000000E+00  0.10566000000E+00 0. -1.
     999900   -1    0    0    0    0 -0.00000000000E+00 -0.00000000000E+00 -0.74505805969E-08  0.93827000000E+00  0.93827000000E+00 0. -1.
     999902    2    1    2    0    0  0.23268675994E-03  0.35699324060E-02 -0.23564908499E-01  0.10200950787E+01  0.10198165846E+01 0.  0.
     999903    2    3    3    0    0 -0.26989156383E-01  0.12069414794E+00 -0.40987651261E-01  0.13174680096E+00  0.19538170278E-01 0.  0.
         14    1    1    2    0    0 -0.23268675994E-03 -0.35699324060E-02  0.23564908499E-01  0.23834921293E-01  0.00000000000E+00 0. -1.
     999901    1    3    3    0    0  0.27221843143E-01 -0.11712421554E+00  0.17422742762E-01  0.88834827775E+00  0.88000000000E+00 0. -1.
        -11    1    4    4    0    0  0.31453444313E-03  0.39567301786E-02 -0.53343929078E-02  0.66686965981E-02  0.51100000000E-03 0. -1.
         11    1    4    4    0    0 -0.27303690826E-01  0.11673741776E+00 -0.35653258353E-01  0.12507810436E+00  0.51100000000E-03 0.  1.
</event>
<event>
 8    1  0.1091347E+005  0.1043930E+01  0.7957747E-01            NaN
         13   -1    0    0    0    0  0.00000000000E+00  0.00000000000E+00  0.74505805969E-08  0.10566000000E+00  0.10566000000E+00 0.  1.
     999900   -1    0    0    0    0 -0.00000000000E+00 -0.00000000000E+00 -0.74505805969E-08  0.93827000000E+00  0.93827000000E+00 0. -1.
     999902    2    1    2    0    0  0.23353337777E-01 -0.74686733053E-02  0.18422754314E-02  0.10193423314E+01  0.10190457474E+01 0.  0.
     999903    2    3    3    0    0  0.10326901571E+00 -0.33482351730E-01 -0.72821489495E-01  0.13219076331E+00  0.19643601748E-01 0.  0.
         14    1    1    2    0    0 -0.23353337777E-01  0.74686733053E-02 -0.18422754314E-02  0.24587668556E-01  0.00000000000E+00 0.  1.
     999901    1    3    3    0    0 -0.79915677935E-01  0.26013678424E-01  0.74663764927E-01  0.88715156813E+00  0.88000000000E+00 0.  1.
        -11    1    4    4    0    0  0.63986412629E-01 -0.24471796248E-01 -0.56126554503E-01  0.88563994118E-01  0.51100000000E-03 0. -1.
         11    1    4    4    0    0  0.39282603082E-01 -0.90105554815E-02 -0.16694934992E-01  0.43626769195E-01  0.51100000000E-03 0.  1.
</event>
<event>
 8    1  0.1091347E+005  0.1043930E+01  0.7957747E-01            NaN
         13   -1    0    0    0    0  0.00000000000E+00  0.00000000000E+00  0.74505805969E-08  0.10566000000E+00  0.10566000000E+00 0.  1.
     999900   -1    0    0    0    0 -0.00000000000E+00 -0.00000000000E+00 -0.74505805969E-08  0.93827000000E+00  0.93827000000E+00 0.  1.
     999902    2    1    2    0    0 -0.90837765544E-02  0.20903289966E-01 -0.71895850005E-02  0.10200311996E+01  0.10197511929E+01 0.  0.
     999903    2    3    3    0    0  0.75033787622E-01 -0.21770773432E-01  0.10086267173E+00  0.12841910319E+00  0.14633921360E-01 0.  0.
         14    1    1    2    0    0  0.90837765544E-02 -0.20903289966E-01  0.71895850005E-02  0.23898800396E-01  0.00000000000E+00 0.  1.
     999901    1    3    3    0    0 -0.84117564177E-01  0.42674063398E-01 -0.10805225673E+00  0.89161209642E+00  0.88000000000E+00 0.  1.
        -11    1    4    4    0    0  0.50420156273E-01 -0.12369304324E-01  0.55807803302E-01  0.76223119055E-01  0.51100000000E-03 0. -1.
         11    1    4    4    0    0  0.24613631350E-01 -0.94014691086E-02  0.45054868428E-01  0.52195984134E-01  0.51100000000E-03 0.  1.
</event>
<event>
 8    1  0.1091347E+005  0.1043930E+01  0.7957747E-01            NaN
         13   -1    0    0    0    0  0.00000000000E+00  0.00000000000E+00  0.74505805969E-08  0.10566000000E+00  0.10566000000E+00 0. -1.
     999900   -1    0    0    0    0 -0.00000000000E+00 -0.00000000000E+00 -0.74505805969E-08  0.93827000000E+00  0.93827000000E+00 0. -1.
     999902    2    1    2    0    0 -0.20621133309E-01  0.53390048298E-02 -0.94003316539E-02  0.10206469086E+01  0.10203813060E+01 0.  0.
     999903    2    3    3    0    0 -0.98443827809E-01 -0.35324308224E-01  0.78380980859E-01  0.13193129847E+00  0.17980416275E-01 0.  0.
         14    1    1    2    0    0  0.20621133309E-01 -0.53390048298E-02  0.94003316539E-02  0.23283091434E-01  0.00000000000E+00 0. -1.
     999901    1    3    3    0    0  0.77822694499E-01  0.40663313054E-01 -0.87781312513E-01  0.88871561010E+00  0.88000000000E+00 0. -1.
        -11    1    4    4    0    0 -0.58133701398E-02 -0.70937825058E-02  0.52375437466E-02  0.10574025162E-01  0.51100000000E-03 0.  1.
         11    1    4    4    0    0 -0.92630457669E-01 -0.28230525718E-01  0.73143437113E-01  0.12135727330E+00  0.51100000000E-03 0. -1.
</event>
<event>
 8    1  0.1091347E+005  0.1043930E+01  0.7957747E-01            NaN
         13   -1    0    0    0    0  0.00000000000E+00  0.00000000000E+00  0.74505805969E-08  0.10566000000E+00  0.10566000000E+00 0. -1.
     999900   -1    0    0    0    0 -0.00000000000E+00 -0.00000000000E+00 -0.74505805969E-08  0.93827000000E+00  0.93827000000E+00 0.  1.
     999902    2    1    2    0    0  0.93266481132E-02  0.19178363944E-01 -0.19638497975E-01  0.10149391978E+01  0.10145250656E+01 0.  0.
     999903    2    3    3    0    0  0.44821609829E-01  0.11004540634E+00 -0.46141528494E-01  0.12915190827E+00  0.20789578963E-01 0.  0.
         14    1    1    2    0    0 -0.93266481132E-02 -0.19178363944E-01  0.19638497975E-01  0.28990802185E-01  0.00000000000E+00 0. -1.
     999901    1    3    3    0    0 -0.35494961716E-01 -0.90867042392E-01  0.26503030519E-01  0.88578728955E+00  0.88000000000E+00 0.  1.
        -11    1    4    4    0    0  0.38121936115E-01  0.76519086523E-01 -0.25506459405E-01  0.89214871001E-01  0.51100000000E-03 0.  1.
         11    1    4    4    0    0  0.66996737143E-02  0.33526319814E-01 -0.20635069090E-01  0.39937037264E-01  0.51100000000E-03 0. -1.
</event>
<event>
 8    1  0.1091347E+005  0.1043930E+01  0.7957747E-01            NaN
         13   -1    0    0    0    0  0.00000000000E+00  0.00000000000E+00  0.74505805969E-08  0.10566000000E+00  0.10566000000E+00 0.  1.
     999900   -1    0    0    0    0 -0.00000000000E+00 -0.00000000000E+00 -0.74505805969E-08  0.93827000000E+00  0.93827000000E+00 0.  1.
     999902    2    1    2    0    0 -0.19486793103E-01  0.82617747637E-02 -0.88351578949E-02  0.10209941756E+01  0.10207365255E+01 0.  0.
     999903    2    3    3    0    0  0.19589140049E-01  0.87807158542E-01  0.92625850989E-01  0.13074211409E+00  0.20496844289E-01 0.  0.
         14    1    1    2    0    0  0.19486793103E-01 -0.82617747637E-02  0.88351578949E-02  0.22935824439E-01  0.00000000000E+00 0.  1.
     999901    1    3    3    0    0 -0.39075933152E-01 -0.79545383779E-01 -0.10146100888E+00  0.89025206147E+00  0.88000000000E+00 0. -1.
        -11    1    4    4    0    0  0.55612774025E-02  0.27213388180E-01  0.42901958604E-01  0.51111011296E-01  0.51100000000E-03 0. -1.
         11    1    4    4    0    0  0.14027862647E-01  0.60593770362E-01  0.49723892384E-01  0.79631102793E-01  0.51100000000E-03 0.  1.
</event>
<event>
 8    1  0.1091347E+005  0.1043930E+01  0.7957747E-01            NaN
         13   -1    0    0    0    0  0.00000000000E+00  0.00000000000E+00  0.74505805969E-08  0.10566000000E+00  0.10566000000E+00 0. -1.
     999900   -1    0    0    0    0 -0.00000000000E+00 -0.00000000000E+00 -0.74505805969E-08  0.93827000000E+00  0.93827000000E+00 0. -1.
     999902    2    1    2    0    0 -0.85787988382E-02  0.91002834338E-02 -0.19807282268E-01  0.10205048132E+01  0.10202359209E+01 0.  0.
     999903    2    3    3    0    0 -0.10944809083E+00 -0.31247995802E-01 -0.65220796305E-01  0.13266193011E+00  0.19751293699E-01 0.  0.
         14    1    1    2    0    0  0.85787988382E-02 -0.91002834338E-02  0.19807282268E-01  0.23425186850E-01  0.00000000000E+00 0. -1.
     999901    1    3    3    0    0  0.10086929199E+00  0.40348279236E-01  0.45413514037E-01  0.88784288304E+00  0.88000000000E+00 0.  1.
        -11    1    4    4    0    0 -0.82192005196E-01 -0.29212600268E-01 -0.56656558760E-01  0.10401503980E+00  0.51100000000E-03 0.  1.
         11    1    4    4    0    0 -0.27256085632E-01 -0.20353955342E-02 -0.85642375457E-02  0.28646890315E-01  0.51100000000E-03 0. -1.
</event>
<event>
 8    1  0.1091347E+005  0.1043930E+01  0.7957747E-01            NaN
         13   -1    0    0    0    0  0.00000000000E+00  0.00000000000E+00  0.74505805969E-08  0.10566000000E+00  0.10566000000E+00 0. -1.
     999900   -1    0    0    0    0 -0.00000000000E+00 -0.00000000000E+00 -0.74505805969E-08  0.93827000000E+00  0.93827000000E+00 0. -1.
     999902    2    1    2    0    0  0.20551015952E-01 -0.13060597449E-02 -0.10308918771E-01  0.10209012385E+01  0.10206414723E+01 0.  0.
     999903    2    3    3    0    0  0.97446957432E-01 -0.41435455190E-01  0.76944043237E-01  0.13234261155E+00  0.19528814173E-01 0.  0.
         14    1    1    2    0    0 -0.20551015952E-01  0.13060597449E-02  0.10308918771E-01  0.23028761472E-01  0.00000000000E+00 0.  1.
     999901    1    3    3    0    0 -0.76895941480E-01  0.40129395445E-01 -0.87252962008E-01  0.88855862698E+00  0.88000000000E+00 0. -1.
        -11    1    4    4    0    0  0.61019952895E-01 -0.26146670653E-01  0.59519071300E-01  0.89162009886E-01  0.51100000000E-03 0.  1.
         11    1    4    4    0    0  0.36427004537E-01 -0.15288784536E-01  0.17424971937E-01  0.43180601665E-01  0.51100000000E-03 0. -1.
</event>
<event>
 8    1  0.1091347E+005  0.1043930E+01  0.7957747E-01            NaN
         13   -1    0    0    0    0  0.00000000000E+00  0.00000000000E+00  0.74505805969E-08  0.10566000000E+00  0.10566000000E+00 0.  1.
     999900   -1    0    0    0    0 -0.00000000000E+00 -0.00000000000E+00 -0.74505805969E-08  0.93827000000E+00  0.93827000000E+00 0.  1.
     999902    2    1    2    0    0 -0.13889682415E-01 -0.10962503770E-01  0.14328565271E-01  0.10211614351E+01  0.10209075712E+01 0.  0.
     999903    2    3    3    0    0  0.43498413973E-01  0.46189642514E-01  0.11385475246E+00  0.13185540036E+00  0.19933560908E-01 0.  0.
         14    1    1    2    0    0  0.13889682415E-01  0.10962503770E-01 -0.14328565271E-01  0.22768564935E-01  0.00000000000E+00 0.  1.
     999901    1    3    3    0    0 -0.57388096388E-01 -0.57152146284E-01 -0.99526187194E-01  0.88930603471E+00  0.88000000000E+00 0.  1.
        -11    1    4    4    0    0  0.19963875204E-01  0.20813809427E-01  0.71869062713E-01  0.77441553912E-01  0.51100000000E-03 0. -1.
         11    1    4    4    0    0  0.23534538769E-01  0.25375833086E-01  0.41985689752E-01  0.54413846444E-01  0.51100000000E-03 0.  1.
</event>
<event>
 8    1  0.1091347E+005  0.1043930E+01  0.7957747E-01            NaN
         13   -1    0    0    0    0  0.00000000000E+00  0.00000000000E+00  0.74505805969E-08  0.10566000000E+00  0.10566000000E+00 0.  1.
     999900   -1    0    0    0    0 -0.00000000000E+00 -0.00000000000E+00 -0.74505805969E-08  0.93827000000E+00  0.93827000000E+00 0.  1.
     999902    2    1    2    0    0 -0.70248572088E-02  0.22817750168E-01 -0.13608216302E-04  0.10200553581E+01  0.10197759239E+01 0.  0.
     999903    2    3    3    0    0 -0.80886643531E-01 -0.93867884790E-01  0.29232979842E-01  0.12880541346E+00  0.19556035600E-01 0.  0.
         14    1    1    2    0    0  0.70248572088E-02 -0.22817750168E-01  0.13608216302E-04  0.23874641918E-01  0.00000000000E+00 0. -1.
     999901    1    3    3    0    0  0.73861786322E-01  0.11668563496E+00 -0.29246588059E-01  0.89124994463E+00  0.88000000000E+00 0.  1.
        -11    1    4    4    0    0 -0.64769859183E-01 -0.63399886634E-01  0.16930548749E-01  0.92204039422E-01  0.51100000000E-03 0. -1.
         11    1    4    4    0    0 -0.16116784348E-01 -0.30467998155E-01  0.12302431093E-01  0.36601374033E-01  0.51100000000E-03 0.  1.
</event>
<event>
 8    1  0.1091347E+005  0.1043930E+01  0.7957747E-01            NaN
         13   -1    0    0    0    0  0.00000000000E+00  0.00000000000E+00  0.74505805969E-08  0.10566000000E+00  0.10566000000E+00 0.  1.
     999900   -1    0    0    0    0 -0.00000000000E+00 -0.00000000000E+00 -0.74505805969E-08  0.93827000000E+00  0.93827000000E+00 0.  1.
     999902    2    1    2    0    0  0.13775547910E-01  0.15760855463E-01  0.21536261547E-02  0.10228869871E+01  0.10226705139E+01 0.  0.
     999903    2    3    3    0    0  0.19177453588E-01 -0.12788855138E+00 -0.83776728793E-02  0.13116099730E+00  0.20242665587E-01 0.  0.
         14    1    1    2    0    0 -0.13775547910E-01 -0.15760855463E-01 -0.21536261547E-02  0.21043012873E-01  0.00000000000E+00 0. -1.
     999901    1    3    3    0    0 -0.54019056776E-02  0.14364940684E+00  0.10531299034E-01  0.89172598983E+00  0.88000000000E+00 0. -1.
        -11    1    4    4    0    0  0.22701144221E-01 -0.91315906618E-01 -0.43801758778E-02  0.94198640182E-01  0.51100000000E-03 0.  1.
         11    1    4    4    0    0 -0.35236906326E-02 -0.36572644762E-01 -0.39974970014E-02  0.36962357119E-01  0.51100000000E-03 0. -1.
</event>
<event>
 8    1  0.1091347E+005  0.1043930E+01  0.7957747E-01            NaN
         13   -1    0    0    0    0  0.00000000000E+00  0.00000000000E+00  0.74505805969E-08  0.10566000000E+00  0.10566000000E+00 0.  1.
     999900   -1    0    0    0    0 -0.00000000000E+00 -0.00000000000E+00 -0.74505805969E-08  0.93827000000E+00  0.93827000000E+00 0. -1.
     999902    2    1    2    0    0 -0.98586758365E-02 -0.11498284972E-01  0.17332488720E-01  0.10209121979E+01  0.10206526817E+01 0.  0.
     999903    2    3    3    0    0 -0.57978644908E-01  0.24039177765E-02 -0.11433864188E+00  0.12970734534E+00  0.19579793667E-01 0.  0.
         14    1    1    2    0    0  0.98586758365E-02  0.11498284972E-01 -0.17332488720E-01  0.23017802063E-01  0.00000000000E+00 0. -1.
     999901    1    3    3    0    0  0.48119969072E-01 -0.13902202749E-01  0.13167113061E+00  0.89120485260E+00  0.88000000000E+00 0.  1.
        -11    1    4    4    0    0 -0.29415906048E-01  0.74859574246E-02 -0.42487598056E-01  0.52218695855E-01  0.51100000000E-03 0. -1.
         11    1    4    4    0    0 -0.28562738860E-01 -0.50820396481E-02 -0.71851043829E-01  0.77488649482E-01  0.51100000000E-03 0.  1.
</event>
<event>
 8    1  0.1091347E+005  0.1043930E+01  0.7957747E-01            NaN
         13   -1    0    0    0    0  0.00000000000E+00  0.00000000000E+00  0.74505805969E-08  0.10566000000E+00  0.10566000000E+00 0. -1.
     999900   -1    0    0    0    0 -0.00000000000E+00 -0.00000000000E+00 -0.74505805969E-08  0.93827000000E+00  0.93827000000E+00 0.  1.
     999902    2    1    2    0    0 -0.42858895463E-02 -0.93681541793E-02  0.21944438460E-01  0.10196876911E+01  0.10193994790E+01 0.  0.
     999903    2    3    3    0    0 -0.91558801869E-01 -0.34370989740E-01  0.87325185901E-01  0.13260463684E+00  0.19847480500E-01 0.  0.
         14    1    1    2    0    0  0.42858895463E-02  0.93681541793E-02 -0.21944438460E-01  0.24242308909E-01  0.00000000000E+00 0.  1.
     999901    1    3    3    0    0  0.87272912322E-01  0.25002835561E-01 -0.65380747441E-01  0.88708305426E+00  0.88000000000E+00 0.  1.
        -11    1    4    4    0    0 -0.63505741601E-01 -0.32037223706E-01  0.68387424202E-01  0.98673521418E-01  0.51100000000E-03 0. -1.
         11    1    4    4    0    0 -0.28053060267E-01 -0.23337660342E-02  0.18937761699E-01  0.33931115417E-01  0.51100000000E-03 0.  1.
</event>
<event>
 8    1  0.1091347E+005  0.1043930E+01  0.7957747E-01            NaN
         13   -1    0    0    0    0  0.00000000000E+00  0.00000000000E+00  0.74505805969E-08  0.10566000000E+00  0.10566000000E+00 0. -1.
     999900   -1    0    0    0    0 -0.00000000000E+00 -0.00000000000E+00 -0.74505805969E-08  0.93827000000E+00  0.93827000000E+00 0. -1.
     999902    2    1    2    0    0  0.72982461448E-02  0.83848835199E-02 -0.19198201932E-01  0.10217457347E+01  0.10215048726E+01 0.  0.
     999903    2    3    3    0    0  0.11845052367E+00  0.11646218615E-01  0.53045109644E-01  0.13181059036E+00  0.19851627348E-01 0.  0.
         14    1    1    2    0    0 -0.72982461448E-02 -0.83848835199E-02  0.19198201932E-01  0.22184265276E-01  0.00000000000E+00 0. -1.
     999901    1    3    3    0    0 -0.11115227752E+00 -0.32613350946E-02 -0.72243311576E-01  0.88993514436E+00  0.88000000000E+00 0. -1.
        -11    1    4    4    0    0  0.41382824578E-01  0.11250417210E-01  0.12218527442E-01  0.44594434533E-01  0.51100000000E-03 0. -1.
         11    1    4    4    0    0  0.77067699091E-01  0.39580140491E-03  0.40826582203E-01  0.87216155827E-01  0.51100000000E-03 0.  1.
</event>
<event>
 8    1  0.1091347E+005  0.1043930E+01  0.7957747E-01            NaN
         13   -1    0    0    0    0  0.00000000000E+00  0.00000000000E+00  0.74505805969E-08  0.10566000000E+00  0.10566000000E+00 0.  1.
     999900   -1    0    0    0    0 -0.00000000000E+00 -0.00000000000E+00 -0.74505805969E-08  0.93827000000E+00  0.93827000000E+00 0.  1.
     999902    2    1    2    0    0  0.16624881773E-01  0.70808827646E-02 -0.13294528124E-01  0.10214963183E+01  0.10212499490E+01 0.  0.
     999903    2    3    3    0    0  0.13647771134E-01 -0.12123064145E+00  0.41506298655E-01  0.13049921338E+00  0.20594702768E-01 0.  0.
         14    1    1    2    0    0 -0.16624881773E-01 -0.70808827646E-02  0.13294528124E-01  0.22433681658E-01  0.00000000000E+00 0.  1.
     999901    1    3    3    0    0  0.29771106381E-02  0.12831152421E+00 -0.54800826779E-01  0.89099710496E+00  0.88000000000E+00 0.  1.
        -11    1    4    4    0    0  0.10313506466E-01 -0.94836221633E-01  0.23127992618E-01  0.98160289898E-01  0.51100000000E-03 0. -1.
         11    1    4    4    0    0  0.33342646687E-02 -0.26394419815E-01  0.18378306037E-01  0.32338923483E-01  0.51100000000E-03 0.  1.
</event>
<event>
 8    1  0.1091347E+005  0.1043930E+01  0.7957747E-01            NaN
         13   -1    0    0    0    0  0.00000000000E+00  0.00000000000E+00  0.74505805969E-08  0.10566000000E+00  0.10566000000E+00 0. -1.
     999900   -1    0    0    0    0 -0.00000000000E+00 -0.00000000000E+00 -0.74505805969E-08  0.93827000000E+00  0.93827000000E+00 0.  1.
     999902    2    1    2    0    0 -0.50597354849E-02 -0.76382647131E-02 -0.21993477880E-01  0.10201044448E+01  0.10198261721E+01 0.  0.
     999903    2    3    3    0    0 -0.68434480396E-01 -0.24719039967E-01 -0.10970824415E+00  0.13331135090E+00  0.21016859913E-01 0.  0.
         14    1    1    2    0    0  0.50597354849E-02  0.76382647131E-02  0.21993477880E-01  0.23825555193E-01  0.00000000000E+00 0. -1.
     999901    1    3    3    0    0  0.63374744911E-01  0.17080775253E-01  0.87714766271E-01  0.88679309391E+00  0.88000000000E+00 0. -1.
        -11    1    4    4    0    0 -0.28950080258E-01 -0.18230578614E-01 -0.63912189382E-01  0.72494759922E-01  0.51100000000E-03 0.  1.
         11    1    4    4    0    0 -0.39484400138E-01 -0.64884613528E-02 -0.45796054769E-01  0.60816590980E-01  0.51100000000E-03 0. -1.
</event>
<event>
 8    1  0.1091347E+005  0.1043930E+01  0.7957747E-01            NaN
         13   -1    0    0    0    0  0.00000000000E+00  0.00000000000E+00  0.74505805969E-08  0.10566000000E+00  0.10566000000E+00 0.  1.
     999900   -1    0    0    0    0 -0.00000000000E+00 -0.00000000000E+00 -0.74505805969E-08  0.93827000000E+00  0.93827000000E+00 0.  1.
     999902    2    1    2    0    0 -0.60395939943E-02  0.10692042774E-01  0.20002584093E-01  0.10204587443E+01  0.10201887810E+01 0.  0.
     999903    2    3    3    0    0  0.12206817380E+00  0.32819970284E-01 -0.23474804863E-01  0.12984573703E+00  0.18195039363E-01 0.  0.
         14    1    1    2    0    0  0.60395939943E-02 -0.10692042774E-01 -0.20002584093E-01  0.23471255712E-01  0.00000000000E+00 0. -1.
     999901    1    3    3    0    0 -0.12810776779E+00 -0.22127927510E-01  0.43477388956E-01  0.89061300726E+00  0.88000000000E+00 0.  1.
        -11    1    4    4    0    0  0.28668451145E-01  0.17436708358E-02 -0.10377279612E-01  0.30542912962E-01  0.51100000000E-03 0.  1.
         11    1    4    4    0    0  0.93399722655E-01  0.31076299448E-01 -0.13097525251E-01  0.99302824069E-01  0.51100000000E-03 0. -1.
</event>
<event>
 8    1  0.1091347E+005  0.1043930E+01  0.7957747E-01            NaN
         13   -1    0    0    0    0  0.00000000000E+00  0.00000000000E+00  0.74505805969E-08  0.10566000000E+00  0.10566000000E+00 0.  1.
     999900   -1    0    0    0    0 -0.00000000000E+00 -0.00000000000E+00 -0.74505805969E-08  0.93827000000E+00  0.93827000000E+00 0.  1.
     999902    2    1    2    0    0  0.67595565209E-02 -0.21862067505E-01 -0.61846284802E-02  0.10202257550E+01  0.10199503419E+01 0.  0.
     999903    2    3    3    0    0  0.70824132748E-01 -0.10880352625E+00  0.23876033650E-01  0.13311430173E+00  0.17178103422E-01 0.  0.
         14    1    1    2    0    0 -0.67595565209E-02  0.21862067505E-01  0.61846284802E-02  0.23704244965E-01  0.00000000000E+00 0.  1.
     999901    1    3    3    0    0 -0.64064576228E-01  0.86941458750E-01 -0.30060662130E-01  0.88711145330E+00  0.88000000000E+00 0.  1.
        -11    1    4    4    0    0  0.33519077669E-01 -0.64150919492E-01  0.18305961912E-01  0.74660822404E-01  0.51100000000E-03 0. -1.
         11    1    4    4    0    0  0.37305055080E-01 -0.44652606762E-01  0.55700717379E-02  0.58453479326E-01  0.51100000000E-03 0.  1.
</event>
<event>
 8    1  0.1091347E+005  0.1043930E+01  0.7957747E-01            NaN
         13   -1    0    0    0    0  0.00000000000E+00  0.00000000000E+00  0.74505805969E-08  0.10566000000E+00  0.10566000000E+00 0. -1.
     999900   -1    0    0    0    0 -0.00000000000E+00 -0.00000000000E+00 -0.74505805969E-08  0.93827000000E+00  0.93827000000E+00 0. -1.
     999902    2    1    2    0    0 -0.32338829992E-02  0.15389396686E-01 -0.17562236341E-01  0.10203562079E+01  0.10200838531E+01 0.  0.
     999903    2    3    3    0    0 -0.43646065130E-01 -0.14681435263E-01  0.11839245578E+00  0.12849238548E+00  0.19313104264E-01 0.  0.
         14    1    1    2    0    0  0.32338829992E-02 -0.15389396686E-01  0.17562236341E-01  0.23573792120E-01  0.00000000000E+00 0. -1.
     999901    1    3    3    0    0  0.40412182131E-01  0.30070831950E-01 -0.13595469213E+00  0.89186382240E+00  0.88000000000E+00 0. -1.
        -11    1    4    4    0    0 -0.66412462799E-02  0.71295153145E-03  0.38831256445E-01  0.39404848054E-01  0.51100000000E-03 0.  1.
         11    1    4    4    0    0 -0.37004818851E-01 -0.15394386795E-01  0.79561199339E-01  0.89087537423E-01  0.51100000000E-03 0. -1.
</event>
<event>
 8    1  0.1091347E+005  0.1043930E+01  0.7957747E-01            NaN
         13   -1    0    0    0    0  0.00000000000E+00  0.00000000000E+00  0.74505805969E-08  0.10566000000E+00  0.10566000000E+00 0.  1.
     999900   -1    0    0    0    0 -0.00000000000E+00 -0.00000000000E+00 -0.74505805969E-08  0.93827000000E+00  0.93827000000E+00 0. -1.
     999902    2    1    2    0    0  0.22508651282E-01 -0.56836961776E-02  0.42338950824E-02  0.10203319142E+01  0.10200589912E+01 0.  0.
     999903    2    3    3    0    0 -0.42842673553E-01  0.51913945175E-01  0.10935158472E+00  0.12980509676E+00  0.19001096888E-01 0.  0.
         14    1    1    2    0    0 -0.22508651282E-01  0.56836961776E-02 -0.42338950824E-02  0.23598085777E-01  0.00000000000E+00 0. -1.
     999901    1    3    3    0    0  0.65351324836E-01 -0.57597641352E-01 -0.10511768964E+00  0.89052681746E+00  0.88000000000E+00 0. -1.
        -11    1    4    4    0    0 -0.16705780603E-01  0.13497437332E-01  0.50055012202E-01  0.54470444166E-01  0.51100000000E-03 0.  1.
         11    1    4    4    0    0 -0.26136892950E-01  0.38416507842E-01  0.59296572519E-01  0.75334652593E-01  0.51100000000E-03 0. -1.
</event>
<event>
 8    1  0.1091347E+005  0.1043930E+01  0.7957747E-01            NaN
         13   -1    0    0    0    0  0.00000000000E+00  0.00000000000E+00  0.74505805969E-08  0.10566000000E+00  0.10566000000E+00 0. -1.
     999900   -1    0    0    0    0 -0.00000000000E+00 -0.00000000000E+00 -0.74505805969E-08  0.93827000000E+00  0.93827000000E+00 0.  1.
     999902    2    1    2    0    0  0.13276943031E-01  0.22467874668E-01 -0.25300994141E-02  0.10177100837E+01  0.10173722674E+01 0.  0.
     999903    2    3    3    0    0  0.12237010977E+00 -0.30212002608E-01 -0.20752999431E-01  0.12922341379E+00  0.19513964767E-01 0.  0.
         14    1    1    2    0    0 -0.13276943031E-01 -0.22467874668E-01  0.25300994141E-02  0.26219916311E-01  0.00000000000E+00 0. -1.
     999901    1    3    3    0    0 -0.10909316674E+00  0.52679877276E-01  0.18222900017E-01  0.88848666990E+00  0.88000000000E+00 0. -1.
        -11    1    4    4    0    0  0.11135245127E+00 -0.22693196432E-01 -0.22220546034E-01  0.11579448758E+00  0.51100000000E-03 0.  1.
         11    1    4    4    0    0  0.11017658501E-01 -0.75188061763E-02  0.14675466024E-02  0.13428926211E-01  0.51100000000E-03 0. -1.
</event>
<event>
 8    1  0.1091347E+005  0.1043930E+01  0.7957747E-01            NaN
         13   -1    0    0    0    0  0.00000000000E+00  0.00000000000E+00  0.74505805969E-08  0.10566000000E+00  0.10566000000E+00 0.  1.
     999900   -1    0    0    0    0 -0.00000000000E+00 -0.00000000000E+00 -0.74505805969E-08  0.93827000000E+00  0.93827000000E+00 0.  1.
     999902    2    1    2    0    0  0.45315902134E-02  0.11021433981E-01  0.21623958199E-01  0.10192398626E+01  0.10189407709E+01 0.  0.
     999903    2    3    3    0    0  0.10212000418E+00 -0.69280810481E-01  0.34885420113E-01  0.13011230404E+00  0.21997571936E-01 0.  0.
         14    1    1    2    0    0 -0.45315902134E-02 -0.11021433981E-01 -0.21623958199E-01  0.24690137405E-01  0.00000000000E+00 0. -1.
     999901    1    3    3    0    0 -0.97588413971E-01  0.80302244462E-01 -0.13261461914E-01  0.88912755855E+00  0.88000000000E+00 0.  1.
        -11    1    4    4    0    0  0.16839989079E-01 -0.21488634061E-01  0.11271194295E-01  0.29540608792E-01  0.51100000000E-03 0.  1.
         11    1    4    4    0    0  0.85280015106E-01 -0.47792176420E-01  0.23614225818E-01  0.10057169525E+00  0.51100000000E-03 0. -1.
</event>
<event>
 8    1  0.1091347E+005  0.1043930E+01  0.7957747E-01            NaN
         13   -1    0    0    0    0  0.00000000000E+00  0.00000000000E+00  0.74505805969E-08  0.10566000000E+00  0.10566000000E+00 0.  1.
     999900   -1    0    0    0    0 -0.00000000000E+00 -0.00000000000E+00 -0.74505805969E-08  0.93827000000E+00  0.93827000000E+00 0.  1.
     999902    2    1    2    0    0  0.20114714507E-01 -0.10551299701E-01  0.52299982404E-02  0.10206215349E+01  0.10203553464E+01 0.  0.
     999903    2    3    3    0    0 -0.33178758568E-01 -0.12422813864E+00 -0.19062629985E-01  0.13137873913E+00  0.19066430789E-01 0.  0.
         14    1    1    2    0    0 -0.20114714507E-01  0.10551299701E-01 -0.52299982404E-02  0.23308465129E-01  0.00000000000E+00 0. -1.
     999901    1    3    3    0    0  0.53293473076E-01  0.11367683894E+00  0.24292628225E-01  0.88924279574E+00  0.88000000000E+00 0.  1.
        -11    1    4    4    0    0 -0.26117412087E-01 -0.11503586627E+00 -0.14267291273E-01  0.11882418299E+00  0.51100000000E-03 0.  1.
         11    1    4    4    0    0 -0.70613464812E-02 -0.91922723773E-02 -0.47953387118E-02  0.12554556143E-01  0.51100000000E-03 0. -1.
</event>
<event>
 8    1  0.1091347E+005  0.1043930E+01  0.7957747E-01            NaN
         13   -1    0    0    0    0  0.00000000000E+00  0.00000000000E+00  0.74505805969E-08  0.10566000000E+00  0.10566000000E+00 0. -1.
     999900   -1    0    0    0    0 -0.00000000000E+00 -0.00000000000E+00 -0.74505805969E-08  0.93827000000E+00  0.93827000000E+00 0. -1.
     999902    2    1    2    0    0  0.64013249676E-02  0.57920701366E-02  0.19376380744E-01  0.10227175233E+01  0.10224975126E+01 0.  0.
     999903    2    3    3    0    0  0.12725070463E+00 -0.34016210667E-01  0.86392516164E-02  0.13350182519E+00  0.19956358481E-01 0.  0.
         14    1    1    2    0    0 -0.64013249676E-02 -0.57920701366E-02 -0.19376380744E-01  0.21212476719E-01  0.00000000000E+00 0.  1.
     999901    1    3    3    0    0 -0.12084937966E+00  0.39808280803E-01  0.10737129127E-01  0.88921569809E+00  0.88000000000E+00 0. -1.
        -11    1    4    4    0    0  0.85756154657E-01 -0.32309860608E-01  0.75858812769E-02  0.91955706021E-01  0.51100000000E-03 0. -1.
         11    1    4    4    0    0  0.41494549975E-01 -0.17063500585E-02  0.10533703395E-02  0.41546119172E-01  0.51100000000E-03 0.  1.
</event>
<event>
 8    1  0.1091347E+005  0.1043930E+01  0.7957747E-01            NaN
         13   -1    0    0    0    0  0.00000000000E+00  0.00000000000E+00  0.74505805969E-08  0.10566000000E+00  0.10566000000E+00 0. -1.
     999900   -1    0    0    0    0 -0.00000000000E+00 -0.00000000000E+00 -0.74505805969E-08  0.93827000000E+00  0.93827000000E+00 0.  1.
     999902    2    1    2    0    0  0.10484216644E-01  0.16145157388E-01 -0.16954415644E-01  0.10182777659E+01  0.10179546018E+01 0.  0.
     999903    2    3    3    0    0 -0.21766460695E-01  0.11573101158E+00 -0.54619618419E-01  0.13127375459E+00  0.19546101235E-01 0.  0.
         14    1    1    2    0    0 -0.10484216644E-01 -0.16145157388E-01  0.16954415644E-01  0.25652234124E-01  0.00000000000E+00 0.  1.
     999901    1    3    3    0    0  0.32250677339E-01 -0.99585854196E-01  0.37665202775E-01  0.88700401129E+00  0.88000000000E+00 0. -1.
        -11    1    4    4    0    0 -0.15063288130E-01  0.99010245410E-01 -0.39177025608E-01  0.10754083783E+00  0.51100000000E-03 0.  1.
         11    1    4    4    0    0 -0.67031725648E-02  0.16720766174E-01 -0.15442592810E-01  0.23732916753E-01  0.51100000000E-03 0. -1.
</event>
<event>
 8    1  0.1091347E+005  0.1043930E+01  0.7957747E-01            NaN
         13   -1    0    0    0    0  0.00000000000E+00  0.00000000000E+00  0.74505805969E-08  0.10566000000E+00  0.10566000000E+00 0.  1.
     999900   -1    0    0    0    0 -0.00000000000E+00 -0.00000000000E+00 -0.74505805969E-08  0.93827000000E+00  0.93827000000E+00 0.  1.
     999902    2    1    2    0    0 -0.10215753635E-01 -0.14949515713E-01  0.11611477511E-01  0.10224200941E+01  0.10221938039E+01 0.  0.
     999903    2    3    3    0    0 -0.74950687003E-01  0.45628429658E-01  0.98981431677E-01  0.13366039206E+00  0.19188994568E-01 0.  0.
         14    1    1    2    0    0  0.10215753635E-01  0.14949515713E-01 -0.11611477511E-01  0.21509905912E-01  0.00000000000E+00 0.  1.
     999901    1    3    3    0    0  0.64734933368E-01 -0.60577945371E-01 -0.87369954166E-01  0.88875970203E+00  0.88000000000E+00 0.  1.
        -11    1    4    4    0    0 -0.90283923958E-02  0.88588131400E-02  0.63350529049E-02  0.14155721663E-01  0.51100000000E-03 0.  1.
         11    1    4    4    0    0 -0.65922294607E-01  0.36769616518E-01  0.92646378772E-01  0.11950467039E+00  0.51100000000E-03 0. -1.
</event>
<event>
 8    1  0.1091347E+005  0.1043930E+01  0.7957747E-01            NaN
         13   -1    0    0    0    0  0.00000000000E+00  0.00000000000E+00  0.74505805969E-08  0.10566000000E+00  0.10566000000E+00 0. -1.
     999900   -1    0    0    0    0 -0.00000000000E+00 -0.00000000000E+00 -0.74505805969E-08  0.93827000000E+00  0.93827000000E+00 0. -1.
     999902    2    1    2    0    0  0.19074751062E-01  0.15725399548E-01  0.57661403074E-03  0.10192021452E+01  0.10189021278E+01 0.  0.
     999903    2    3    3    0    0  0.83140914301E-01 -0.68854883544E-02  0.99141379329E-01  0.13109700589E+00  0.19939665913E-01 0.  0.
         14    1    1    2    0    0 -0.19074751062E-01 -0.15725399548E-01 -0.57661403074E-03  0.24727854795E-01  0.00000000000E+00 0. -1.
     999901    1    3    3    0    0 -0.64066163240E-01  0.22610887903E-01 -0.98564765298E-01  0.88810513932E+00  0.88000000000E+00 0. -1.
        -11    1    4    4    0    0  0.44433589145E-01  0.50705081994E-02  0.59292607829E-01  0.74269296226E-01  0.51100000000E-03 0.  1.
         11    1    4    4    0    0  0.38707325156E-01 -0.11955996554E-01  0.39848771499E-01  0.56827709661E-01  0.51100000000E-03 0. -1.
</event>
<event>
 8    1  0.1091347E+005  0.1043930E+01  0.7957747E-01            NaN
         13   -1    0    0    0    0  0.00000000000E+00  0.00000000000E+00  0.74505805969E-08  0.10566000000E+00  0.10566000000E+00 0.  1.
     999900   -1    0    0    0    0 -0.00000000000E+00 -0.00000000000E+00 -0.74505805969E-08  0.93827000000E+00  0.93827000000E+00 0. -1.
     999902    2    1    2    0    0  0.23343370681E-01  0.35342765108E-02  0.25628973128E-02  0.10201818946E+01  0.10199054494E+01 0.  0.
     999903    2    3    3    0    0 -0.79117410246E-01  0.83111820983E-01  0.55531764000E-01  0.12909463851E+00  0.20359506079E-01 0.  0.
         14    1    1    2    0    0 -0.23343370681E-01 -0.35342765108E-02 -0.25628973128E-02  0.23748105353E-01  0.00000000000E+00 0. -1.
     999901    1    3    3    0    0  0.10246078093E+00 -0.79577544473E-01 -0.52968866687E-01  0.89108725614E+00  0.88000000000E+00 0.  1.
        -11    1    4    4    0    0 -0.33141948451E-01  0.27457709530E-01  0.11559163608E-01  0.44566690971E-01  0.51100000000E-03 0.  1.
         11    1    4    4    0    0 -0.45975461796E-01  0.55654111453E-01  0.43972600392E-01  0.84527947539E-01  0.51100000000E-03 0. -1.
</event>
<event>
 8    1  0.1091347E+005  0.1043930E+01  0.7957747E-01            NaN
         13   -1    0    0    0    0  0.00000000000E+00  0.00000000000E+00  0.74505805969E-08  0.10566000000E+00  0.10566000000E+00 0.  1.
     999900   -1    0    0    0    0 -0.00000000000E+00 -0.00000000000E+00 -0.74505805969E-08  0.93827000000E+00  0.93827000000E+00 0. -1.
     999902    2    1    2    0    0  0.12153329497E-03 -0.13921187080E-01 -0.19407004902E-01  0.10200459874E+01  0.10197663312E+01 0.  0.
     999903    2    3    3    0    0  0.71091159487E-01 -0.45440464475E-01  0.95813303852E-01  0.12914426875E+00  0.19474706345E-01 0.  0.
         14    1    1    2    0    0 -0.12153329497E-03  0.13921187080E-01  0.19407004902E-01  0.23884012630E-01  0.00000000000E+00 0.  1.
     999901    1    3    3    0    0 -0.70969626192E-01  0.31519277395E-01 -0.11522030875E+00  0.89090171862E+00  0.88000000000E+00 0. -1.
        -11    1    4    4    0    0  0.55278905021E-01 -0.24920434250E-01  0.65267969176E-01  0.89089585838E-01  0.51100000000E-03 0. -1.
         11    1    4    4    0    0  0.15812254465E-01 -0.20520030224E-01  0.30545334677E-01  0.40054682912E-01  0.51100000000E-03 0.  1.
</event>
<event>
 8    1  0.1091347E+005  0.1043930E+01  0.7957747E-01            NaN
         13   -1    0    0    0    0  0.00000000000E+00  0.00000000000E+00  0.74505805969E-08  0.10566000000E+00  0.10566000000E+00 0.  1.
     999900   -1    0    0    0    0 -0.00000000000E+00 -0.00000000000E+00 -0.74505805969E-08  0.93827000000E+00  0.93827000000E+00 0. -1.
     999902    2    1    2    0    0 -0.10821007148E-01 -0.86239870816E-02  0.18747901328E-01  0.10206286877E+01  0.10203626645E+01 0.  0.
     999903    2    3    3    0    0 -0.88562808000E-01  0.67206246078E-01  0.69809516502E-01  0.13248382320E+00  0.17847810593E-01 0.  0.
         14    1    1    2    0    0  0.10821007148E-01  0.86239870816E-02 -0.18747901328E-01  0.23301312261E-01  0.00000000000E+00 0. -1.
     999901    1    3    3    0    0  0.77741800852E-01 -0.75830233159E-01 -0.51061615174E-01  0.88814486454E+00  0.88000000000E+00 0. -1.
        -11    1    4    4    0    0 -0.17227174346E-01  0.19811634906E-01  0.22847378916E-01  0.34807186872E-01  0.51100000000E-03 0. -1.
         11    1    4    4    0    0 -0.71335633654E-01  0.47394611172E-01  0.46962137586E-01  0.97676636329E-01  0.51100000000E-03 0.  1.
</event>
<event>
 8    1  0.1091347E+005  0.1043930E+01  0.7957747E-01            NaN
         13   -1    0    0    0    0  0.00000000000E+00  0.00000000000E+00  0.74505805969E-08  0.10566000000E+00  0.10566000000E+00 0.  1.
     999900   -1    0    0    0    0 -0.00000000000E+00 -0.00000000000E+00 -0.74505805969E-08  0.93827000000E+00  0.93827000000E+00 0. -1.
     999902    2    1    2    0    0 -0.47056076797E-02 -0.22623534599E-01 -0.32763801634E-02  0.10205911541E+01  0.10203242632E+01 0.  0.
     999903    2    3    3    0    0 -0.36612580267E-01  0.25835415437E-01 -0.12119209672E+00  0.13083251213E+00  0.20534658465E-01 0.  0.
         14    1    1    2    0    0  0.47056076797E-02  0.22623534599E-01  0.32763801634E-02  0.23338845909E-01  0.00000000000E+00 0. -1.
     999901    1    3    3    0    0  0.31906972587E-01 -0.48458950036E-01  0.11791571655E+00  0.88975864196E+00  0.88000000000E+00 0.  1.
        -11    1    4    4    0    0 -0.29525013609E-01  0.12332025500E-01 -0.97810153176E-01  0.10291206181E+00  0.51100000000E-03 0.  1.
         11    1    4    4    0    0 -0.70875666578E-02  0.13503389937E-01 -0.23381943541E-01  0.27920450313E-01  0.51100000000E-03 0. -1.
</event>
<event>
 8    1  0.1091347E+005  0.1043930E+01  0.7957747E-01            NaN
         13   -1    0    0    0    0  0.00000000000E+00  0.00000000000E+00  0.74505805969E-08  0.10566000000E+00  0.10566000000E+00 0.  1.
     999900   -1    0    0    0    0 -0.00000000000E+00 -0.00000000000E+00 -0.74505805969E-08  0.93827000000E+00  0.93827000000E+00 0.  1.
     999902    2    1    2    0    0  0.18623110306E-01 -0.12820437227E-01  0.38089353467E-02  0.10210020294E+01  0.10207445577E+01 0.  0.
     999903    2    3    3    0    0 -0.10130223153E+00 -0.55048522595E-01 -0.56274961491E-01  0.12983685195E+00  0.19956324300E-01 0.  0.
         14    1    1    2    0    0 -0.18623110306E-01  0.12820437227E-01 -0.38089353467E-02  0.22927970618E-01  0.00000000000E+00 0. -1.
     999901    1    3    3    0    0  0.11992534184E+00  0.42228085368E-01  0.60083896838E-01  0.89116517743E+00  0.88000000000E+00 0. -1.
        -11    1    4    4    0    0 -0.69299335735E-01 -0.34814731827E-01 -0.47574775144E-01  0.90983975712E-01  0.51100000000E-03 0. -1.
         11    1    4    4    0    0 -0.32002895800E-01 -0.20233790768E-01 -0.87001863471E-02  0.38852876237E-01  0.51100000000E-03 0.  1.
</event>
<event>
 8    1  0.1091347E+005  0.1043930E+01  0.7957747E-01            NaN
         13   -1    0    0    0    0  0.00000000000E+00  0.00000000000E+00  0.74505805969E-08  0.10566000000E+00  0.10566000000E+00 0.  1.
     999900   -1    0    0    0    0 -0.00000000000E+00 -0.00000000000E+00 -0.74505805969E-08  0.93827000000E+00  0.93827000000E+00 0. -1.
     999902    2    1    2    0    0  0.69477733581E-02  0.20239347783E-01  0.52924606514E-02  0.10218865680E+01  0.10216487875E+01 0.  0.
     999903    2    3    3    0    0 -0.65998146693E-01  0.50646073092E-01 -0.10063877229E+00  0.13201741905E+00  0.19484772467E-01 0.  0.
         14    1    1    2    0    0 -0.69477733581E-02 -0.20239347783E-01 -0.52924606514E-02  0.22043431971E-01  0.00000000000E+00 0.  1.
     999901    1    3    3    0    0  0.72945920051E-01 -0.30406725310E-01  0.10593123294E+00  0.88986914898E+00  0.88000000000E+00 0. -1.
        -11    1    4    4    0    0 -0.23214498695E-01  0.97490048981E-02 -0.40099601156E-01  0.47351823408E-01  0.51100000000E-03 0. -1.
         11    1    4    4    0    0 -0.42783647998E-01  0.40897068194E-01 -0.60539171131E-01  0.84665595640E-01  0.51100000000E-03 0.  1.
</event>
<event>
 8    1  0.1091347E+005  0.1043930E+01  0.7957747E-01            NaN
         13   -1    0    0    0    0  0.00000000000E+00  0.00000000000E+00  0.74505805969E-08  0.10566000000E+00  0.10566000000E+00 0.  1.
     999900   -1    0    0    0    0 -0.00000000000E+00 -0.00000000000E+00 -0.74505805969E-08  0.93827000000E+00  0.93827000000E+00 0. -1.
     999902    2    1    2    0    0 -0.21692107164E-01 -0.31804082204E-02  0.10974003121E-01  0.10194128376E+01  0.10191179726E+01 0.  0.
     999903    2    3    3    0    0 -0.75255091175E-01  0.40167860271E-01 -0.96396187121E-01  0.13021295936E+00  0.19657165290E-01 0.  0.
         14    1    1    2    0    0  0.21692107164E-01  0.31804082204E-02 -0.10974003121E-01  0.24517162441E-01  0.00000000000E+00 0. -1.
     999901    1    3    3    0    0  0.53562984011E-01 -0.43348268491E-01  0.10737019024E+00  0.88919987820E+00  0.88000000000E+00 0.  1.
        -11    1    4    4    0    0 -0.51563541983E-01  0.21830543058E-01 -0.74027943442E-01  0.92821166785E-01  0.51100000000E-03 0.  1.
         11    1    4    4    0    0 -0.23691549192E-01  0.18337317213E-01 -0.22368243679E-01  0.37391792575E-01  0.51100000000E-03 0. -1.
</event>
<event>
 8    1  0.1091347E+005  0.1043930E+01  0.7957747E-01            NaN
         13   -1    0    0    0    0  0.00000000000E+00  0.00000000000E+00  0.74505805969E-08  0.10566000000E+00  0.10566000000E+00 0. -1.
     999900   -1    0    0    0    0 -0.00000000000E+00 -0.00000000000E+00 -0.74505805969E-08  0.93827000000E+00  0.93827000000E+00 0.  1.
     999902    2    1    2    0    0 -0.12141467930E-02 -0.99665796041E-02 -0.21315614305E-01  0.10203681182E+01  0.10200960417E+01 0.  0.
     999903    2    3    3    0    0  0.53400590564E-02  0.12496675394E+00 -0.29342143330E-01  0.13002302369E+00  0.19995486820E-01 0.  0.
         14    1    1    2    0    0  0.12141467930E-02  0.99665796041E-02  0.21315614305E-01  0.23561881815E-01  0.00000000000E+00 0. -1.
     999901    1    3    3    0    0 -0.65542058495E-02 -0.13493333355E+00  0.80265290240E-02  0.89034509449E+00  0.88000000000E+00 0.  1.
        -11    1    4    4    0    0  0.97669886241E-02  0.11656048497E+00 -0.28955669624E-01  0.12050075787E+00  0.51100000000E-03 0. -1.
         11    1    4    4    0    0 -0.44269295676E-02  0.84062689765E-02 -0.38647370528E-03  0.95222658242E-02  0.51100000000E-03 0.  1.
</event>
<event>
 8    1  0.1091347E+005  0.1043930E+01  0.7957747E-01            NaN
         13   -1    0    0    0    0  0.00000000000E+00  0.00000000000E+00  0.74505805969E-08  0.10566000000E+00  0.10566000000E+00 0.  1.
     999900   -1    0    0    0    0 -0.00000000000E+00 -0.00000000000E+00 -0.74505805969E-08  0.93827000000E+00  0.93827000000E+00 0.  1.
     999902    2    1    2    0    0 -0.14331672924E-01  0.18244692305E-01  0.43595368363E-02  0.10203234075E+01  0.10200502854E+01 0.  0.
     999903    2    3    3    0    0 -0.49375821552E-01 -0.49503015871E-01  0.10887849627E+00  0.13086174046E+00  0.19538368215E-01 0.  0.
         14    1    1    2    0    0  0.14331672924E-01 -0.18244692305E-01 -0.43595368363E-02  0.23606592459E-01  0.00000000000E+00 0. -1.
     999901    1    3    3    0    0  0.35044148628E-01  0.67747708176E-01 -0.10451895944E+00  0.88946166708E+00  0.88000000000E+00 0.  1.
        -11    1    4    4    0    0 -0.28027176977E-01 -0.19037864038E-01  0.65250920745E-01  0.73524871272E-01  0.51100000000E-03 0. -1.
         11    1    4    4    0    0 -0.21348644575E-01 -0.30465151834E-01  0.43627575527E-01  0.57336869193E-01  0.51100000000E-03 0.  1.
</event>
<event>
 8    1  0.1091347E+005  0.1043930E+01  0.7957747E-01            NaN
         13   -1    0    0    0    0  0.00000000000E+00  0.00000000000E+00  0.74505805969E-08  0.10566000000E+00  0.10566000000E+00 0.  1.
     999900   -1    0    0    0    0 -0.00000000000E+00 -0.00000000000E+00 -0.74505805969E-08  0.93827000000E+00  0.93827000000E+00 0.  1.
     999902    2    1    2    0    0 -0.11712940271E-01 -0.11833955714E-01 -0.15177795313E-01  0.10213999989E+01  0.10211514858E+01 0.  0.
     999903    2    3    3    0    0  0.92808829428E-01  0.46377744163E-01 -0.77363547071E-01  0.13113011285E+00  0.21109573818E-01 0.  0.
         14    1    1    2    0    0  0.11712940271E-01  0.11833955714E-01  0.15177795313E-01  0.22530001069E-01  0.00000000000E+00 0.  1.
     999901    1    3    3    0    0 -0.10452176970E+00 -0.58211699877E-01  0.62185751758E-01  0.89026988608E+00  0.88000000000E+00 0. -1.
        -11    1    4    4    0    0  0.40866787845E-01  0.24730926919E-01 -0.47735528016E-01  0.67532620643E-01  0.51100000000E-03 0. -1.
         11    1    4    4    0    0  0.51942041583E-01  0.21646817244E-01 -0.29628019055E-01  0.63597492205E-01  0.51100000000E-03 0.  1.
</event>
<event>
 8    1  0.1091347E+005  0.1043930E+01  0.7957747E-01            NaN
         13   -1    0    0    0    0  0.00000000000E+00  0.00000000000E+00  0.74505805969E-08  0.10566000000E+00  0.10566000000E+00 0. -1.
     999900   -1    0    0    0    0 -0.00000000000E+00 -0.00000000000E+00 -0.74505805969E-08  0.93827000000E+00  0.93827000000E+00 0.  1.
     999902    2    1    2    0    0  0.16267978470E-02 -0.23988696791E-01  0.13618529222E-04  0.10198862018E+01  0.10196027464E+01 0.  0.
     999903    2    3    3    0    0  0.11940475769E+00 -0.21876756208E-01 -0.44672715080E-01  0.13091321207E+00  0.20162564310E-01 0.  0.
         14    1    1    2    0    0 -0.16267978470E-02  0.23988696791E-01 -0.13618529222E-04  0.24043798169E-01  0.00000000000E+00 0. -1.
     999901    1    3    3    0    0 -0.11777795984E+00 -0.21119405824E-02  0.44686333609E-01  0.88897298976E+00  0.88000000000E+00 0. -1.
        -11    1    4    4    0    0  0.16922939344E-01 -0.67396282278E-02 -0.32683744655E-03  0.18225707350E-01  0.51100000000E-03 0.  1.
         11    1    4    4    0    0  0.10248181835E+00 -0.15137127980E-01 -0.44345877633E-01  0.11268750472E+00  0.51100000000E-03 0. -1.
</event>
<event>
 8    1  0.1091347E+005  0.1043930E+01  0.7957747E-01            NaN
         13   -1    0    0    0    0  0.00000000000E+00  0.00000000000E+00  0.74505805969E-08  0.10566000000E+00  0.10566000000E+00 0.  1.
     999900   -1    0    0    0    0 -0.00000000000E+00 -0.00000000000E+00 -0.74505805969E-08  0.93827000000E+00  0.93827000000E+00 0. -1.
     999902    2    1    2    0    0 -0.31622664116E-02  0.39201336642E-02 -0.22382661052E-01  0.10209876616E+01  0.10207298635E+01 0.  0.
     999903    2    3    3    0    0  0.11673520184E+00  0.50617434092E-01 -0.27544808292E-01  0.13161558616E+00  0.19357532709E-01 0.  0.
         14    1    1    2    0    0  0.31622664116E-02 -0.39201336642E-02  0.22382661052E-01  0.22942338428E-01  0.00000000000E+00 0.  1.
     999901    1    3    3    0    0 -0.11989746825E+00 -0.46697300428E-01  0.51621472400E-02  0.88937207541E+00  0.88000000000E+00 0.  1.
        -11    1    4    4    0    0  0.52504509046E-01  0.32311750901E-01 -0.17386741204E-01  0.64057260378E-01  0.51100000000E-03 0. -1.
         11    1    4    4    0    0  0.64230692797E-01  0.18305683191E-01 -0.10158067088E-01  0.67558325780E-01  0.51100000000E-03 0.  1.
</event>
<event>
 8    1  0.1091347E+005  0.1043930E+01  0.7957747E-01            NaN
         13   -1    0    0    0    0  0.00000000000E+00  0.00000000000E+00  0.74505805969E-08  0.10566000000E+00  0.10566000000E+00 0. -1.
     999900   -1    0    0    0    0 -0.00000000000E+00 -0.00000000000E+00 -0.74505805969E-08  0.93827000000E+00  0.93827000000E+00 0. -1.
     999902    2    1    2    0    0 -0.23055758804E-01 -0.55254482775E-02  0.51176340974E-02  0.10196753351E+01  0.10193868256E+01 0.  0.
     999903    2    3    3    0    0  0.11291646714E+00  0.51670475266E-01  0.18818334930E-01  0.12729227319E+00  0.20717782679E-01 0.  0.
         14    1    1    2    0    0  0.23055758804E-01  0.55254482775E-02 -0.51176340974E-02  0.24254664942E-01  0.00000000000E+00 0.  1.
     999901    1    3    3    0    0 -0.13597222595E+00 -0.57195923543E-01 -0.13700700832E-01  0.89238306186E+00  0.88000000000E+00 0. -1.
        -11    1    4    4    0    0  0.60206758369E-01  0.29820702185E-01  0.20372404611E-01  0.70209857020E-01  0.51100000000E-03 0.  1.
         11    1    4    4    0    0  0.52709708774E-01  0.21849773080E-01 -0.15540696809E-02  0.57082416174E-01  0.51100000000E-03 0. -1.
</event>
<event>
 8    1  0.1091347E+005  0.1043930E+01  0.7957747E-01            NaN
         13   -1    0    0    0    0  0.00000000000E+00  0.00000000000E+00  0.74505805969E-08  0.10566000000E+00  0.10566000000E+00 0. -1.
     999900   -1    0    0    0    0 -0.00000000000E+00 -0.00000000000E+00 -0.74505805969E-08  0.93827000000E+00  0.93827000000E+00 0. -1.
     999902    2    1    2    0    0 -0.63701489780E-02 -0.97319746204E-02  0.21337465348E-01  0.10196281985E+01  0.10193385530E+01 0.  0.
     999903    2    3    3    0    0 -0.64314523685E-01 -0.47471342159E-01  0.10439371787E+00  0.13301658597E+00  0.20136472591E-01 0.  0.
         14    1    1    2    0    0  0.63701489780E-02  0.97319746204E-02 -0.21337465348E-01  0.24301801487E-01  0.00000000000E+00 0.  1.
     999901    1    3    3    0    0  0.57944374706E-01  0.37739367538E-01 -0.83056252520E-01  0.88661161255E+00  0.88000000000E+00 0.  1.
        -11    1    4    4    0    0 -0.48673882002E-01 -0.31208212171E-01  0.87266246369E-01  0.10468408748E+00  0.51100000000E-03 0.  1.
         11    1    4    4    0    0 -0.15640641682E-01 -0.16263129987E-01  0.17127471499E-01  0.28332498481E-01  0.51100000000E-03 0. -1.
</event>
<event>
 8    1  0.1091347E+005  0.1043930E+01  0.7957747E-01            NaN
         13   -1    0    0    0    0  0.00000000000E+00  0.00000000000E+00  0.74505805969E-08  0.10566000000E+00  0.10566000000E+00 0.  1.
     999900   -1    0    0    0    0 -0.00000000000E+00 -0.00000000000E+00 -0.74505805969E-08  0.93827000000E+00  0.93827000000E+00 0.  1.
     999902    2    1    2    0    0 -0.71769143211E-02 -0.18792927482E-01 -0.12276275298E-01  0.10203633041E+01  0.10200911151E+01 0.  0.
     999903    2    3    3    0    0 -0.52786459482E-01  0.67487166908E-01  0.93874212141E-01  0.12862768669E+00  0.19793586733E-01 0.  0.
         14    1    1    2    0    0  0.71769143211E-02  0.18792927482E-01  0.12276275298E-01  0.23566695944E-01  0.00000000000E+00 0.  1.
     999901    1    3    3    0    0  0.45609545160E-01 -0.86280094391E-01 -0.10615048744E+00  0.89173561737E+00  0.88000000000E+00 0.  1.
        -11    1    4    4    0    0 -0.52693261000E-01  0.57980847576E-01  0.85198619872E-01  0.11574724355E+00  0.51100000000E-03 0. -1.
         11    1    4    4    0    0 -0.93198481243E-04  0.95063193322E-02  0.86755922692E-02  0.12880443138E-01  0.51100000000E-03 0.  1.
</event>
<event>
 8    1  0.1091347E+005  0.1043930E+01  0.7957747E-01            NaN
         13   -1    0    0    0    0  0.00000000000E+00  0.00000000000E+00  0.74505805969E-08  0.10566000000E+00  0.10566000000E+00 0. -1.
     999900   -1    0    0    0    0 -0.00000000000E+00 -0.00000000000E+00 -0.74505805969E-08  0.93827000000E+00  0.93827000000E+00 0.  1.
     999902    2    1    2    0    0 -0.20997548711E-01 -0.86659356569E-02 -0.42168710776E-02  0.10208263749E+01  0.10205648976E+01 0.  0.
     999903    2    3    3    0    0  0.57468460142E-01 -0.10607256225E+00 -0.46714880546E-01  0.13096624751E+00  0.20392781809E-01 0.  0.
         14    1    1    2    0    0  0.20997548711E-01  0.86659356569E-02  0.42168710776E-02  0.23103625135E-01  0.00000000000E+00 0.  1.
     999901    1    3    3    0    0 -0.78466008853E-01  0.97406626589E-01  0.42498009468E-01  0.88986012736E+00  0.88000000000E+00 0. -1.
        -11    1    4    4    0    0  0.27430913441E-01 -0.60297428507E-01 -0.15859240832E-01  0.68117630153E-01  0.51100000000E-03 0. -1.
         11    1    4    4    0    0  0.30037546701E-01 -0.45775133738E-01 -0.30855639714E-01  0.62848617357E-01  0.51100000000E-03 0.  1.
</event>
<event>
 8    1  0.1091347E+005  0.1043930E+01  0.7957747E-01            NaN
         13   -1    0    0    0    0  0.00000000000E+00  0.00000000000E+00  0.74505805969E-08  0.10566000000E+00  0.10566000000E+00 0.  1.
     999900   -1    0    0    0    0 -0.00000000000E+00 -0.00000000000E+00 -0.74505805969E-08  0.93827000000E+00  0.93827000000E+00 0. -1.
     999902    2    1    2    0    0 -0.24130951887E-01  0.33886017373E-02  0.71093942935E-02  0.10185463646E+01  0.10182300171E+01 0.  0.
     999903    2    3    3    0    0  0.44758989190E-01 -0.96571856004E-01  0.68623098032E-01  0.12808476919E+00  0.19159541458E-01 0.  0.
         14    1    1    2    0    0  0.24130951887E-01 -0.33886017373E-02 -0.71093942935E-02  0.25383635436E-01  0.00000000000E+00 0. -1.
     999901    1    3    3    0    0 -0.68889941078E-01  0.99960457741E-01 -0.61513703738E-01  0.89046159538E+00  0.88000000000E+00 0. -1.
        -11    1    4    4    0    0  0.23560903338E-01 -0.29643642942E-01  0.21798639338E-01  0.43695577934E-01  0.51100000000E-03 0. -1.
         11    1    4    4    0    0  0.21198085853E-01 -0.66928213062E-01  0.46824458693E-01  0.84389191254E-01  0.51100000000E-03 0.  1.
</event>
<event>
 8    1  0.1091347E+005  0.1043930E+01  0.7957747E-01            NaN
         13   -1    0    0    0    0  0.00000000000E+00  0.00000000000E+00  0.74505805969E-08  0.10566000000E+00  0.10566000000E+00 0. -1.
     999900   -1    0    0    0    0 -0.00000000000E+00 -0.00000000000E+00 -0.74505805969E-08  0.93827000000E+00  0.93827000000E+00 0. -1.
     999902    2    1    2    0    0 -0.16913579983E-01  0.44562561187E-02 -0.17712557621E-01  0.10190369868E+01  0.10187328985E+01 0.  0.
     999903    2    3    3    0    0 -0.12478162914E-01 -0.90262724362E-01  0.87193083834E-01  0.12774772303E+00  0.20341654589E-01 0.  0.
         14    1    1    2    0    0  0.16913579983E-01 -0.44562561187E-02  0.17712557621E-01  0.24893013154E-01  0.00000000000E+00 0. -1.
     999901    1    3    3    0    0 -0.44354170687E-02  0.94718980481E-01 -0.10490564145E+00  0.89128926382E+00  0.88000000000E+00 0. -1.
        -11    1    4    4    0    0 -0.72158346813E-02 -0.28074317395E-01  0.40474396808E-01  0.49786278083E-01  0.51100000000E-03 0.  1.
         11    1    4    4    0    0 -0.52623282329E-02 -0.62188406967E-01  0.46718687025E-01  0.77961444945E-01  0.51100000000E-03 0. -1.
</event>
<event>
 8    1  0.1091347E+005  0.1043930E+01  0.7957747E-01            NaN
         13   -1    0    0    0    0  0.00000000000E+00  0.00000000000E+00  0.74505805969E-08  0.10566000000E+00  0.10566000000E+00 0.  1.
     999900   -1    0    0    0    0 -0.00000000000E+00 -0.00000000000E+00 -0.74505805969E-08  0.93827000000E+00  0.93827000000E+00 0. -1.
     999902    2    1    2    0    0  0.14636530180E-01  0.13253844517E-01 -0.12277810483E-01  0.10206783970E+01  0.10204135207E+01 0.  0.
     999903    2    3    3    0    0 -0.79238392529E-01  0.72708928241E-01  0.70164792661E-01  0.12986742331E+00  0.19420051795E-01 0.  0.
         14    1    1    2    0    0 -0.14636530180E-01 -0.13253844517E-01  0.12277810483E-01  0.23251602965E-01  0.00000000000E+00 0.  1.
     999901    1    3    3    0    0  0.93874922709E-01 -0.59455083724E-01 -0.82442603144E-01  0.89081097372E+00  0.88000000000E+00 0.  1.
        -11    1    4    4    0    0 -0.20720076140E-01  0.20171516940E-01  0.29577659679E-01  0.41367991539E-01  0.51100000000E-03 0.  1.
         11    1    4    4    0    0 -0.58518316389E-01  0.52537411301E-01  0.40587132982E-01  0.88499431772E-01  0.51100000000E-03 0. -1.
</event>
<event>
 8    1  0.1091347E+005  0.1043930E+01  0.7957747E-01            NaN
         13   -1    0    0    0    0  0.00000000000E+00  0.00000000000E+00  0.74505805969E-08  0.10566000000E+00  0.10566000000E+00 0.  1.
     999900   -1    0    0    0    0 -0.00000000000E+00 -0.00000000000E+00 -0.74505805969E-08  0.93827000000E+00  0.93827000000E+00 0.  1.
     999902    2    1    2    0    0  0.12702487805E-01  0.20473781323E-01 -0.16463288942E-01  0.10147483482E+01  0.10143286654E+01 0.  0.
     999903    2    3    3    0    0 -0.11252423053E-01  0.52904622519E-01  0.10983626291E+00  0.12481735425E+00  0.24286851680E-01 0.  0.
         14    1    1    2    0    0 -0.12702487805E-01 -0.20473781323E-01  0.16463288942E-01  0.29181651785E-01  0.00000000000E+00 0.  1.
     999901    1    3    3    0    0  0.23954910858E-01 -0.32430841196E-01 -0.12629955185E+00  0.88993099396E+00  0.88000000000E+00 0.  1.
        -11    1    4    4    0    0  0.50278403021E-02  0.32334247129E-01  0.67385682429E-01  0.74912442444E-01  0.51100000000E-03 0. -1.
         11    1    4    4    0    0 -0.16280263355E-01  0.20570375390E-01  0.42450580481E-01  0.49904911810E-01  0.51100000000E-03 0.  1.
</event>
<event>
 8    1  0.1150381E+005  0.1043930E+01  0.7957747E-01            NaN
         13   -1    0    0    0    0  0.00000000000E+00  0.00000000000E+00  0.74505805969E-08  0.10566000000E+00  0.10566000000E+00 0. -1.
     999900   -1    0    0    0    0 -0.00000000000E+00 -0.00000000000E+00 -0.74505805969E-08  0.93827000000E+00  0.93827000000E+00 0.  1.
     999902    2    1    2    0    0 -0.11898365608E-01  0.16108434437E-02  0.21572054643E-01  0.10192415520E+01  0.10189425018E+01 0.  0.
     999903    2    3    3    0    0 -0.75083693655E-01  0.92095544695E-01 -0.43369441722E-01  0.12997372693E+00  0.29884959612E-01 0.  0.
         14    1    1    2    0    0  0.11898365608E-01 -0.16108434437E-02 -0.21572054643E-01  0.24688447952E-01  0.00000000000E+00 0.  1.
     999901    1    3    3    0    0  0.63185328047E-01 -0.90484701252E-01  0.64941496365E-01  0.88926782512E+00  0.88000000000E+00 0.  1.
        -11    1    4    4    0    0 -0.26312173667E-01  0.54979309347E-01 -0.26020384793E-01  0.66275006489E-01  0.51100000000E-03 0.  1.
         11    1    4    4    0    0 -0.48771519988E-01  0.37116235348E-01 -0.17349056929E-01  0.63698720440E-01  0.51100000000E-03 0. -1.
</event>
<event>
 8    1  0.1091347E+005  0.1043930E+01  0.7957747E-01            NaN
         13   -1    0    0    0    0  0.00000000000E+00  0.00000000000E+00  0.74505805969E-08  0.10566000000E+00  0.10566000000E+00 0.  1.
     999900   -1    0    0    0    0 -0.00000000000E+00 -0.00000000000E+00 -0.74505805969E-08  0.93827000000E+00  0.93827000000E+00 0.  1.
     999902    2    1    2    0    0  0.18714741125E-01  0.13170622879E-01  0.84800171166E-02  0.10195247233E+01  0.10192325759E+01 0.  0.
     999903    2    3    3    0    0 -0.67975981567E-01  0.10811098291E+00 -0.13127437624E-01  0.12992040927E+00  0.19956563642E-01 0.  0.
         14    1    1    2    0    0 -0.18714741125E-01 -0.13170622879E-01 -0.84800171166E-02  0.24405276739E-01  0.00000000000E+00 0. -1.
     999901    1    3    3    0    0  0.86690722692E-01 -0.94940360028E-01  0.21607454741E-01  0.88960431399E+00  0.88000000000E+00 0.  1.
        -11    1    4    4    0    0 -0.45039342521E-01  0.79817158701E-01 -0.17259634480E-01  0.93260266466E-01  0.51100000000E-03 0.  1.
         11    1    4    4    0    0 -0.22936639046E-01  0.28293824205E-01  0.41321968561E-02  0.36660142809E-01  0.51100000000E-03 0. -1.
</event>
<event>
 8    1  0.1091347E+005  0.1043930E+01  0.7957747E-01            NaN
         13   -1    0    0    0    0  0.00000000000E+00  0.00000000000E+00  0.74505805969E-08  0.10566000000E+00  0.10566000000E+00 0.  1.
     999900   -1    0    0    0    0 -0.00000000000E+00 -0.00000000000E+00 -0.74505805969E-08  0.93827000000E+00  0.93827000000E+00 0. -1.
     999902    2    1    2    0    0 -0.11513613968E-02 -0.22186310340E-01  0.71587428053E-02  0.10205889289E+01  0.10203219866E+01 0.  0.
     999903    2    3    3    0    0 -0.69299570528E-01  0.83267927796E-01  0.68268968903E-01  0.12957869641E+00  0.19849639106E-01 0.  0.
         14    1    1    2    0    0  0.11513613968E-02  0.22186310340E-01 -0.71587428053E-02  0.23341071058E-01  0.00000000000E+00 0. -1.
     999901    1    3    3    0    0  0.68148209131E-01 -0.10545423814E+00 -0.61110226098E-01  0.89101023254E+00  0.88000000000E+00 0. -1.
        -11    1    4    4    0    0 -0.45324586864E-01  0.48579512729E-01  0.52028648765E-01  0.84389150041E-01  0.51100000000E-03 0.  1.
         11    1    4    4    0    0 -0.23974983664E-01  0.34688415067E-01  0.16240320138E-01  0.45189546366E-01  0.51100000000E-03 0. -1.
</event>
<event>
 8    1  0.1091347E+005  0.1043930E+01  0.7957747E-01            NaN
         13   -1    0    0    0    0  0.00000000000E+00  0.00000000000E+00  0.74505805969E-08  0.10566000000E+00  0.10566000000E+00 0.  1.
     999900   -1    0    0    0    0 -0.00000000000E+00 -0.00000000000E+00 -0.74505805969E-08  0.93827000000E+00  0.93827000000E+00 0.  1.
     999902    2    1    2    0    0 -0.15576722907E-01 -0.50473850743E-02 -0.17876558425E-01  0.10196878521E+01  0.10193996439E+01 0.  0.
     999903    2    3    3    0    0  0.85529567262E-01 -0.62736029003E-01 -0.73004064408E-01  0.13031194539E+00  0.20012333230E-01 0.  0.
         14    1    1    2    0    0  0.15576722907E-01  0.50473850743E-02  0.17876558425E-01  0.24242147878E-01  0.00000000000E+00 0.  1.
     999901    1    3    3    0    0 -0.10110629017E+00  0.57688643929E-01  0.55127505983E-01  0.88937590673E+00  0.88000000000E+00 0. -1.
        -11    1    4    4    0    0  0.76033653052E-01 -0.47334193825E-01 -0.64099017872E-01  0.11013894640E+00  0.51100000000E-03 0.  1.
         11    1    4    4    0    0  0.94959142106E-02 -0.15401835178E-01 -0.89050465366E-02  0.20172998993E-01  0.51100000000E-03 0. -1.
</event>
<event>
 7    1  0.1091347E+005  0.1043930E+01  0.7957747E-01            NaN
         13   -1    0    0    0    0  0.00000000000E+00  0.00000000000E+00  0.74505805969E-08  0.10566000000E+00  0.10566000000E+00 0.  1.
     999900   -1    0    0    0    0 -0.00000000000E+00 -0.00000000000E+00 -0.74505805969E-08  0.93827000000E+00  0.93827000000E+00 0. -1.
     999903    2    1    2    0    0 -0.39205349222E-01 -0.58667838046E-01  0.78352293981E-01  0.10711389598E+00  0.18850201895E-01 0.  0.
         14    1    1    2    0    0 -0.21990528943E-01 -0.25236676258E-01  0.28924829840E-01  0.44239337394E-01  0.00000000000E+00 0.  1.
     999901    1    1    2    0    0  0.61195878164E-01  0.83904514304E-01 -0.10727712382E+00  0.89257676663E+00  0.88000000000E+00 0.  1.
        -11    1    3    3    0    0 -0.13057090548E-01 -0.66767988133E-02  0.18761080155E-01  0.23818196941E-01  0.51100000000E-03 0.  1.
         11    1    3    3    0    0 -0.26148258674E-01 -0.51991039232E-01  0.59591213826E-01  0.83295699039E-01  0.51100000000E-03 0. -1.
</event>
<event>
 8    1  0.1091347E+005  0.1043930E+01  0.7957747E-01            NaN
         13   -1    0    0    0    0  0.00000000000E+00  0.00000000000E+00  0.74505805969E-08  0.10566000000E+00  0.10566000000E+00 0. -1.
     999900   -1    0    0    0    0 -0.00000000000E+00 -0.00000000000E+00 -0.74505805969E-08  0.93827000000E+00  0.93827000000E+00 0. -1.
     999902    2    1    2    0    0 -0.18761938193E-01  0.88414380467E-02 -0.17143744596E-01  0.10170210920E+01  0.10166650443E+01 0.  0.
     999903    2    3    3    0    0 -0.73344278836E-01  0.60271334450E-01  0.83388946071E-01  0.12812791053E+00  0.21237423000E-01 0.  0.
         14    1    1    2    0    0  0.18761938193E-01 -0.88414380467E-02  0.17143744596E-01  0.26908908009E-01  0.00000000000E+00 0. -1.
     999901    1    3    3    0    0  0.54582340643E-01 -0.51429896403E-01 -0.10053269067E+00  0.88889318146E+00  0.88000000000E+00 0. -1.
        -11    1    4    4    0    0 -0.66373521149E-01  0.61033807458E-01  0.78617032734E-01  0.11963055178E+00  0.51100000000E-03 0. -1.
         11    1    4    4    0    0 -0.69707576868E-02 -0.76247300806E-03  0.47719133373E-02  0.84973587493E-02  0.51100000000E-03 0.  1.
</event>
<event>
 8    1  0.1091347E+005  0.1043930E+01  0.7957747E-01            NaN
         13   -1    0    0    0    0  0.00000000000E+00  0.00000000000E+00  0.74505805969E-08  0.10566000000E+00  0.10566000000E+00 0. -1.
     999900   -1    0    0    0    0 -0.00000000000E+00 -0.00000000000E+00 -0.74505805969E-08  0.93827000000E+00  0.93827000000E+00 0. -1.
     999902    2    1    2    0    0  0.61595300503E-02  0.82139296283E-02  0.22912940134E-01  0.10188220077E+01  0.10185125783E+01 0.  0.
     999903    2    3    3    0    0 -0.59431736613E-01 -0.21415239508E-01  0.11381906766E+00  0.13121622477E+00  0.16497687095E-01 0.  0.
         14    1    1    2    0    0 -0.61595300503E-02 -0.82139296283E-02 -0.22912940134E-01  0.25107992273E-01  0.00000000000E+00 0.  1.
     999901    1    3    3    0    0  0.65591266664E-01  0.29629169136E-01 -0.90906127523E-01  0.88760578296E+00  0.88000000000E+00 0. -1.
        -11    1    4    4    0    0 -0.47432251201E-01 -0.96657534889E-02  0.87258271507E-01  0.99787335428E-01  0.51100000000E-03 0.  1.
         11    1    4    4    0    0 -0.11999485412E-01 -0.11749486019E-01  0.26560796150E-01  0.31428889337E-01  0.51100000000E-03 0. -1.
</event>
<event>
 8    1  0.1091347E+005  0.1043930E+01  0.7957747E-01            NaN
         13   -1    0    0    0    0  0.00000000000E+00  0.00000000000E+00  0.74505805969E-08  0.10566000000E+00  0.10566000000E+00 0. -1.
     999900   -1    0    0    0    0 -0.00000000000E+00 -0.00000000000E+00 -0.74505805969E-08  0.93827000000E+00  0.93827000000E+00 0. -1.
     999902    2    1    2    0    0 -0.17577422280E-01  0.13240213335E-01  0.59727387903E-02  0.10211277494E+01  0.10208731253E+01 0.  0.
     999903    2    3    3    0    0 -0.12916129386E+00  0.13632549633E-01  0.25673266740E-01  0.13386272411E+00  0.19789543679E-01 0.  0.
         14    1    1    2    0    0  0.17577422280E-01 -0.13240213335E-01 -0.59727387903E-02  0.22802250587E-01  0.00000000000E+00 0.  1.
     999901    1    3    3    0    0  0.11158387158E+00 -0.39233629763E-03 -0.19700527950E-01  0.88726502530E+00  0.88000000000E+00 0. -1.
        -11    1    4    4    0    0 -0.65079688603E-01 -0.30215426109E-02  0.11769182710E-01  0.66206271388E-01  0.51100000000E-03 0.  1.
         11    1    4    4    0    0 -0.64081605260E-01  0.16654092244E-01  0.13904084030E-01  0.67656452722E-01  0.51100000000E-03 0. -1.
</event>
<event>
 8    1  0.1091347E+005  0.1043930E+01  0.7957747E-01            NaN
         13   -1    0    0    0    0  0.00000000000E+00  0.00000000000E+00  0.74505805969E-08  0.10566000000E+00  0.10566000000E+00 0. -1.
     999900   -1    0    0    0    0 -0.00000000000E+00 -0.00000000000E+00 -0.74505805969E-08  0.93827000000E+00  0.93827000000E+00 0.  1.
     999902    2    1    2    0    0  0.12522434301E-02 -0.20759611676E-01  0.98205783820E-02  0.10209305793E+01  0.10206714822E+01 0.  0.
     999903    2    3    3    0    0  0.61094157484E-01 -0.36077212220E-01 -0.10807809847E+00  0.13092171334E+00  0.20629065300E-01 0.  0.
         14    1    1    2    0    0 -0.12522434301E-02  0.20759611676E-01 -0.98205783820E-02  0.22999420652E-01  0.00000000000E+00 0.  1.
     999901    1    3    3    0    0 -0.59841914054E-01  0.15317600544E-01  0.11789867685E+00  0.89000886601E+00  0.88000000000E+00 0.  1.
        -11    1    4    4    0    0  0.19909813241E-01 -0.21402962147E-01 -0.33426555611E-01  0.44408143318E-01  0.51100000000E-03 0.  1.
         11    1    4    4    0    0  0.41184344244E-01 -0.14674250073E-01 -0.74651542860E-01  0.86513570024E-01  0.51100000000E-03 0. -1.
</event>
<event>
 8    1  0.1091347E+005  0.1043930E+01  0.7957747E-01            NaN
         13   -1    0    0    0    0  0.00000000000E+00  0.00000000000E+00  0.74505805969E-08  0.10566000000E+00  0.10566000000E+00 0. -1.
     999900   -1    0    0    0    0 -0.00000000000E+00 -0.00000000000E+00 -0.74505805969E-08  0.93827000000E+00  0.93827000000E+00 0. -1.
     999902    2    1    2    0    0  0.90970192670E-02 -0.86028642730E-02  0.19915346945E-01  0.10204058406E+01  0.10201346447E+01 0.  0.
     999903    2    3    3    0    0  0.88411984232E-01  0.91170293825E-01 -0.20640880676E-01  0.13029890635E+00  0.20568364245E-01 0.  0.
         14    1    1    2    0    0 -0.90970192670E-02  0.86028642730E-02 -0.19915346945E-01  0.23524159437E-01  0.00000000000E+00 0.  1.
     999901    1    3    3    0    0 -0.79314964965E-01 -0.99773158098E-01  0.40556227622E-01  0.89010693422E+00  0.88000000000E+00 0.  1.
        -11    1    4    4    0    0  0.33332315742E-01  0.47246491766E-01 -0.43348215673E-02  0.57985567652E-01  0.51100000000E-03 0.  1.
         11    1    4    4    0    0  0.55079668490E-01  0.43923802059E-01 -0.16306059109E-01  0.72313338693E-01  0.51100000000E-03 0. -1.
</event>
<event>
 8    1  0.1091347E+005  0.1043930E+01  0.7957747E-01            NaN
         13   -1    0    0    0    0  0.00000000000E+00  0.00000000000E+00  0.74505805969E-08  0.10566000000E+00  0.10566000000E+00 0. -1.
     999900   -1    0    0    0    0 -0.00000000000E+00 -0.00000000000E+00 -0.74505805969E-08  0.93827000000E+00  0.93827000000E+00 0. -1.
     999902    2    1    2    0    0  0.51465657665E-02  0.14395702430E-01  0.17522040135E-01  0.10206760696E+01  0.10204111396E+01 0.  0.
     999903    2    3    3    0    0 -0.33231784695E-01  0.29905301242E-01  0.12393324149E+00  0.13329971811E+00  0.20265437207E-01 0.  0.
         14    1    1    2    0    0 -0.51465657665E-02 -0.14395702430E-01 -0.17522040135E-01  0.23253930381E-01  0.00000000000E+00 0.  1.
     999901    1    3    3    0    0  0.38378350462E-01 -0.15509598811E-01 -0.10641120136E+00  0.88737635151E+00  0.88000000000E+00 0. -1.
        -11    1    4    4    0    0 -0.42379999135E-02  0.15971157092E-01  0.34517107334E-01  0.38271795383E-01  0.51100000000E-03 0. -1.
         11    1    4    4    0    0 -0.28993784782E-01  0.13934144150E-01  0.89416134160E-01  0.95027922729E-01  0.51100000000E-03 0.  1.
</event>
<event>
 8    1  0.1091347E+005  0.1043930E+01  0.7957747E-01            NaN
         13   -1    0    0    0    0  0.00000000000E+00  0.00000000000E+00  0.74505805969E-08  0.10566000000E+00  0.10566000000E+00 0.  1.
     999900   -1    0    0    0    0 -0.00000000000E+00 -0.00000000000E+00 -0.74505805969E-08  0.93827000000E+00  0.93827000000E+00 0.  1.
     999902    2    1    2    0    0 -0.12050319768E-01 -0.16509624889E-01  0.12189909690E-01  0.10201314324E+01  0.10198537972E+01 0.  0.
     999903    2    3    3    0    0 -0.47328233610E-01  0.11385614788E+00 -0.33868224521E-01  0.12863767605E+00  0.14050301093E-01 0.  0.
         14    1    1    2    0    0  0.12050319768E-01  0.16509624889E-01 -0.12189909690E-01  0.23798567577E-01  0.00000000000E+00 0. -1.
     999901    1    3    3    0    0  0.35277913842E-01 -0.13036577277E+00  0.46058134211E-01  0.89149375637E+00  0.88000000000E+00 0. -1.
        -11    1    4    4    0    0  0.64032344138E-03  0.21120736183E-02 -0.17478453315E-02  0.28612852674E-02  0.51100000000E-03 0.  1.
         11    1    4    4    0    0 -0.47968557051E-01  0.11174407427E+00 -0.32120379189E-01  0.12577639079E+00  0.51100000000E-03 0. -1.
</event>
<event>
 8    1  0.1091347E+005  0.1043930E+01  0.7957747E-01            NaN
         13   -1    0    0    0    0  0.00000000000E+00  0.00000000000E+00  0.74505805969E-08  0.10566000000E+00  0.10566000000E+00 0. -1.
     999900   -1    0    0    0    0 -0.00000000000E+00 -0.00000000000E+00 -0.74505805969E-08  0.93827000000E+00  0.93827000000E+00 0. -1.
     999902    2    1    2    0    0 -0.50776094235E-02  0.22501103645E-01 -0.15786090612E-02  0.10208091482E+01  0.10205472763E+01 0.  0.
     999903    2    3    3    0    0  0.21208481978E-01 -0.75858187201E-01  0.10037623845E+00  0.12909153613E+00  0.19620682501E-01 0.  0.
         14    1    1    2    0    0  0.50776094235E-02 -0.22501103645E-01  0.15786090612E-02  0.23120851828E-01  0.00000000000E+00 0.  1.
     999901    1    3    3    0    0 -0.26286091402E-01  0.98359290846E-01 -0.10195484751E+00  0.89171761204E+00  0.88000000000E+00 0. -1.
        -11    1    4    4    0    0  0.17623883811E-01 -0.60738494502E-01  0.91370937588E-01  0.11112459382E+00  0.51100000000E-03 0. -1.
         11    1    4    4    0    0  0.35845981669E-02 -0.15119692699E-01  0.90053008596E-02  0.17966942308E-01  0.51100000000E-03 0.  1.
</event>
<event>
 8    1  0.1091347E+005  0.1043930E+01  0.7957747E-01            NaN
         13   -1    0    0    0    0  0.00000000000E+00  0.00000000000E+00  0.74505805969E-08  0.10566000000E+00  0.10566000000E+00 0.  1.
     999900   -1    0    0    0    0 -0.00000000000E+00 -0.00000000000E+00 -0.74505805969E-08  0.93827000000E+00  0.93827000000E+00 0.  1.
     999902    2    1    2    0    0 -0.14028687079E-01  0.46127059291E-02 -0.17104754914E-01  0.10213323506E+01  0.10210823261E+01 0.  0.
     999903    2    3    3    0    0 -0.78799960088E-01 -0.32000178998E-01 -0.10179825894E+00  0.13414082069E+00  0.19935623542E-01 0.  0.
         14    1    1    2    0    0  0.14028687079E-01 -0.46127059291E-02  0.17104754914E-01  0.22597649387E-01  0.00000000000E+00 0.  1.
     999901    1    3    3    0    0  0.64771273009E-01  0.36612884927E-01  0.84693504023E-01  0.88719152993E+00  0.88000000000E+00 0. -1.
        -11    1    4    4    0    0 -0.58937090330E-01 -0.19600806645E-01 -0.85187666931E-01  0.10542756734E+00  0.51100000000E-03 0.  1.
         11    1    4    4    0    0 -0.19862869758E-01 -0.12399372353E-01 -0.16610592006E-01  0.28713253343E-01  0.51100000000E-03 0. -1.
</event>
<event>
 8    1  0.1091347E+005  0.1043930E+01  0.7957747E-01            NaN
         13   -1    0    0    0    0  0.00000000000E+00  0.00000000000E+00  0.74505805969E-08  0.10566000000E+00  0.10566000000E+00 0.  1.
     999900   -1    0    0    0    0 -0.00000000000E+00 -0.00000000000E+00 -0.74505805969E-08  0.93827000000E+00  0.93827000000E+00 0. -1.
     999902    2    1    2    0    0 -0.11045792483E-01 -0.17063219532E-01  0.11060517357E-01  0.10207891695E+01  0.10205268397E+01 0.  0.
     999903    2    3    3    0    0  0.19031193925E-01 -0.56828933404E-01  0.11696591979E+00  0.13303813943E+00  0.20649603786E-01 0.  0.
         14    1    1    2    0    0  0.11045792483E-01  0.17063219532E-01 -0.11060517357E-01  0.23140830508E-01  0.00000000000E+00 0. -1.
     999901    1    3    3    0    0 -0.30076986407E-01  0.39765713872E-01 -0.10590540243E+00  0.88775103006E+00  0.88000000000E+00 0. -1.
        -11    1    4    4    0    0  0.72371267428E-02 -0.44942536442E-01  0.95614720341E-01  0.10589921365E+00  0.51100000000E-03 0.  1.
         11    1    4    4    0    0  0.11794067182E-01 -0.11886396962E-01  0.21351199450E-01  0.27138925778E-01  0.51100000000E-03 0. -1.
</event>
<event>
 8    1  0.1091347E+005  0.1043930E+01  0.7957747E-01            NaN
         13   -1    0    0    0    0  0.00000000000E+00  0.00000000000E+00  0.74505805969E-08  0.10566000000E+00  0.10566000000E+00 0.  1.
     999900   -1    0    0    0    0 -0.00000000000E+00 -0.00000000000E+00 -0.74505805969E-08  0.93827000000E+00  0.93827000000E+00 0. -1.
     999902    2    1    2    0    0 -0.73397578575E-02 -0.68002851385E-03 -0.23295688453E-01  0.10194959339E+01  0.10192030886E+01 0.  0.
     999903    2    3    3    0    0 -0.99479297600E-01  0.34585885735E-01 -0.77259490415E-01  0.13234010128E+00  0.21273443617E-01 0.  0.
         14    1    1    2    0    0  0.73397578575E-02  0.68002851385E-03  0.23295688453E-01  0.24434066070E-01  0.00000000000E+00 0.  1.
     999901    1    3    3    0    0  0.92139539742E-01 -0.35265914248E-01  0.53963801962E-01  0.88715583266E+00  0.88000000000E+00 0.  1.
        -11    1    4    4    0    0 -0.59624685325E-01  0.30653740231E-01 -0.53474225290E-01  0.85758432715E-01  0.51100000000E-03 0.  1.
         11    1    4    4    0    0 -0.39854612275E-01  0.39321455035E-02 -0.23785265125E-01  0.46581668561E-01  0.51100000000E-03 0. -1.
</event>
<event>
 8    1  0.1091347E+005  0.1043930E+01  0.7957747E-01            NaN
         13   -1    0    0    0    0  0.00000000000E+00  0.00000000000E+00  0.74505805969E-08  0.10566000000E+00  0.10566000000E+00 0. -1.
     999900   -1    0    0    0    0 -0.00000000000E+00 -0.00000000000E+00 -0.74505805969E-08  0.93827000000E+00  0.93827000000E+00 0.  1.
     999902    2    1    2    0    0  0.19316452725E-01 -0.11671983305E-01 -0.13637860139E-01  0.10175604765E+01  0.10172187432E+01 0.  0.
     999903    2    3    3    0    0 -0.36226131912E-01 -0.11071973223E+00 -0.52642429785E-01  0.12940689084E+00  0.20092940180E-01 0.  0.
         14    1    1    2    0    0 -0.19316452725E-01  0.11671983305E-01  0.13637860139E-01  0.26369523495E-01  0.00000000000E+00 0.  1.
     999901    1    3    3    0    0  0.55542584637E-01  0.99047748925E-01  0.39004569646E-01  0.88815358566E+00  0.88000000000E+00 0. -1.
        -11    1    4    4    0    0 -0.26721610922E-02 -0.24008849543E-01 -0.18217589932E-01  0.30260651104E-01  0.51100000000E-03 0. -1.
         11    1    4    4    0    0 -0.33553970820E-01 -0.86710882687E-01 -0.34424839853E-01  0.99146239737E-01  0.51100000000E-03 0.  1.
</event>
<event>
 8    1  0.1091347E+005  0.1043930E+01  0.7957747E-01            NaN
         13   -1    0    0    0    0  0.00000000000E+00  0.00000000000E+00  0.74505805969E-08  0.10566000000E+00  0.10566000000E+00 0. -1.
     999900   -1    0    0    0    0 -0.00000000000E+00 -0.00000000000E+00 -0.74505805969E-08  0.93827000000E+00  0.93827000000E+00 0.  1.
     999902    2    1    2    0    0 -0.17913438347E-01 -0.64782850806E-02 -0.13668243750E-01  0.10204847374E+01  0.10202153787E+01 0.  0.
     999903    2    3    3    0    0 -0.26190865075E-01 -0.20220884497E-01  0.12455209612E+00  0.12955138570E+00  0.13247313139E-01 0.  0.
         14    1    1    2    0    0  0.17913438347E-01  0.64782850806E-02  0.13668243750E-01  0.23445262596E-01  0.00000000000E+00 0. -1.
     999901    1    3    3    0    0  0.82774267278E-02  0.13742599416E-01 -0.13822033987E+00  0.89093335171E+00  0.88000000000E+00 0.  1.
        -11    1    4    4    0    0 -0.20525074225E-02 -0.85458217836E-02  0.28960566137E-01  0.30269115756E-01  0.51100000000E-03 0. -1.
         11    1    4    4    0    0 -0.24138357653E-01 -0.11675062713E-01  0.95591529980E-01  0.99282269940E-01  0.51100000000E-03 0.  1.
</event>
<event>
 8    1  0.1091347E+005  0.1043930E+01  0.7957747E-01            NaN
         13   -1    0    0    0    0  0.00000000000E+00  0.00000000000E+00  0.74505805969E-08  0.10566000000E+00  0.10566000000E+00 0.  1.
     999900   -1    0    0    0    0 -0.00000000000E+00 -0.00000000000E+00 -0.74505805969E-08  0.93827000000E+00  0.93827000000E+00 0.  1.
     999902    2    1    2    0    0  0.11537078828E-01 -0.16291076656E-03 -0.19369317318E-01  0.10213844643E+01  0.10211356045E+01 0.  0.
     999903    2    3    3    0    0 -0.35145027662E-01 -0.12394714101E+00 -0.10641788097E-01  0.13145304866E+00  0.23845117220E-01 0.  0.
         14    1    1    2    0    0 -0.11537078828E-01  0.16291076656E-03  0.19369317318E-01  0.22545535726E-01  0.00000000000E+00 0.  1.
     999901    1    3    3    0    0  0.46682106490E-01  0.12378423024E+00 -0.87275292212E-02  0.88993141561E+00  0.88000000000E+00 0. -1.
        -11    1    4    4    0    0 -0.31436166578E-01 -0.10865201524E+00 -0.12461975926E-02  0.11311634327E+00  0.51100000000E-03 0. -1.
         11    1    4    4    0    0 -0.37088610836E-02 -0.15295125769E-01 -0.93955905040E-02  0.18336705395E-01  0.51100000000E-03 0.  1.
</event>
<event>
 8    1  0.1091347E+005  0.1043930E+01  0.7957747E-01            NaN
         13   -1    0    0    0    0  0.00000000000E+00  0.00000000000E+00  0.74505805969E-08  0.10566000000E+00  0.10566000000E+00 0.  1.
     999900   -1    0    0    0    0 -0.00000000000E+00 -0.00000000000E+00 -0.74505805969E-08  0.93827000000E+00  0.93827000000E+00 0.  1.
     999902    2    1    2    0    0  0.20418002448E-02 -0.21833554115E-01 -0.22819375267E-02  0.10218827718E+01  0.10216449085E+01 0.  0.
     999903    2    3    3    0    0 -0.12847800916E+00  0.15150190423E-01 -0.12273755649E-01  0.13143173189E+00  0.19685729910E-01 0.  0.
         14    1    1    2    0    0 -0.20418002448E-02  0.21833554115E-01  0.22819375267E-02  0.22047228225E-01  0.00000000000E+00 0.  1.
     999901    1    3    3    0    0  0.13051980940E+00 -0.36983744538E-01  0.99918181218E-02  0.89045103989E+00  0.88000000000E+00 0. -1.
        -11    1    4    4    0    0 -0.35620771358E-01  0.11101729122E-01  0.21324054004E-02  0.37375072113E-01  0.51100000000E-03 0. -1.
         11    1    4    4    0    0 -0.92857237801E-01  0.40484613003E-02 -0.14406161049E-01  0.94056659775E-01  0.51100000000E-03 0.  1.
</event>
<event>
 8    1  0.1091347E+005  0.1043930E+01  0.7957747E-01            NaN
         13   -1    0    0    0    0  0.00000000000E+00  0.00000000000E+00  0.74505805969E-08  0.10566000000E+00  0.10566000000E+00 0. -1.
     999900   -1    0    0    0    0 -0.00000000000E+00 -0.00000000000E+00 -0.74505805969E-08  0.93827000000E+00  0.93827000000E+00 0.  1.
     999902    2    1    2    0    0  0.18069984820E-01  0.20782105158E-02  0.17476271711E-01  0.10187057382E+01  0.10183934002E+01 0.  0.
     999903    2    3    3    0    0 -0.69102897596E-01 -0.89040789137E-01  0.57243274975E-01  0.12882754537E+00  0.24824812792E-01 0.  0.
         14    1    1    2    0    0 -0.18069984820E-01 -0.20782105158E-02 -0.17476271711E-01  0.25224261799E-01  0.00000000000E+00 0.  1.
     999901    1    3    3    0    0  0.87172882416E-01  0.91118999653E-01 -0.39767003264E-01  0.88987819283E+00  0.88000000000E+00 0.  1.
        -11    1    4    4    0    0 -0.39868336468E-01 -0.53936380189E-01  0.20314368580E-01  0.70082466084E-01  0.51100000000E-03 0.  1.
         11    1    4    4    0    0 -0.29234561128E-01 -0.35104408948E-01  0.36928906395E-01  0.58745079287E-01  0.51100000000E-03 0. -1.
</event>
<event>
 8    1  0.1091347E+005  0.1043930E+01  0.7957747E-01            NaN
         13   -1    0    0    0    0  0.00000000000E+00  0.00000000000E+00  0.74505805969E-08  0.10566000000E+00  0.10566000000E+00 0. -1.
     999900   -1    0    0    0    0 -0.00000000000E+00 -0.00000000000E+00 -0.74505805969E-08  0.93827000000E+00  0.93827000000E+00 0.  1.
     999902    2    1    2    0    0 -0.20153453469E-02 -0.10681393536E-01 -0.21075854400E-01  0.10202161765E+01  0.10199405382E+01 0.  0.
     999903    2    3    3    0    0 -0.12347501434E-01  0.10554925434E+00  0.68532203288E-01  0.12800212096E+00  0.19868925464E-01 0.  0.
         14    1    1    2    0    0  0.20153453469E-02  0.10681393536E-01  0.21075854400E-01  0.23713823467E-01  0.00000000000E+00 0. -1.
     999901    1    3    3    0    0  0.10332156087E-01 -0.11623064788E+00 -0.89608057688E-01  0.89221405557E+00  0.88000000000E+00 0.  1.
        -11    1    4    4    0    0 -0.81263881110E-02  0.75008715036E-01  0.37498503018E-01  0.84254046577E-01  0.51100000000E-03 0.  1.
         11    1    4    4    0    0 -0.42211133234E-02  0.30540539308E-01  0.31033700271E-01  0.43748074385E-01  0.51100000000E-03 0. -1.
</event>
<event>
 8    1  0.1091347E+005  0.1043930E+01  0.7957747E-01            NaN
         13   -1    0    0    0    0  0.00000000000E+00  0.00000000000E+00  0.74505805969E-08  0.10566000000E+00  0.10566000000E+00 0.  1.
     999900   -1    0    0    0    0 -0.00000000000E+00 -0.00000000000E+00 -0.74505805969E-08  0.93827000000E+00  0.93827000000E+00 0. -1.
     999902    2    1    2    0    0 -0.17568452157E-01  0.15213156811E-01  0.21280289298E-02  0.10205929231E+01  0.10203260731E+01 0.  0.
     999903    2    3    3    0    0  0.11348286943E+00 -0.11496929375E-01  0.55822102757E-01  0.12886934981E+00  0.21923985128E-01 0.  0.
         14    1    1    2    0    0  0.17568452157E-01 -0.15213156811E-01 -0.21280289298E-02  0.23337076905E-01  0.00000000000E+00 0. -1.
     999901    1    3    3    0    0 -0.13105132159E+00  0.26710086186E-01 -0.53694073827E-01  0.89172357329E+00  0.88000000000E+00 0. -1.
        -11    1    4    4    0    0  0.59736908175E-01 -0.15899908129E-01  0.24440850176E-01  0.66474969388E-01  0.51100000000E-03 0. -1.
         11    1    4    4    0    0  0.53745961257E-01  0.44029787532E-02  0.31381252581E-01  0.62394380419E-01  0.51100000000E-03 0.  1.
</event>
<event>
 8    1  0.1091347E+005  0.1043930E+01  0.7957747E-01            NaN
         13   -1    0    0    0    0  0.00000000000E+00  0.00000000000E+00  0.74505805969E-08  0.10566000000E+00  0.10566000000E+00 0. -1.
     999900   -1    0    0    0    0 -0.00000000000E+00 -0.00000000000E+00 -0.74505805969E-08  0.93827000000E+00  0.93827000000E+00 0.  1.
     999902    2    1    2    0    0  0.17072763754E-02 -0.14967258523E-01 -0.18915722697E-01  0.10197486397E+01  0.10194618924E+01 0.  0.
     999903    2    3    3    0    0 -0.48531930217E-02 -0.28215196144E-01  0.12331327601E+00  0.12820636046E+00  0.20274517220E-01 0.  0.
         14    1    1    2    0    0 -0.17072763754E-02  0.14967258523E-01  0.18915722697E-01  0.24181360290E-01  0.00000000000E+00 0. -1.
     999901    1    3    3    0    0  0.65604693972E-02  0.13247937621E-01 -0.14222899870E+00  0.89154227925E+00  0.88000000000E+00 0.  1.
        -11    1    4    4    0    0  0.51003402062E-02 -0.23432422993E-01  0.87206901891E-01  0.90445545916E-01  0.51100000000E-03 0. -1.
         11    1    4    4    0    0 -0.99535332280E-02 -0.47827731508E-02  0.36106374114E-01  0.37760814549E-01  0.51100000000E-03 0.  1.
</event>
<event>
 8    1  0.1091347E+005  0.1043930E+01  0.7957747E-01            NaN
         13   -1    0    0    0    0  0.00000000000E+00  0.00000000000E+00  0.74505805969E-08  0.10566000000E+00  0.10566000000E+00 0. -1.
     999900   -1    0    0    0    0 -0.00000000000E+00 -0.00000000000E+00 -0.74505805969E-08  0.93827000000E+00  0.93827000000E+00 0.  1.
     999902    2    1    2    0    0 -0.14636299158E-01 -0.96684739192E-02 -0.15874414480E-01  0.10202720695E+01  0.10199977442E+01 0.  0.
     999903    2    3    3    0    0  0.12517342072E+00  0.18854567560E-01 -0.43606526759E-02  0.12870441172E+00  0.22845794646E-01 0.  0.
         14    1    1    2    0    0  0.14636299158E-01  0.96684739192E-02  0.15874414480E-01  0.23657930511E-01  0.00000000000E+00 0. -1.
     999901    1    3    3    0    0 -0.13980971987E+00 -0.28523041480E-01 -0.11513761804E-01  0.89156765777E+00  0.88000000000E+00 0.  1.
        -11    1    4    4    0    0  0.40033631056E-01  0.16005730781E-01 -0.57815515326E-02  0.43503591719E-01  0.51100000000E-03 0.  1.
         11    1    4    4    0    0  0.85139789661E-01  0.28488367792E-02  0.14208988567E-02  0.85200820002E-01  0.51100000000E-03 0. -1.
</event>
<event>
 8    1  0.1091347E+005  0.1043930E+01  0.7957747E-01            NaN
         13   -1    0    0    0    0  0.00000000000E+00  0.00000000000E+00  0.74505805969E-08  0.10566000000E+00  0.10566000000E+00 0. -1.
     999900   -1    0    0    0    0 -0.00000000000E+00 -0.00000000000E+00 -0.74505805969E-08  0.93827000000E+00  0.93827000000E+00 0. -1.
     999902    2    1    2    0    0  0.21046754514E-01  0.16111069123E-03 -0.99277033108E-02  0.10206587490E+01  0.10203934196E+01 0.  0.
     999903    2    3    3    0    0 -0.62822643379E-01  0.65490644744E-02 -0.11271179620E+00  0.13069276555E+00  0.19674226762E-01 0.  0.
         14    1    1    2    0    0 -0.21046754514E-01 -0.16111069123E-03  0.99277033108E-02  0.23271251046E-01  0.00000000000E+00 0. -1.
     999901    1    3    3    0    0  0.83869397893E-01 -0.63879537832E-02  0.10278409289E+00  0.88996598340E+00  0.88000000000E+00 0. -1.
        -11    1    4    4    0    0 -0.17796047726E-01  0.57699868812E-02 -0.50766802175E-01  0.54106574345E-01  0.51100000000E-03 0.  1.
         11    1    4    4    0    0 -0.45026595653E-01  0.77907759320E-03 -0.61944994026E-01  0.76586191209E-01  0.51100000000E-03 0. -1.
</event>
<event>
 8    1  0.1091347E+005  0.1043930E+01  0.7957747E-01            NaN
         13   -1    0    0    0    0  0.00000000000E+00  0.00000000000E+00  0.74505805969E-08  0.10566000000E+00  0.10566000000E+00 0.  1.
     999900   -1    0    0    0    0 -0.00000000000E+00 -0.00000000000E+00 -0.74505805969E-08  0.93827000000E+00  0.93827000000E+00 0. -1.
     999902    2    1    2    0    0  0.20250391175E-01  0.57107501779E-02 -0.40433165803E-02  0.10225047948E+01  0.10222803020E+01 0.  0.
     999903    2    3    3    0    0 -0.12115895952E+00 -0.40592629595E-01 -0.20805590456E-01  0.12985616217E+00  0.10123991825E-01 0.  0.
         14    1    1    2    0    0 -0.20250391175E-01 -0.57107501779E-02  0.40433165803E-02  0.21425205234E-01  0.00000000000E+00 0.  1.
     999901    1    3    3    0    0  0.14140935070E+00  0.46303379773E-01  0.16762273875E-01  0.89264863259E+00  0.88000000000E+00 0.  1.
        -11    1    4    4    0    0 -0.13277913477E-01 -0.47096549246E-02 -0.55202194978E-02  0.15139939898E-01  0.51100000000E-03 0.  1.
         11    1    4    4    0    0 -0.10788104604E+00 -0.35882974670E-01 -0.15285370958E-01  0.11471622228E+00  0.51100000000E-03 0. -1.
</event>
<event>
 8    1  0.1091347E+005  0.1043930E+01  0.7957747E-01            NaN
         13   -1    0    0    0    0  0.00000000000E+00  0.00000000000E+00  0.74505805969E-08  0.10566000000E+00  0.10566000000E+00 0. -1.
     999900   -1    0    0    0    0 -0.00000000000E+00 -0.00000000000E+00 -0.74505805969E-08  0.93827000000E+00  0.93827000000E+00 0. -1.
     999902    2    1    2    0    0  0.17529949801E-01 -0.10581371202E-01  0.11192358182E-01  0.10205947597E+01  0.10203279523E+01 0.  0.
     999903    2    3    3    0    0 -0.11263420177E+00  0.31116944582E-01  0.50953982736E-01  0.12915634757E+00  0.20744303169E-01 0.  0.
         14    1    1    2    0    0 -0.17529949801E-01  0.10581371202E-01 -0.11192358182E-01  0.23335240265E-01  0.00000000000E+00 0. -1.
     999901    1    3    3    0    0  0.13016415157E+00 -0.41698315784E-01 -0.39761624554E-01  0.89143841216E+00  0.88000000000E+00 0.  1.
        -11    1    4    4    0    0 -0.20359243786E-01  0.16545374893E-02  0.16777658171E-01  0.26438366752E-01  0.51100000000E-03 0. -1.
         11    1    4    4    0    0 -0.92274957980E-01  0.29462407093E-01  0.34176324565E-01  0.10271798082E+00  0.51100000000E-03 0.  1.
</event>
<event>
 8    1  0.1091347E+005  0.1043930E+01  0.7957747E-01            NaN
         13   -1    0    0    0    0  0.00000000000E+00  0.00000000000E+00  0.74505805969E-08  0.10566000000E+00  0.10566000000E+00 0.  1.
     999900   -1    0    0    0    0 -0.00000000000E+00 -0.00000000000E+00 -0.74505805969E-08  0.93827000000E+00  0.93827000000E+00 0. -1.
     999902    2    1    2    0    0  0.14009088030E-01 -0.20256740350E-01 -0.39988841920E-03  0.10192977044E+01  0.10190000295E+01 0.  0.
     999903    2    3    3    0    0  0.71158479619E-01 -0.76360224208E-01 -0.78540940109E-01  0.13221277168E+00  0.20423629904E-01 0.  0.
         14    1    1    2    0    0 -0.14009088030E-01  0.20256740350E-01  0.39988841920E-03  0.24632295625E-01  0.00000000000E+00 0.  1.
     999901    1    3    3    0    0 -0.57149391590E-01  0.56103483858E-01  0.78141051690E-01  0.88708493270E+00  0.88000000000E+00 0. -1.
        -11    1    4    4    0    0  0.57819831973E-01 -0.70065554174E-01 -0.72654771662E-01  0.11632408099E+00  0.51100000000E-03 0. -1.
         11    1    4    4    0    0  0.13338647646E-01 -0.62946700340E-02 -0.58861684469E-02  0.15888690690E-01  0.51100000000E-03 0.  1.
</event>
<event>
 8    1  0.1091347E+005  0.1043930E+01  0.7957747E-01            NaN
         13   -1    0    0    0    0  0.00000000000E+00  0.00000000000E+00  0.74505805969E-08  0.10566000000E+00  0.10566000000E+00 0. -1.
     999900   -1    0    0    0    0 -0.00000000000E+00 -0.00000000000E+00 -0.74505805969E-08  0.93827000000E+00  0.93827000000E+00 0.  1.
     999902    2    1    2    0    0  0.49733050709E-02 -0.15298382542E-01 -0.17098999386E-01  0.10204534148E+01  0.10201833275E+01 0.  0.
     999903    2    3    3    0    0 -0.27454375741E-01  0.11429134870E+00  0.46592067781E-01  0.12809608451E+00  0.20531218947E-01 0.  0.
         14    1    1    2    0    0 -0.49733050709E-02  0.15298382542E-01  0.17098999386E-01  0.23476585180E-01  0.00000000000E+00 0. -1.
     999901    1    3    3    0    0  0.32427680812E-01 -0.12958973124E+00 -0.63691067167E-01  0.89235733031E+00  0.88000000000E+00 0. -1.
        -11    1    4    4    0    0 -0.88061810750E-02  0.74751154901E-01  0.34045353279E-01  0.82611326009E-01  0.51100000000E-03 0. -1.
         11    1    4    4    0    0 -0.18648194666E-01  0.39540193797E-01  0.12546714503E-01  0.45484758498E-01  0.51100000000E-03 0.  1.
</event>
<event>
 8    1  0.1091347E+005  0.1043930E+01  0.7957747E-01            NaN
         13   -1    0    0    0    0  0.00000000000E+00  0.00000000000E+00  0.74505805969E-08  0.10566000000E+00  0.10566000000E+00 0.  1.
     999900   -1    0    0    0    0 -0.00000000000E+00 -0.00000000000E+00 -0.74505805969E-08  0.93827000000E+00  0.93827000000E+00 0. -1.
     999902    2    1    2    0    0 -0.23100267313E-01 -0.29276333071E-02  0.12999176198E-02  0.10206086970E+01  0.10203422118E+01 0.  0.
     999903    2    3    3    0    0 -0.63874558697E-01  0.71486805048E-01  0.88883763890E-01  0.13219945484E+00  0.19648150840E-01 0.  0.
         14    1    1    2    0    0  0.23100267313E-01  0.29276333071E-02 -0.12999176198E-02  0.23321302976E-01  0.00000000000E+00 0. -1.
     999901    1    3    3    0    0  0.40774291385E-01 -0.74414438355E-01 -0.87583846270E-01  0.88840924219E+00  0.88000000000E+00 0. -1.
        -11    1    4    4    0    0 -0.36216173051E-01  0.26098489830E-01  0.38237693061E-01  0.58780308383E-01  0.51100000000E-03 0.  1.
         11    1    4    4    0    0 -0.27658385646E-01  0.45388315218E-01  0.50646070829E-01  0.73419146455E-01  0.51100000000E-03 0. -1.
</event>
<event>
 8    1  0.1091347E+005  0.1043930E+01  0.7957747E-01            NaN
         13   -1    0    0    0    0  0.00000000000E+00  0.00000000000E+00  0.74505805969E-08  0.10566000000E+00  0.10566000000E+00 0. -1.
     999900   -1    0    0    0    0 -0.00000000000E+00 -0.00000000000E+00 -0.74505805969E-08  0.93827000000E+00  0.93827000000E+00 0.  1.
     999902    2    1    2    0    0  0.98680374187E-03 -0.60017466816E-03 -0.13982515373E-01  0.10298998636E+01  0.10298042942E+01 0.  0.
     999903    2    3    3    0    0 -0.74623800122E-01 -0.64746613714E-02 -0.11733428189E+00  0.14061191212E+00  0.19842966949E-01 0.  0.
         14    1    1    2    0    0 -0.98680374187E-03  0.60017466816E-03  0.13982515373E-01  0.14030136400E-01  0.00000000000E+00 0. -1.
     999901    1    3    3    0    0  0.75610603864E-01  0.58744867033E-02  0.10335176652E+00  0.88928795148E+00  0.88000000000E+00 0. -1.
        -11    1    4    4    0    0 -0.62657936857E-02  0.48012062677E-02 -0.16111834351E-01  0.17948929753E-01  0.51100000000E-03 0. -1.
         11    1    4    4    0    0 -0.68358006436E-01 -0.11275867639E-01 -0.10122244754E+00  0.12266298236E+00  0.51100000000E-03 0.  1.
</event>
<event>
 8    1  0.1091347E+005  0.1043930E+01  0.7957747E-01            NaN
         13   -1    0    0    0    0  0.00000000000E+00  0.00000000000E+00  0.74505805969E-08  0.10566000000E+00  0.10566000000E+00 0. -1.
     999900   -1    0    0    0    0 -0.00000000000E+00 -0.00000000000E+00 -0.74505805969E-08  0.93827000000E+00  0.93827000000E+00 0. -1.
     999902    2    1    2    0    0 -0.16080855678E-01 -0.95437486537E-03  0.17708902764E-01  0.10199902843E+01  0.10197093067E+01 0.  0.
     999903    2    3    3    0    0  0.11167086070E+00  0.57809122328E-01 -0.15782847385E-01  0.12819695232E+00  0.19315396909E-01 0.  0.
         14    1    1    2    0    0  0.16080855678E-01  0.95437486537E-03 -0.17708902764E-01  0.23939715700E-01  0.00000000000E+00 0. -1.
     999901    1    3    3    0    0 -0.12775171638E+00 -0.58763497194E-01  0.33491750148E-01  0.89179333198E+00  0.88000000000E+00 0. -1.
        -11    1    4    4    0    0  0.38690726730E-01  0.11349685647E-01 -0.40748959824E-03  0.40326354508E-01  0.51100000000E-03 0. -1.
         11    1    4    4    0    0  0.72980133972E-01  0.46459436681E-01 -0.15375357786E-01  0.87870597809E-01  0.51100000000E-03 0.  1.
</event>
<event>
 8    1  0.1091347E+005  0.1043930E+01  0.7957747E-01            NaN
         13   -1    0    0    0    0  0.00000000000E+00  0.00000000000E+00  0.74505805969E-08  0.10566000000E+00  0.10566000000E+00 0.  1.
     999900   -1    0    0    0    0 -0.00000000000E+00 -0.00000000000E+00 -0.74505805969E-08  0.93827000000E+00  0.93827000000E+00 0. -1.
     999902    2    1    2    0    0  0.97499269831E-02  0.20491722480E-01 -0.76637470157E-02  0.10199778647E+01  0.10196965920E+01 0.  0.
     999903    2    3    3    0    0  0.24870823318E-01 -0.11182448668E+00  0.53459793697E-01  0.12786110782E+00  0.19163498553E-01 0.  0.
         14    1    1    2    0    0 -0.97499269831E-02 -0.20491722480E-01  0.76637470157E-02  0.23952135284E-01  0.00000000000E+00 0.  1.
     999901    1    3    3    0    0 -0.15120896335E-01  0.13231620916E+00 -0.61123540713E-01  0.89211675690E+00  0.88000000000E+00 0. -1.
        -11    1    4    4    0    0 -0.26994268742E-02 -0.22063870187E-01  0.11010769513E-01  0.24811276456E-01  0.51100000000E-03 0. -1.
         11    1    4    4    0    0  0.27570250192E-01 -0.89760616489E-01  0.42449024184E-01  0.10304983136E+00  0.51100000000E-03 0.  1.
</event>
<event>
 8    1  0.1091347E+005  0.1043930E+01  0.7957747E-01            NaN
         13   -1    0    0    0    0  0.00000000000E+00  0.00000000000E+00  0.74505805969E-08  0.10566000000E+00  0.10566000000E+00 0. -1.
     999900   -1    0    0    0    0 -0.00000000000E+00 -0.00000000000E+00 -0.74505805969E-08  0.93827000000E+00  0.93827000000E+00 0.  1.
     999902    2    1    2    0    0  0.21656746561E-01 -0.65565033971E-03  0.87869646301E-02  0.10205493393E+01  0.10202814801E+01 0.  0.
     999903    2    3    3    0    0 -0.10236137074E+00 -0.62382885477E-01  0.42917496576E-01  0.12905865609E+00  0.21089110468E-01 0.  0.
         14    1    1    2    0    0 -0.21656746561E-01  0.65565033971E-03 -0.87869646301E-02  0.23380660735E-01  0.00000000000E+00 0. -1.
     999901    1    3    3    0    0  0.12401811730E+00  0.61727235138E-01 -0.34130531946E-01  0.89149068317E+00  0.88000000000E+00 0. -1.
        -11    1    4    4    0    0 -0.56127147896E-01 -0.44738168326E-01  0.30804032489E-01  0.78108322058E-01  0.51100000000E-03 0.  1.
         11    1    4    4    0    0 -0.46234222839E-01 -0.17644717152E-01  0.12113464088E-01  0.50950334033E-01  0.51100000000E-03 0. -1.
</event>
<event>
 7    1  0.1091347E+005  0.1043930E+01  0.7957747E-01            NaN
         13   -1    0    0    0    0  0.00000000000E+00  0.00000000000E+00  0.74505805969E-08  0.10566000000E+00  0.10566000000E+00 0.  1.
     999900   -1    0    0    0    0 -0.00000000000E+00 -0.00000000000E+00 -0.74505805969E-08  0.93827000000E+00  0.93827000000E+00 0. -1.
     999902    2    1    2    0    0  0.10355475609E-01  0.11902826410E-01  0.18015138629E-01  0.10199830091E+01  0.10197018587E+01 0.  0.
         14    1    1    2    0    0 -0.10355475609E-01 -0.11902826410E-01 -0.18015138629E-01  0.23946990864E-01  0.00000000000E+00 0. -1.
     999901    1    3    3    0    0  0.79400244188E-01 -0.51642127414E-01  0.99130033086E-01  0.89061668049E+00  0.88000000000E+00 0.  1.
        -11    1    3    3    0    0 -0.23259139058E-01  0.29700588171E-02 -0.10588575854E-01  0.25733011070E-01  0.51100000000E-03 0.  1.
         11    1    3    3    0    0 -0.45785629521E-01  0.60574895007E-01 -0.70526318604E-01  0.10363331758E+00  0.51100000000E-03 0. -1.
</event>
<event>
 8    1  0.1091347E+005  0.1043930E+01  0.7957747E-01            NaN
         13   -1    0    0    0    0  0.00000000000E+00  0.00000000000E+00  0.74505805969E-08  0.10566000000E+00  0.10566000000E+00 0. -1.
     999900   -1    0    0    0    0 -0.00000000000E+00 -0.00000000000E+00 -0.74505805969E-08  0.93827000000E+00  0.93827000000E+00 0.  1.
     999902    2    1    2    0    0 -0.20046793194E-01 -0.80469120765E-03 -0.13507166022E-01  0.10197439507E+01  0.10194570908E+01 0.  0.
     999903    2    3    3    0    0 -0.76059029299E-01  0.31318969145E-01  0.98301950583E-01  0.13032246532E+00  0.23554568843E-01 0.  0.
         14    1    1    2    0    0  0.20046793194E-01  0.80469120765E-03  0.13507166022E-01  0.24186049269E-01  0.00000000000E+00 0.  1.
     999901    1    3    3    0    0  0.56012236105E-01 -0.32123660352E-01 -0.11180911660E+00  0.88942148541E+00  0.88000000000E+00 0.  1.
        -11    1    4    4    0    0 -0.53704596596E-01  0.27204887620E-01  0.55626970391E-01  0.81968960966E-01  0.51100000000E-03 0.  1.
         11    1    4    4    0    0 -0.22354432703E-01  0.41140815249E-02  0.42674980192E-01  0.48353504358E-01  0.51100000000E-03 0. -1.
</event>
<event>
 8    1  0.1091347E+005  0.1043930E+01  0.7957747E-01            NaN
         13   -1    0    0    0    0  0.00000000000E+00  0.00000000000E+00  0.74505805969E-08  0.10566000000E+00  0.10566000000E+00 0.  1.
     999900   -1    0    0    0    0 -0.00000000000E+00 -0.00000000000E+00 -0.74505805969E-08  0.93827000000E+00  0.93827000000E+00 0.  1.
     999902    2    1    2    0    0  0.13295807964E-01  0.18871346274E-01  0.56450929898E-02  0.10201650406E+01  0.10198881982E+01 0.  0.
     999903    2    3    3    0    0 -0.34900334049E-01  0.49229665807E-01  0.11532698347E+00  0.13152866236E+00  0.18917785116E-01 0.  0.
         14    1    1    2    0    0 -0.13295807964E-01 -0.18871346274E-01 -0.56450929898E-02  0.23764959383E-01  0.00000000000E+00 0.  1.
     999901    1    3    3    0    0  0.48196142013E-01 -0.30358319533E-01 -0.10968189048E+00  0.88863637826E+00  0.88000000000E+00 0.  1.
        -11    1    4    4    0    0 -0.33171173111E-01  0.33531059385E-01  0.80865374387E-01  0.93616924564E-01  0.51100000000E-03 0. -1.
         11    1    4    4    0    0 -0.17291609382E-02  0.15698606422E-01  0.34461609079E-01  0.37911737793E-01  0.51100000000E-03 0.  1.
</event>
<event>
 8    1  0.1091347E+005  0.1043930E+01  0.7957747E-01            NaN
         13   -1    0    0    0    0  0.00000000000E+00  0.00000000000E+00  0.74505805969E-08  0.10566000000E+00  0.10566000000E+00 0.  1.
     999900   -1    0    0    0    0 -0.00000000000E+00 -0.00000000000E+00 -0.74505805969E-08  0.93827000000E+00  0.93827000000E+00 0. -1.
     999902    2    1    2    0    0  0.54207993711E-02 -0.22049275674E-01 -0.53314977332E-02  0.10206066106E+01  0.10203400772E+01 0.  0.
     999903    2    3    3    0    0 -0.29059742805E-01 -0.67957662108E-01 -0.10789902843E+00  0.13279098445E+00  0.22989839617E-01 0.  0.
         14    1    1    2    0    0 -0.54207993711E-02  0.22049275674E-01  0.53314977332E-02  0.23323389369E-01  0.00000000000E+00 0.  1.
     999901    1    3    3    0    0  0.34480542176E-01  0.45908386434E-01  0.10256753069E+00  0.88781562618E+00  0.88000000000E+00 0.  1.
        -11    1    4    4    0    0 -0.25881342169E-01 -0.62532300108E-01 -0.10672378639E+00  0.12637389023E+00  0.51100000000E-03 0.  1.
         11    1    4    4    0    0 -0.31784006362E-02 -0.54253619996E-02 -0.11752420361E-02  0.64170942236E-02  0.51100000000E-03 0. -1.
</event>
<event>
 8    1  0.1091347E+005  0.1043930E+01  0.7957747E-01            NaN
         13   -1    0    0    0    0  0.00000000000E+00  0.00000000000E+00  0.74505805969E-08  0.10566000000E+00  0.10566000000E+00 0.  1.
     999900   -1    0    0    0    0 -0.00000000000E+00 -0.00000000000E+00 -0.74505805969E-08  0.93827000000E+00  0.93827000000E+00 0.  1.
     999902    2    1    2    0    0 -0.79101371903E-02 -0.11094339316E-01  0.20229077323E-01  0.10195400389E+01  0.10192482625E+01 0.  0.
     999903    2    3    3    0    0 -0.11223866671E+00 -0.56049301875E-01 -0.31649017639E-01  0.13072243807E+00  0.18645453921E-01 0.  0.
         14    1    1    2    0    0  0.79101371903E-02  0.11094339316E-01 -0.20229077323E-01  0.24389961143E-01  0.00000000000E+00 0. -1.
     999901    1    3    3    0    0  0.10432852952E+00  0.44954962559E-01  0.51878094962E-01  0.88881760079E+00  0.88000000000E+00 0. -1.
        -11    1    4    4    0    0 -0.36017740760E-01 -0.27324776222E-01 -0.14504970462E-01  0.47482379197E-01  0.51100000000E-03 0. -1.
         11    1    4    4    0    0 -0.76220925950E-01 -0.28724525653E-01 -0.17144047176E-01  0.83240058873E-01  0.51100000000E-03 0.  1.
</event>
<event>
 7    1  0.1091347E+005  0.1043930E+01  0.7957747E-01            NaN
         13   -1    0    0    0    0  0.00000000000E+00  0.00000000000E+00  0.74505805969E-08  0.10566000000E+00  0.10566000000E+00 0. -1.
     999900   -1    0    0    0    0 -0.00000000000E+00 -0.00000000000E+00 -0.74505805969E-08  0.93827000000E+00  0.93827000000E+00 0.  1.
     999903    2    1    2    0    0  0.42575013558E-01  0.10651459321E+00  0.12157357990E-01  0.11720412588E+00  0.20760910921E-01 0.  0.
         14    1    1    2    0    0 -0.54362796546E-02 -0.18934476203E-02  0.37904465530E-01  0.38339102591E-01  0.00000000000E+00 0. -1.
     999901    1    1    2    0    0 -0.37138733903E-01 -0.10462114559E+00 -0.50061823521E-01  0.88838677153E+00  0.88000000000E+00 0.  1.
        -11    1    3    3    0    0  0.31074079652E-01  0.57231007235E-01 -0.12404679476E-03  0.65124980798E-01  0.51100000000E-03 0. -1.
         11    1    3    3    0    0  0.11500933906E-01  0.49283585977E-01  0.12281404785E-01  0.52079145077E-01  0.51100000000E-03 0.  1.
</event>
<event>
 8    1  0.1091347E+005  0.1043930E+01  0.7957747E-01            NaN
         13   -1    0    0    0    0  0.00000000000E+00  0.00000000000E+00  0.74505805969E-08  0.10566000000E+00  0.10566000000E+00 0.  1.
     999900   -1    0    0    0    0 -0.00000000000E+00 -0.00000000000E+00 -0.74505805969E-08  0.93827000000E+00  0.93827000000E+00 0.  1.
     999902    2    1    2    0    0  0.12669056264E-01  0.18305745522E-01  0.14480962785E-02  0.10216207578E+01  0.10213771441E+01 0.  0.
     999903    2    3    3    0    0 -0.12360083275E+00 -0.18165880783E-01  0.28842462330E-01  0.12996493098E+00  0.21256306573E-01 0.  0.
         14    1    1    2    0    0 -0.12669056264E-01 -0.18305745522E-01 -0.14480962785E-02  0.22309242223E-01  0.00000000000E+00 0. -1.
     999901    1    3    3    0    0  0.13626988901E+00  0.36471626305E-01 -0.27394366052E-01  0.89165582680E+00  0.88000000000E+00 0. -1.
        -11    1    4    4    0    0 -0.46327959348E-01 -0.83861616962E-02  0.21401489647E-01  0.51719361998E-01  0.51100000000E-03 0. -1.
         11    1    4    4    0    0 -0.77272873401E-01 -0.97797190871E-02  0.74409726833E-02  0.78245568977E-01  0.51100000000E-03 0.  1.
</event>
<event>
 8    1  0.1279477E+005  0.1043930E+01  0.7957747E-01            NaN
         13   -1    0    0    0    0  0.00000000000E+00  0.00000000000E+00  0.74505805969E-08  0.10566000000E+00  0.10566000000E+00 0.  1.
     999900   -1    0    0    0    0 -0.00000000000E+00 -0.00000000000E+00 -0.74505805969E-08  0.93827000000E+00  0.93827000000E+00 0.  1.
     999902    2    1    2    0    0 -0.19650977166E-01 -0.12663484679E-01  0.22968281844E-02  0.10204395729E+01  0.10201691633E+01 0.  0.
     999903    2    3    3    0    0  0.57185043097E-01  0.65998836248E-01 -0.92450186693E-01  0.12854914709E+00  0.18758215736E-01 0.  0.
         14    1    1    2    0    0  0.19650977166E-01  0.12663484679E-01 -0.22968281844E-02  0.23490427146E-01  0.00000000000E+00 0.  1.
     999901    1    3    3    0    0 -0.76836020263E-01 -0.78662320927E-01  0.94747014877E-01  0.89189042577E+00  0.88000000000E+00 0.  1.
        -11    1    4    4    0    0  0.20692099123E-01  0.36433311481E-01 -0.50028547966E-01  0.65258454504E-01  0.51100000000E-03 0. -1.
         11    1    4    4    0    0  0.36492943974E-01  0.29565524767E-01 -0.42421638727E-01  0.63290692585E-01  0.51100000000E-03 0.  1.
</event>
<event>
 8    1  0.1091347E+005  0.1043930E+01  0.7957747E-01            NaN
         13   -1    0    0    0    0  0.00000000000E+00  0.00000000000E+00  0.74505805969E-08  0.10566000000E+00  0.10566000000E+00 0.  1.
     999900   -1    0    0    0    0 -0.00000000000E+00 -0.00000000000E+00 -0.74505805969E-08  0.93827000000E+00  0.93827000000E+00 0. -1.
     999902    2    1    2    0    0 -0.16226226968E-01 -0.17383272508E-01 -0.69284854856E-03  0.10201403248E+01  0.10198628995E+01 0.  0.
     999903    2    3    3    0    0  0.86090055530E-01  0.53417788621E-01 -0.74498704316E-01  0.12832828396E+00  0.25556480940E-01 0.  0.
         14    1    1    2    0    0  0.16226226968E-01  0.17383272508E-01  0.69284854856E-03  0.23789675152E-01  0.00000000000E+00 0. -1.
     999901    1    3    3    0    0 -0.10231628250E+00 -0.70801061130E-01  0.73805855767E-01  0.89181204088E+00  0.88000000000E+00 0. -1.
        -11    1    4    4    0    0  0.68704257666E-01  0.29578062016E-01 -0.56731808270E-01  0.93882351722E-01  0.51100000000E-03 0. -1.
         11    1    4    4    0    0  0.17385797863E-01  0.23839726605E-01 -0.17766896045E-01  0.34445932242E-01  0.51100000000E-03 0.  1.
</event>
<event>
 8    1  0.1091347E+005  0.1043930E+01  0.7957747E-01            NaN
         13   -1    0    0    0    0  0.00000000000E+00  0.00000000000E+00  0.74505805969E-08  0.10566000000E+00  0.10566000000E+00 0. -1.
     999900   -1    0    0    0    0 -0.00000000000E+00 -0.00000000000E+00 -0.74505805969E-08  0.93827000000E+00  0.93827000000E+00 0.  1.
     999902    2    1    2    0    0  0.80819812982E-02  0.21689324048E-01  0.53241030608E-02  0.10201793943E+01  0.10199028901E+01 0.  0.
     999903    2    3    3    0    0 -0.16105426961E-01 -0.10535899984E+00 -0.66772989968E-01  0.12780934874E+00  0.22730899937E-01 0.  0.
         14    1    1    2    0    0 -0.80819812982E-02 -0.21689324048E-01 -0.53241030608E-02  0.23750605735E-01  0.00000000000E+00 0.  1.
     999901    1    3    3    0    0  0.24187408259E-01  0.12704832389E+00  0.72097093029E-01  0.89237004552E+00  0.88000000000E+00 0.  1.
        -11    1    4    4    0    0 -0.19607548180E-01 -0.70321289482E-01 -0.51941613072E-01  0.89597611517E-01  0.51100000000E-03 0. -1.
         11    1    4    4    0    0  0.35021212196E-02 -0.35037710359E-01 -0.14831376896E-01  0.38211737227E-01  0.51100000000E-03 0.  1.
</event>
<event>
 8    1  0.1091347E+005  0.1043930E+01  0.7957747E-01            NaN
         13   -1    0    0    0    0  0.00000000000E+00  0.00000000000E+00  0.74505805969E-08  0.10566000000E+00  0.10566000000E+00 0.  1.
     999900   -1    0    0    0    0 -0.00000000000E+00 -0.00000000000E+00 -0.74505805969E-08  0.93827000000E+00  0.93827000000E+00 0. -1.
     999902    2    1    2    0    0 -0.11963651786E-02  0.27341982338E-02 -0.22864333841E-01  0.10208717067E+01  0.10206112661E+01 0.  0.
     999903    2    3    3    0    0  0.43196016721E-01 -0.11926665239E+00 -0.27180347340E-01  0.13133614296E+00  0.20493436349E-01 0.  0.
         14    1    1    2    0    0  0.11963651786E-02 -0.27341982338E-02  0.22864333841E-01  0.23058293337E-01  0.00000000000E+00 0.  1.
     999901    1    3    3    0    0 -0.44392381900E-01  0.12200085062E+00  0.43160134993E-02  0.88953556370E+00  0.88000000000E+00 0.  1.
        -11    1    4    4    0    0  0.11752323726E-01 -0.62462921011E-01 -0.13963872568E-01  0.65076758311E-01  0.51100000000E-03 0. -1.
         11    1    4    4    0    0  0.31443692995E-01 -0.56803731377E-01 -0.13216474772E-01  0.66259384648E-01  0.51100000000E-03 0.  1.
</event>
<event>
 8    1  0.1091347E+005  0.1043930E+01  0.7957747E-01            NaN
         13   -1    0    0    0    0  0.00000000000E+00  0.00000000000E+00  0.74505805969E-08  0.10566000000E+00  0.10566000000E+00 0.  1.
     999900   -1    0    0    0    0 -0.00000000000E+00 -0.00000000000E+00 -0.74505805969E-08  0.93827000000E+00  0.93827000000E+00 0.  1.
     999902    2    1    2    0    0  0.88696170003E-02 -0.90024493574E-02  0.19948109020E-01  0.10203155711E+01  0.10200422655E+01 0.  0.
     999903    2    3    3    0    0 -0.51469828795E-01  0.42085946227E-01  0.11221128605E+00  0.13196689700E+00  0.20087783407E-01 0.  0.
         14    1    1    2    0    0 -0.88696170003E-02  0.90024493574E-02 -0.19948109020E-01  0.23614428929E-01  0.00000000000E+00 0. -1.
     999901    1    3    3    0    0  0.60339445796E-01 -0.51088395585E-01 -0.92263177028E-01  0.88834867407E+00  0.88000000000E+00 0.  1.
        -11    1    4    4    0    0 -0.27498439187E-01  0.32313285094E-01  0.80758916789E-01  0.91228155266E-01  0.51100000000E-03 0.  1.
         11    1    4    4    0    0 -0.23971389608E-01  0.97726611329E-02  0.31452369259E-01  0.40738741738E-01  0.51100000000E-03 0. -1.
</event>
<event>
 8    1  0.1091347E+005  0.1043930E+01  0.7957747E-01            NaN
         13   -1    0    0    0    0  0.00000000000E+00  0.00000000000E+00  0.74505805969E-08  0.10566000000E+00  0.10566000000E+00 0.  1.
     999900   -1    0    0    0    0 -0.00000000000E+00 -0.00000000000E+00 -0.74505805969E-08  0.93827000000E+00  0.93827000000E+00 0. -1.
     999902    2    1    2    0    0  0.23002571564E-01  0.32085353783E-02  0.52361425222E-02  0.10201218042E+01  0.10198439416E+01 0.  0.
     999903    2    3    3    0    0 -0.75271261053E-01  0.86904824014E-01 -0.55007069100E-01  0.12866678042E+00  0.17639488532E-01 0.  0.
         14    1    1    2    0    0 -0.23002571564E-01 -0.32085353783E-02 -0.52361425222E-02  0.23808195781E-01  0.00000000000E+00 0. -1.
     999901    1    3    3    0    0  0.98273832616E-01 -0.83696288635E-01  0.60243211622E-01  0.89145502380E+00  0.88000000000E+00 0. -1.
        -11    1    4    4    0    0 -0.23810683838E-01  0.16701150981E-01 -0.10707224172E-01  0.30996497857E-01  0.51100000000E-03 0. -1.
         11    1    4    4    0    0 -0.51460577215E-01  0.70203673033E-01 -0.44299844928E-01  0.97670282564E-01  0.51100000000E-03 0.  1.
</event>
<event>
 8    1  0.1091347E+005  0.1043930E+01  0.7957747E-01            NaN
         13   -1    0    0    0    0  0.00000000000E+00  0.00000000000E+00  0.74505805969E-08  0.10566000000E+00  0.10566000000E+00 0.  1.
     999900   -1    0    0    0    0 -0.00000000000E+00 -0.00000000000E+00 -0.74505805969E-08  0.93827000000E+00  0.93827000000E+00 0.  1.
     999902    2    1    2    0    0 -0.17800662742E-01  0.14034426276E-01 -0.88005968905E-02  0.10196137663E+01  0.10193237725E+01 0.  0.
     999903    2    3    3    0    0  0.96255196730E-02 -0.22715142862E-01 -0.12655959089E+00  0.13058626000E+00  0.20659450872E-01 0.  0.
         14    1    1    2    0    0  0.17800662742E-01 -0.14034426276E-01  0.88005968905E-02  0.24316233684E-01  0.00000000000E+00 0.  1.
     999901    1    3    3    0    0 -0.27426182415E-01  0.36749569138E-01  0.11775899400E+00  0.88902750631E+00  0.88000000000E+00 0. -1.
        -11    1    4    4    0    0 -0.18674779356E-02 -0.13837101122E-01 -0.92600237790E-01  0.93648374257E-01  0.51100000000E-03 0.  1.
         11    1    4    4    0    0  0.11492997609E-01 -0.88780417402E-02 -0.33959353103E-01  0.36937885745E-01  0.51100000000E-03 0. -1.
</event>
<event>
 8    1  0.1091347E+005  0.1043930E+01  0.7957747E-01            NaN
         13   -1    0    0    0    0  0.00000000000E+00  0.00000000000E+00  0.74505805969E-08  0.10566000000E+00  0.10566000000E+00 0.  1.
     999900   -1    0    0    0    0 -0.00000000000E+00 -0.00000000000E+00 -0.74505805969E-08  0.93827000000E+00  0.93827000000E+00 0.  1.
     999902    2    1    2    0    0 -0.12424040430E-02  0.22740491574E-01 -0.26726102003E-02  0.10209993138E+01  0.10207417805E+01 0.  0.
     999903    2    3    3    0    0  0.24455519978E-01  0.11157844226E+00  0.66152240176E-01  0.13348062395E+00  0.19827679029E-01 0.  0.
         14    1    1    2    0    0  0.12424040430E-02 -0.22740491574E-01  0.26726102003E-02  0.22930686211E-01  0.00000000000E+00 0.  1.
     999901    1    3    3    0    0 -0.25697924021E-01 -0.88837950686E-01 -0.68824850376E-01  0.88751868984E+00  0.88000000000E+00 0. -1.
        -11    1    4    4    0    0  0.41696109173E-02  0.15357755587E-01  0.17855844322E-01  0.23923599423E-01  0.51100000000E-03 0. -1.
         11    1    4    4    0    0  0.20285909060E-01  0.96220686673E-01  0.48296395854E-01  0.10955702453E+00  0.51100000000E-03 0.  1.
</event>
<event>
 8    1  0.1091347E+005  0.1043930E+01  0.7957747E-01            NaN
         13   -1    0    0    0    0  0.00000000000E+00  0.00000000000E+00  0.74505805969E-08  0.10566000000E+00  0.10566000000E+00 0.  1.
     999900   -1    0    0    0    0 -0.00000000000E+00 -0.00000000000E+00 -0.74505805969E-08  0.93827000000E+00  0.93827000000E+00 0.  1.
     999902    2    1    2    0    0 -0.19507798982E-01  0.12238969675E-01  0.45724682730E-02  0.10204511996E+01  0.10201810608E+01 0.  0.
     999903    2    3    3    0    0  0.10799745461E+00  0.24355983054E-01  0.63459559397E-01  0.12923175349E+00  0.20422201603E-01 0.  0.
         14    1    1    2    0    0  0.19507798982E-01 -0.12238969675E-01 -0.45724682730E-02  0.23478800351E-01  0.00000000000E+00 0.  1.
     999901    1    3    3    0    0 -0.12750525359E+00 -0.12117013380E-01 -0.58887091124E-01  0.89121944616E+00  0.88000000000E+00 0. -1.
        -11    1    4    4    0    0  0.39925132835E-01  0.13357415227E-01  0.34530637888E-01  0.54452390649E-01  0.51100000000E-03 0.  1.
         11    1    4    4    0    0  0.68072321778E-01  0.10998567828E-01  0.28928921509E-01  0.74779362843E-01  0.51100000000E-03 0. -1.
</event>
<event>
 8    1  0.1091347E+005  0.1043930E+01  0.7957747E-01            NaN
         13   -1    0    0    0    0  0.00000000000E+00  0.00000000000E+00  0.74505805969E-08  0.10566000000E+00  0.10566000000E+00 0. -1.
     999900   -1    0    0    0    0 -0.00000000000E+00 -0.00000000000E+00 -0.74505805969E-08  0.93827000000E+00  0.93827000000E+00 0. -1.
     999902    2    1    2    0    0 -0.20413360358E-01 -0.29774489517E-02  0.12167969969E-01  0.10199794264E+01  0.10196981908E+01 0.  0.
     999903    2    3    3    0    0  0.19748842668E-01  0.12584269913E+00  0.15198799423E-01  0.12968912596E+00  0.19022727937E-01 0.  0.
         14    1    1    2    0    0  0.20413360358E-01  0.29774489517E-02 -0.12167969969E-01  0.23950573615E-01  0.00000000000E+00 0.  1.
     999901    1    3    3    0    0 -0.40162203026E-01 -0.12882014808E+00 -0.30308294547E-02  0.89029030042E+00  0.88000000000E+00 0. -1.
        -11    1    4    4    0    0  0.21599226427E-01  0.78775483390E-01  0.10164810939E-01  0.82314566561E-01  0.51100000000E-03 0. -1.
         11    1    4    4    0    0 -0.18503837596E-02  0.47067215736E-01  0.50339884845E-02  0.47374559399E-01  0.51100000000E-03 0.  1.
</event>
<event>
 8    1  0.1091347E+005  0.1043930E+01  0.7957747E-01            NaN
         13   -1    0    0    0    0  0.00000000000E+00  0.00000000000E+00  0.74505805969E-08  0.10566000000E+00  0.10566000000E+00 0.  1.
     999900   -1    0    0    0    0 -0.00000000000E+00 -0.00000000000E+00 -0.74505805969E-08  0.93827000000E+00  0.93827000000E+00 0. -1.
     999902    2    1    2    0    0 -0.21029242352E-01  0.47439700600E-02  0.58993398896E-02  0.10215796869E+01  0.10213351654E+01 0.  0.
     999903    2    3    3    0    0 -0.11491813559E+00  0.65464183314E-01  0.12428284848E-01  0.13448065311E+00  0.20948666168E-01 0.  0.
         14    1    1    2    0    0  0.21029242352E-01 -0.47439700600E-02 -0.58993398896E-02  0.22350313129E-01  0.00000000000E+00 0. -1.
     999901    1    3    3    0    0  0.93888893234E-01 -0.60720213254E-01 -0.65289449583E-02  0.88709903376E+00  0.88000000000E+00 0. -1.
        -11    1    4    4    0    0 -0.61472060690E-01  0.23958138725E-01  0.10286107590E-01  0.66774784066E-01  0.51100000000E-03 0.  1.
         11    1    4    4    0    0 -0.53446074895E-01  0.41506044589E-01  0.21421772578E-02  0.67705869048E-01  0.51100000000E-03 0. -1.
</event>
<event>
 8    1  0.1091347E+005  0.1043930E+01  0.7957747E-01            NaN
         13   -1    0    0    0    0  0.00000000000E+00  0.00000000000E+00  0.74505805969E-08  0.10566000000E+00  0.10566000000E+00 0. -1.
     999900   -1    0    0    0    0 -0.00000000000E+00 -0.00000000000E+00 -0.74505805969E-08  0.93827000000E+00  0.93827000000E+00 0.  1.
     999902    2    1    2    0    0  0.17051079824E-01  0.17439134384E-01  0.17653578992E-02  0.10194763864E+01  0.10191830665E+01 0.  0.
     999903    2    3    3    0    0 -0.60447543638E-01 -0.35595566685E-01  0.10608746114E+00  0.12835247950E+00  0.17287558635E-01 0.  0.
         14    1    1    2    0    0 -0.17051079824E-01 -0.17439134384E-01 -0.17653578992E-02  0.24453613634E-01  0.00000000000E+00 0.  1.
     999901    1    3    3    0    0  0.77498623462E-01  0.53034701069E-01 -0.10432210324E+00  0.89112390686E+00  0.88000000000E+00 0.  1.
        -11    1    4    4    0    0 -0.25458066352E-01 -0.15502027001E-01  0.60672432508E-01  0.67600526411E-01  0.51100000000E-03 0. -1.
         11    1    4    4    0    0 -0.34989477286E-01 -0.20093539684E-01  0.45415028635E-01  0.60751953093E-01  0.51100000000E-03 0.  1.
</event>
<event>
 8    1  0.1091347E+005  0.1043930E+01  0.7957747E-01            NaN
         13   -1    0    0    0    0  0.00000000000E+00  0.00000000000E+00  0.74505805969E-08  0.10566000000E+00  0.10566000000E+00 0.  1.
     999900   -1    0    0    0    0 -0.00000000000E+00 -0.00000000000E+00 -0.74505805969E-08  0.93827000000E+00  0.93827000000E+00 0. -1.
     999902    2    1    2    0    0  0.18328496789E-01 -0.43764307565E-02  0.15762327954E-01  0.10193629912E+01  0.10190669114E+01 0.  0.
     999903    2    3    3    0    0 -0.96749481706E-01 -0.40939593914E-01  0.73776589355E-01  0.12922510265E+00  0.14819900757E-01 0.  0.
         14    1    1    2    0    0 -0.18328496789E-01  0.43764307565E-02 -0.15762327954E-01  0.24567008837E-01  0.00000000000E+00 0. -1.
     999901    1    3    3    0    0  0.11507797849E+00  0.36563163158E-01 -0.58014261401E-01  0.89013788851E+00  0.88000000000E+00 0. -1.
        -11    1    4    4    0    0 -0.55667972952E-01 -0.28853613716E-01  0.37215126527E-01  0.72915574471E-01  0.51100000000E-03 0. -1.
         11    1    4    4    0    0 -0.41081508754E-01 -0.12085980198E-01  0.36561462829E-01  0.56309528182E-01  0.51100000000E-03 0.  1.
</event>
<event>
 8    1  0.1091347E+005  0.1043930E+01  0.7957747E-01            NaN
         13   -1    0    0    0    0  0.00000000000E+00  0.00000000000E+00  0.74505805969E-08  0.10566000000E+00  0.10566000000E+00 0.  1.
     999900   -1    0    0    0    0 -0.00000000000E+00 -0.00000000000E+00 -0.74505805969E-08  0.93827000000E+00  0.93827000000E+00 0.  1.
     999902    2    1    2    0    0  0.11571103532E-01 -0.16533038531E-01  0.10747597591E-01  0.10210664339E+01  0.10208104231E+01 0.  0.
     999903    2    3    3    0    0  0.28082738215E-01  0.59408434439E-01  0.11258114737E+00  0.13179155332E+00  0.19403518143E-01 0.  0.
         14    1    1    2    0    0 -0.11571103532E-01  0.16533038531E-01 -0.10747597591E-01  0.22863566082E-01  0.00000000000E+00 0. -1.
     999901    1    3    3    0    0 -0.16511634683E-01 -0.75941472970E-01 -0.10183354978E+00  0.88927488059E+00  0.88000000000E+00 0.  1.
        -11    1    4    4    0    0  0.18594293490E-01  0.21647703085E-01  0.59166083635E-01  0.65690618607E-01  0.51100000000E-03 0. -1.
         11    1    4    4    0    0  0.94884447252E-02  0.37760731354E-01  0.53415063733E-01  0.66100934716E-01  0.51100000000E-03 0.  1.
</event>
<event>
 8    1  0.1091347E+005  0.1043930E+01  0.7957747E-01            NaN
         13   -1    0    0    0    0  0.00000000000E+00  0.00000000000E+00  0.74505805969E-08  0.10566000000E+00  0.10566000000E+00 0. -1.
     999900   -1    0    0    0    0 -0.00000000000E+00 -0.00000000000E+00 -0.74505805969E-08  0.93827000000E+00  0.93827000000E+00 0. -1.
     999902    2    1    2    0    0 -0.12070445674E-02  0.22243111393E-01 -0.88536230607E-02  0.10199591927E+01  0.10196774761E+01 0.  0.
     999903    2    3    3    0    0  0.10019138809E+00  0.39434253235E-01 -0.73057727825E-01  0.13164655373E+00  0.20000223404E-01 0.  0.
         14    1    1    2    0    0  0.12070445674E-02 -0.22243111393E-01  0.88536230607E-02  0.23970807294E-01  0.00000000000E+00 0. -1.
     999901    1    3    3    0    0 -0.10139843266E+00 -0.17191141842E-01  0.64204104764E-01  0.88831263898E+00  0.88000000000E+00 0. -1.
        -11    1    4    4    0    0  0.65125668835E-01  0.23459395390E-01 -0.57863781898E-01  0.90222914771E-01  0.51100000000E-03 0.  1.
         11    1    4    4    0    0  0.35065719259E-01  0.15974857845E-01 -0.15193945928E-01  0.41423638954E-01  0.51100000000E-03 0. -1.
</event>
<event>
 8    1  0.1091347E+005  0.1043930E+01  0.7957747E-01            NaN
         13   -1    0    0    0    0  0.00000000000E+00  0.00000000000E+00  0.74505805969E-08  0.10566000000E+00  0.10566000000E+00 0.  1.
     999900   -1    0    0    0    0 -0.00000000000E+00 -0.00000000000E+00 -0.74505805969E-08  0.93827000000E+00  0.93827000000E+00 0. -1.
     999902    2    1    2    0    0 -0.18023114366E-01 -0.15902284855E-01 -0.69931890705E-03  0.10198841196E+01  0.10196006145E+01 0.  0.
     999903    2    3    3    0    0 -0.87451837579E-01 -0.63164178525E-01  0.74642097458E-01  0.13268044336E+00  0.19877625409E-01 0.  0.
         14    1    1    2    0    0  0.18023114366E-01  0.15902284855E-01  0.69931890705E-03  0.24045880354E-01  0.00000000000E+00 0.  1.
     999901    1    3    3    0    0  0.69428723213E-01  0.47261893670E-01 -0.75341416366E-01  0.88720367629E+00  0.88000000000E+00 0. -1.
        -11    1    4    4    0    0 -0.77052693671E-02 -0.41215825900E-02  0.13626283635E-01  0.16195534747E-01  0.51100000000E-03 0. -1.
         11    1    4    4    0    0 -0.79746568212E-01 -0.59042595935E-01  0.61015813824E-01  0.11648490861E+00  0.51100000000E-03 0.  1.
</event>
<event>
 8    1  0.1091347E+005  0.1043930E+01  0.7957747E-01            NaN
         13   -1    0    0    0    0  0.00000000000E+00  0.00000000000E+00  0.74505805969E-08  0.10566000000E+00  0.10566000000E+00 0.  1.
     999900   -1    0    0    0    0 -0.00000000000E+00 -0.00000000000E+00 -0.74505805969E-08  0.93827000000E+00  0.93827000000E+00 0. -1.
     999902    2    1    2    0    0  0.26495963262E-01 -0.50210700196E-02  0.12459881244E-01  0.10142231682E+01  0.10137880149E+01 0.  0.
     999903    2    3    3    0    0  0.79141600511E-01  0.83804425540E-01 -0.47109635159E-01  0.12618597359E+00  0.20420762318E-01 0.  0.
         14    1    1    2    0    0 -0.26495963262E-01  0.50210700196E-02 -0.12459881244E-01  0.29706831772E-01  0.00000000000E+00 0. -1.
     999901    1    3    3    0    0 -0.52645637249E-01 -0.88825495559E-01  0.59569516403E-01  0.88803719464E+00  0.88000000000E+00 0.  1.
        -11    1    4    4    0    0  0.64469488550E-01  0.59166381585E-01 -0.41964592598E-01  0.97047739885E-01  0.51100000000E-03 0. -1.
         11    1    4    4    0    0  0.14672111961E-01  0.24638043955E-01 -0.51450425610E-02  0.29138233702E-01  0.51100000000E-03 0.  1.
</event>
<event>
 8    1  0.1091347E+005  0.1043930E+01  0.7957747E-01            NaN
         13   -1    0    0    0    0  0.00000000000E+00  0.00000000000E+00  0.74505805969E-08  0.10566000000E+00  0.10566000000E+00 0. -1.
     999900   -1    0    0    0    0 -0.00000000000E+00 -0.00000000000E+00 -0.74505805969E-08  0.93827000000E+00  0.93827000000E+00 0. -1.
     999902    2    1    2    0    0 -0.41785412888E-03  0.18023200801E-01 -0.12695252036E-01  0.10218805149E+01  0.10216426023E+01 0.  0.
     999903    2    3    3    0    0  0.22580683954E-01  0.11009052860E+00 -0.71747692301E-01  0.13481089175E+00  0.19910635558E-01 0.  0.
         14    1    1    2    0    0  0.41785412888E-03 -0.18023200801E-01  0.12695252036E-01  0.22049485106E-01  0.00000000000E+00 0. -1.
     999901    1    3    3    0    0 -0.22998538083E-01 -0.92067327802E-01  0.59052440265E-01  0.88706962314E+00  0.88000000000E+00 0. -1.
        -11    1    4    4    0    0  0.20108207045E-01  0.77011604892E-01 -0.40804508808E-01  0.89444934673E-01  0.51100000000E-03 0. -1.
         11    1    4    4    0    0  0.24724769097E-02  0.33078923710E-01 -0.30943183492E-01  0.45365957077E-01  0.51100000000E-03 0.  1.
</event>
<event>
 8    1  0.1091347E+005  0.1043930E+01  0.7957747E-01            NaN
         13   -1    0    0    0    0  0.00000000000E+00  0.00000000000E+00  0.74505805969E-08  0.10566000000E+00  0.10566000000E+00 0. -1.
     999900   -1    0    0    0    0 -0.00000000000E+00 -0.00000000000E+00 -0.74505805969E-08  0.93827000000E+00  0.93827000000E+00 0. -1.
     999902    2    1    2    0    0 -0.21043506775E-02  0.23832810965E-01 -0.13148762095E-02  0.10199683625E+01  0.10196868640E+01 0.  0.
     999903    2    3    3    0    0  0.43065711115E-01  0.60639143156E-01 -0.10664801571E+00  0.13177350169E+00  0.21417173836E-01 0.  0.
         14    1    1    2    0    0  0.21043506775E-02 -0.23832810965E-01  0.13148762095E-02  0.23961637459E-01  0.00000000000E+00 0.  1.
     999901    1    3    3    0    0 -0.45170061792E-01 -0.36806332192E-01  0.10533313950E+00  0.88819486085E+00  0.88000000000E+00 0.  1.
        -11    1    4    4    0    0  0.18489117796E-01  0.40980855929E-01 -0.72691045092E-01  0.85472376749E-01  0.51100000000E-03 0.  1.
         11    1    4    4    0    0  0.24576593319E-01  0.19658287227E-01 -0.33956970619E-01  0.46301124938E-01  0.51100000000E-03 0. -1.
</event>
<event>
 8    1  0.1091347E+005  0.1043930E+01  0.7957747E-01            NaN
         13   -1    0    0    0    0  0.00000000000E+00  0.00000000000E+00  0.74505805969E-08  0.10566000000E+00  0.10566000000E+00 0.  1.
     999900   -1    0    0    0    0 -0.00000000000E+00 -0.00000000000E+00 -0.74505805969E-08  0.93827000000E+00  0.93827000000E+00 0. -1.
     999902    2    1    2    0    0 -0.13632230122E-01  0.18443368315E-01  0.68371802965E-02  0.10199979594E+01  0.10197171640E+01 0.  0.
     999903    2    3    3    0    0  0.83083621037E-01  0.14785899982E-01  0.97051003681E-01  0.13010702964E+00  0.19683265050E-01 0.  0.
         14    1    1    2    0    0  0.13632230122E-01 -0.18443368315E-01 -0.68371802965E-02  0.23932040601E-01  0.00000000000E+00 0. -1.
     999901    1    3    3    0    0 -0.96715851159E-01  0.36574683333E-02 -0.90213823385E-01  0.88989092976E+00  0.88000000000E+00 0.  1.
        -11    1    4    4    0    0  0.33357619102E-01  0.49617259681E-02  0.53670898061E-01  0.63389083416E-01  0.51100000000E-03 0. -1.
         11    1    4    4    0    0  0.49726001935E-01  0.98241740138E-02  0.43380105621E-01  0.66717946223E-01  0.51100000000E-03 0.  1.
</event>
<event>
 8    1  0.1091347E+005  0.1043930E+01  0.7957747E-01            NaN
         13   -1    0    0    0    0  0.00000000000E+00  0.00000000000E+00  0.74505805969E-08  0.10566000000E+00  0.10566000000E+00 0. -1.
     999900   -1    0    0    0    0 -0.00000000000E+00 -0.00000000000E+00 -0.74505805969E-08  0.93827000000E+00  0.93827000000E+00 0.  1.
     999902    2    1    2    0    0  0.20747270430E-01 -0.26964977549E-02 -0.11655146450E-01  0.10199808295E+01  0.10196996272E+01 0.  0.
     999903    2    3    3    0    0  0.11392174561E+00  0.48665022924E-02 -0.66132971857E-01  0.13335434934E+00  0.20198157200E-01 0.  0.
         14    1    1    2    0    0 -0.20747270430E-01  0.26964977549E-02  0.11655146450E-01  0.23949170533E-01  0.00000000000E+00 0. -1.
     999901    1    3    3    0    0 -0.93174475182E-01 -0.75630000473E-02  0.54477825408E-01  0.88662648012E+00  0.88000000000E+00 0. -1.
        -11    1    4    4    0    0  0.86671272853E-01 -0.19082617913E-02 -0.57278856096E-01  0.10390707136E+00  0.51100000000E-03 0.  1.
         11    1    4    4    0    0  0.27250472759E-01  0.67747640837E-02 -0.88541157615E-02  0.29447277988E-01  0.51100000000E-03 0. -1.
</event>
<event>
 8    1  0.1091347E+005  0.1043930E+01  0.7957747E-01            NaN
         13   -1    0    0    0    0  0.00000000000E+00  0.00000000000E+00  0.74505805969E-08  0.10566000000E+00  0.10566000000E+00 0.  1.
     999900   -1    0    0    0    0 -0.00000000000E+00 -0.00000000000E+00 -0.74505805969E-08  0.93827000000E+00  0.93827000000E+00 0. -1.
     999902    2    1    2    0    0 -0.23653200658E-01 -0.86162506258E-03 -0.49880516433E-02  0.10197412225E+01  0.10194542971E+01 0.  0.
     999903    2    3    3    0    0  0.71557195851E-01 -0.62398044916E-01 -0.85524146986E-01  0.12882157782E+00  0.16330061462E-01 0.  0.
         14    1    1    2    0    0  0.23653200658E-01  0.86162506258E-03  0.49880516433E-02  0.24188777528E-01  0.00000000000E+00 0.  1.
     999901    1    3    3    0    0 -0.95210396508E-01  0.61536419854E-01  0.80536095342E-01  0.89091964465E+00  0.88000000000E+00 0. -1.
        -11    1    4    4    0    0  0.21493970196E-01 -0.99690761347E-02 -0.18108695603E-01  0.29825479229E-01  0.51100000000E-03 0.  1.
         11    1    4    4    0    0  0.50063225654E-01 -0.52428968782E-01 -0.67415451383E-01  0.98996098593E-01  0.51100000000E-03 0. -1.
</event>
<event>
 8    1  0.1091347E+005  0.1043930E+01  0.7957747E-01            NaN
         13   -1    0    0    0    0  0.00000000000E+00  0.00000000000E+00  0.74505805969E-08  0.10566000000E+00  0.10566000000E+00 0. -1.
     999900   -1    0    0    0    0 -0.00000000000E+00 -0.00000000000E+00 -0.74505805969E-08  0.93827000000E+00  0.93827000000E+00 0.  1.
     999902    2    1    2    0    0  0.22544606739E-01 -0.85077536566E-02 -0.39065798820E-02  0.10195188851E+01  0.10192265962E+01 0.  0.
     999903    2    3    3    0    0 -0.79693605248E-01 -0.48978767425E-01  0.85387042518E-01  0.12819183739E+00  0.19804286577E-01 0.  0.
         14    1    1    2    0    0 -0.22544606739E-01  0.85077536566E-02  0.39065798820E-02  0.24411114921E-01  0.00000000000E+00 0. -1.
     999901    1    3    3    0    0  0.10223821199E+00  0.40471013769E-01 -0.89293622400E-01  0.89132704769E+00  0.88000000000E+00 0.  1.
        -11    1    4    4    0    0 -0.33519810072E-01 -0.16754217508E-01  0.22214465721E-01  0.43566329657E-01  0.51100000000E-03 0. -1.
         11    1    4    4    0    0 -0.46173795177E-01 -0.32224549918E-01  0.63172576797E-01  0.84625507730E-01  0.51100000000E-03 0.  1.
</event>
<event>
 8    1  0.1091347E+005  0.1043930E+01  0.7957747E-01            NaN
         13   -1    0    0    0    0  0.00000000000E+00  0.00000000000E+00  0.74505805969E-08  0.10566000000E+00  0.10566000000E+00 0.  1.
     999900   -1    0    0    0    0 -0.00000000000E+00 -0.00000000000E+00 -0.74505805969E-08  0.93827000000E+00  0.93827000000E+00 0.  1.
     999902    2    1    2    0    0  0.16860895155E-01  0.16154970039E-01 -0.10424263514E-02  0.10205556659E+01  0.10202879533E+01 0.  0.
     999903    2    3    3    0    0 -0.95953050916E-02  0.94033368629E-01 -0.90449105001E-01  0.13220971431E+00  0.19079404268E-01 0.  0.
         14    1    1    2    0    0 -0.16860895155E-01 -0.16154970039E-01  0.10424263514E-02  0.23374334110E-01  0.00000000000E+00 0.  1.
     999901    1    3    3    0    0  0.26456200247E-01 -0.77878398590E-01  0.89406678650E-01  0.88834595158E+00  0.88000000000E+00 0. -1.
        -11    1    4    4    0    0  0.55061069785E-02  0.36677000819E-01 -0.36217109052E-01  0.51840714812E-01  0.51100000000E-03 0.  1.
         11    1    4    4    0    0 -0.15101412070E-01  0.57356367810E-01 -0.54231995949E-01  0.80368999499E-01  0.51100000000E-03 0. -1.
</event>
<event>
 8    1  0.1091347E+005  0.1043930E+01  0.7957747E-01            NaN
         13   -1    0    0    0    0  0.00000000000E+00  0.00000000000E+00  0.74505805969E-08  0.10566000000E+00  0.10566000000E+00 0.  1.
     999900   -1    0    0    0    0 -0.00000000000E+00 -0.00000000000E+00 -0.74505805969E-08  0.93827000000E+00  0.93827000000E+00 0.  1.
     999902    2    1    2    0    0  0.22150515603E-01  0.10737629916E-01  0.10949012640E-02  0.10192897718E+01  0.10189919028E+01 0.  0.
     999903    2    3    3    0    0  0.23753003003E-01 -0.10398605513E+00 -0.69633280910E-01  0.12902769373E+00  0.20543785582E-01 0.  0.
         14    1    1    2    0    0 -0.22150515603E-01 -0.10737629916E-01 -0.10949012640E-02  0.24640228215E-01  0.00000000000E+00 0. -1.
     999901    1    3    3    0    0 -0.16024873996E-02  0.11472368504E+00  0.70728182174E-01  0.89026207806E+00  0.88000000000E+00 0. -1.
        -11    1    4    4    0    0  0.22809312298E-01 -0.95543757774E-01 -0.56329782357E-01  0.11323506470E+00  0.51100000000E-03 0.  1.
         11    1    4    4    0    0  0.94369070463E-03 -0.84422973515E-02 -0.13303498553E-01  0.15792629023E-01  0.51100000000E-03 0. -1.
</event>
<event>
 8    1  0.1091347E+005  0.1043930E+01  0.7957747E-01            NaN
         13   -1    0    0    0    0  0.00000000000E+00  0.00000000000E+00  0.74505805969E-08  0.10566000000E+00  0.10566000000E+00 0.  1.
     999900   -1    0    0    0    0 -0.00000000000E+00 -0.00000000000E+00 -0.74505805969E-08  0.93827000000E+00  0.93827000000E+00 0. -1.
     999902    2    1    2    0    0  0.10609921177E-02 -0.77532302561E-02  0.22481478095E-01  0.10201254807E+01  0.10198477049E+01 0.  0.
     999903    2    3    3    0    0  0.10514138981E+00  0.23377289988E-01  0.73547058482E-01  0.13197598200E+00  0.20181191082E-01 0.  0.
         14    1    1    2    0    0 -0.10609921177E-02  0.77532302561E-02 -0.22481478095E-01  0.23804519340E-01  0.00000000000E+00 0. -1.
     999901    1    3    3    0    0 -0.10408039770E+00 -0.31130520244E-01 -0.51065580387E-01  0.88814949866E+00  0.88000000000E+00 0. -1.
        -11    1    4    4    0    0  0.77285947530E-01  0.11872770245E-01  0.61636567788E-01  0.99566098490E-01  0.51100000000E-03 0. -1.
         11    1    4    4    0    0  0.27855442283E-01  0.11504519742E-01  0.11910490695E-01  0.32409883506E-01  0.51100000000E-03 0.  1.
</event>
<event>
 8    1  0.1091347E+005  0.1043930E+01  0.7957747E-01            NaN
         13   -1    0    0    0    0  0.00000000000E+00  0.00000000000E+00  0.74505805969E-08  0.10566000000E+00  0.10566000000E+00 0.  1.
     999900   -1    0    0    0    0 -0.00000000000E+00 -0.00000000000E+00 -0.74505805969E-08  0.93827000000E+00  0.93827000000E+00 0. -1.
     999902    2    1    2    0    0  0.17276416142E-01  0.12399543345E-01  0.10560333367E-01  0.10201867089E+01  0.10199103770E+01 0.  0.
     999903    2    3    3    0    0  0.12812206351E+00  0.23396862944E-03  0.29136585558E-01  0.13295515184E+00  0.20317821813E-01 0.  0.
         14    1    1    2    0    0 -0.17276416142E-01 -0.12399543345E-01 -0.10560333367E-01  0.23743291067E-01  0.00000000000E+00 0. -1.
     999901    1    3    3    0    0 -0.11084564737E+00  0.12165574715E-01 -0.18576252191E-01  0.88723155709E+00  0.88000000000E+00 0. -1.
        -11    1    4    4    0    0  0.79233310827E-01 -0.95790680339E-02  0.16228188393E-01  0.81445020158E-01  0.51100000000E-03 0.  1.
         11    1    4    4    0    0  0.48888752688E-01  0.98130366633E-02  0.12908397166E-01  0.51510131686E-01  0.51100000000E-03 0. -1.
</event>
<event>
 8    1  0.1091347E+005  0.1043930E+01  0.7957747E-01            NaN
         13   -1    0    0    0    0  0.00000000000E+00  0.00000000000E+00  0.74505805969E-08  0.10566000000E+00  0.10566000000E+00 0.  1.
     999900   -1    0    0    0    0 -0.00000000000E+00 -0.00000000000E+00 -0.74505805969E-08  0.93827000000E+00  0.93827000000E+00 0. -1.
     999902    2    1    2    0    0  0.15330321249E-01 -0.18042635846E-01 -0.10503794105E-01  0.10180285493E+01  0.10176989938E+01 0.  0.
     999903    2    3    3    0    0 -0.12109145561E+00  0.28996581471E-01  0.92318668977E-02  0.12605708928E+00  0.17355691651E-01 0.  0.
         14    1    1    2    0    0 -0.15330321249E-01  0.18042635846E-01  0.10503794105E-01  0.25901450702E-01  0.00000000000E+00 0. -1.
     999901    1    3    3    0    0  0.13642177686E+00 -0.47039217317E-01 -0.19735661003E-01  0.89197146002E+00  0.88000000000E+00 0. -1.
        -11    1    4    4    0    0 -0.63498612399E-01  0.79233405104E-02  0.97125555985E-02  0.64725945020E-01  0.51100000000E-03 0. -1.
         11    1    4    4    0    0 -0.57592843213E-01  0.21073240961E-01 -0.48068870072E-03  0.61331144262E-01  0.51100000000E-03 0.  1.
</event>
<event>
 8    1  0.1091347E+005  0.1043930E+01  0.7957747E-01            NaN
         13   -1    0    0    0    0  0.00000000000E+00  0.00000000000E+00  0.74505805969E-08  0.10566000000E+00  0.10566000000E+00 0. -1.
     999900   -1    0    0    0    0 -0.00000000000E+00 -0.00000000000E+00 -0.74505805969E-08  0.93827000000E+00  0.93827000000E+00 0. -1.
     999902    2    1    2    0    0  0.10035346259E-01  0.21114970158E-01  0.67943367472E-03  0.10205417173E+01  0.10202736814E+01 0.  0.
     999903    2    3    3    0    0 -0.10434771943E+00 -0.57014724473E-01 -0.44583200054E-01  0.12855716532E+00  0.20003941390E-01 0.  0.
         14    1    1    2    0    0 -0.10035346259E-01 -0.21114970158E-01 -0.67943367472E-03  0.23388282738E-01  0.00000000000E+00 0. -1.
     999901    1    3    3    0    0  0.11438306568E+00  0.78129694631E-01  0.45262633729E-01  0.89198455195E+00  0.88000000000E+00 0.  1.
        -11    1    4    4    0    0 -0.43164573133E-01 -0.14529791371E-01 -0.22878631830E-01  0.50970463274E-01  0.51100000000E-03 0.  1.
         11    1    4    4    0    0 -0.61183146293E-01 -0.42484933102E-01 -0.21704568224E-01  0.77586702042E-01  0.51100000000E-03 0. -1.
</event>
<event>
 8    1  0.1091347E+005  0.1043930E+01  0.7957747E-01            NaN
         13   -1    0    0    0    0  0.00000000000E+00  0.00000000000E+00  0.74505805969E-08  0.10566000000E+00  0.10566000000E+00 0. -1.
     999900   -1    0    0    0    0 -0.00000000000E+00 -0.00000000000E+00 -0.74505805969E-08  0.93827000000E+00  0.93827000000E+00 0.  1.
     999902    2    1    2    0    0 -0.17720928092E-02 -0.12226600711E-01 -0.15529314805E-01  0.10240858649E+01  0.10238935829E+01 0.  0.
     999903    2    3    3    0    0  0.71388615684E-01 -0.10577490036E+00 -0.41827245100E-01  0.13571918684E+00  0.19634542214E-01 0.  0.
         14    1    1    2    0    0  0.17720928092E-02  0.12226600711E-01  0.15529314805E-01  0.19844135057E-01  0.00000000000E+00 0. -1.
     999901    1    3    3    0    0 -0.73160708493E-01  0.93548299645E-01  0.26297930295E-01  0.88836667811E+00  0.88000000000E+00 0. -1.
        -11    1    4    4    0    0  0.35530107120E-02 -0.87617467148E-02 -0.85367657718E-02  0.12748709011E-01  0.51100000000E-03 0. -1.
         11    1    4    4    0    0  0.67835604972E-01 -0.97013153641E-01 -0.33290479329E-01  0.12297047782E+00  0.51100000000E-03 0.  1.
</event>
<event>
 8    1  0.1091347E+005  0.1043930E+01  0.7957747E-01            NaN
         13   -1    0    0    0    0  0.00000000000E+00  0.00000000000E+00  0.74505805969E-08  0.10566000000E+00  0.10566000000E+00 0. -1.
     999900   -1    0    0    0    0 -0.00000000000E+00 -0.00000000000E+00 -0.74505805969E-08  0.93827000000E+00  0.93827000000E+00 0. -1.
     999902    2    1    2    0    0 -0.18092576822E-01 -0.61347106812E-02  0.13116303989E-01  0.10207564495E+01  0.10204933688E+01 0.  0.
     999903    2    3    3    0    0  0.10641586767E+00  0.23491810758E-01  0.67702314631E-01  0.12982451269E+00  0.19864506595E-01 0.  0.
         14    1    1    2    0    0  0.18092576822E-01  0.61347106812E-02 -0.13116303989E-01  0.23173550473E-01  0.00000000000E+00 0.  1.
     999901    1    3    3    0    0 -0.12450844450E+00 -0.29626521439E-01 -0.54586010641E-01  0.89093193684E+00  0.88000000000E+00 0.  1.
        -11    1    4    4    0    0  0.36372375214E-01  0.13323176755E-01  0.33497588042E-01  0.51213340480E-01  0.51100000000E-03 0.  1.
         11    1    4    4    0    0  0.70043492461E-01  0.10168634003E-01  0.34204726589E-01  0.78611172206E-01  0.51100000000E-03 0. -1.
</event>
<event>
 8    1  0.1091347E+005  0.1043930E+01  0.7957747E-01            NaN
         13   -1    0    0    0    0  0.00000000000E+00  0.00000000000E+00  0.74505805969E-08  0.10566000000E+00  0.10566000000E+00 0.  1.
     999900   -1    0    0    0    0 -0.00000000000E+00 -0.00000000000E+00 -0.74505805969E-08  0.93827000000E+00  0.93827000000E+00 0. -1.
     999902    2    1    2    0    0  0.13150661088E-01  0.12995553002E-01 -0.46279283054E-02  0.10248710912E+01  0.10246938623E+01 0.  0.
     999903    2    3    3    0    0 -0.42660808514E-01  0.86053524603E-01  0.92538215903E-01  0.13476230742E+00  0.19297782741E-01 0.  0.
         14    1    1    2    0    0 -0.13150661088E-01 -0.12995553002E-01  0.46279283054E-02  0.19058908817E-01  0.00000000000E+00 0. -1.
     999901    1    3    3    0    0  0.55811469602E-01 -0.73057971600E-01 -0.97166144209E-01  0.89010878376E+00  0.88000000000E+00 0. -1.
        -11    1    4    4    0    0 -0.31517241861E-01  0.78229834278E-01  0.79756331039E-01  0.11608004552E+00  0.51100000000E-03 0. -1.
         11    1    4    4    0    0 -0.11143566653E-01  0.78236903250E-02  0.12781884865E-01  0.18682261902E-01  0.51100000000E-03 0.  1.
</event>
<event>
 8    1  0.1091347E+005  0.1043930E+01  0.7957747E-01            NaN
         13   -1    0    0    0    0  0.00000000000E+00  0.00000000000E+00  0.74505805969E-08  0.10566000000E+00  0.10566000000E+00 0.  1.
     999900   -1    0    0    0    0 -0.00000000000E+00 -0.00000000000E+00 -0.74505805969E-08  0.93827000000E+00  0.93827000000E+00 0.  1.
     999902    2    1    2    0    0  0.58088116469E-02  0.21416118926E-01 -0.65059709199E-02  0.10208059843E+01  0.10205440400E+01 0.  0.
     999903    2    3    3    0    0 -0.50912854669E-01  0.12112943796E+00 -0.11312630096E-01  0.13334714169E+00  0.19723718899E-01 0.  0.
         14    1    1    2    0    0 -0.58088116469E-02 -0.21416118926E-01  0.65059709199E-02  0.23124015659E-01  0.00000000000E+00 0. -1.
     999901    1    3    3    0    0  0.56721666316E-01 -0.99713319033E-01  0.48066591765E-02  0.88745884265E+00  0.88000000000E+00 0.  1.
        -11    1    4    4    0    0 -0.30749379678E-01  0.72160011342E-01  0.29634744673E-02  0.78496082000E-01  0.51100000000E-03 0.  1.
         11    1    4    4    0    0 -0.20163474991E-01  0.48969426616E-01 -0.14276104564E-01  0.54851059692E-01  0.51100000000E-03 0. -1.
</event>
<event>
 8    1  0.1091347E+005  0.1043930E+01  0.7957747E-01            NaN
         13   -1    0    0    0    0  0.00000000000E+00  0.00000000000E+00  0.74505805969E-08  0.10566000000E+00  0.10566000000E+00 0. -1.
     999900   -1    0    0    0    0 -0.00000000000E+00 -0.00000000000E+00 -0.74505805969E-08  0.93827000000E+00  0.93827000000E+00 0.  1.
     999902    2    1    2    0    0  0.19904726080E-01 -0.10811533005E-01  0.67178778725E-02  0.10203033784E+01  0.10200297872E+01 0.  0.
     999903    2    3    3    0    0 -0.10466089475E+00 -0.72038419554E-01 -0.12364789805E-01  0.12922006368E+00  0.20037466111E-01 0.  0.
         14    1    1    2    0    0 -0.19904726080E-01  0.10811533005E-01 -0.67178778725E-02  0.23626621624E-01  0.00000000000E+00 0.  1.
     999901    1    3    3    0    0  0.12456562083E+00  0.61226886549E-01  0.19082667677E-01  0.89108331470E+00  0.88000000000E+00 0. -1.
        -11    1    4    4    0    0 -0.25673417679E-01 -0.28031430609E-01 -0.68847105596E-02  0.38633480788E-01  0.51100000000E-03 0. -1.
         11    1    4    4    0    0 -0.78987477071E-01 -0.44006988945E-01 -0.54800792451E-02  0.90586582889E-01  0.51100000000E-03 0.  1.
</event>
<event>
 8    1  0.1091347E+005  0.1043930E+01  0.7957747E-01            NaN
         13   -1    0    0    0    0  0.00000000000E+00  0.00000000000E+00  0.74505805969E-08  0.10566000000E+00  0.10566000000E+00 0. -1.
     999900   -1    0    0    0    0 -0.00000000000E+00 -0.00000000000E+00 -0.74505805969E-08  0.93827000000E+00  0.93827000000E+00 0. -1.
     999902    2    1    2    0    0  0.19660468490E-01  0.90179073998E-02  0.10026681184E-01  0.10200890476E+01  0.10198104108E+01 0.  0.
     999903    2    3    3    0    0 -0.10096561417E+00 -0.72335735572E-01  0.22823454798E-01  0.12805046972E+00  0.21201387218E-01 0.  0.
         14    1    1    2    0    0 -0.19660468490E-01 -0.90179073998E-02 -0.10026681184E-01  0.23840952386E-01  0.00000000000E+00 0.  1.
     999901    1    3    3    0    0  0.12062608266E+00  0.81353642972E-01 -0.12796773614E-01  0.89203857790E+00  0.88000000000E+00 0. -1.
        -11    1    4    4    0    0 -0.55387707788E-01 -0.27959680559E-01  0.65806194125E-02  0.62394772087E-01  0.51100000000E-03 0. -1.
         11    1    4    4    0    0 -0.45577906383E-01 -0.44376055013E-01  0.16242835385E-01  0.65655697629E-01  0.51100000000E-03 0.  1.
</event>
<event>
 8    1  0.1091347E+005  0.1043930E+01  0.7957747E-01            NaN
         13   -1    0    0    0    0  0.00000000000E+00  0.00000000000E+00  0.74505805969E-08  0.10566000000E+00  0.10566000000E+00 0.  1.
     999900   -1    0    0    0    0 -0.00000000000E+00 -0.00000000000E+00 -0.74505805969E-08  0.93827000000E+00  0.93827000000E+00 0.  1.
     999902    2    1    2    0    0 -0.21711017300E-01 -0.97354743565E-02  0.26193360774E-02  0.10199924008E+01  0.10197114734E+01 0.  0.
     999903    2    3    3    0    0  0.18333258397E-02  0.10888266146E+00 -0.68370705228E-01  0.12888960978E+00  0.88984900331E-02 0.  0.
         14    1    1    2    0    0  0.21711017300E-01  0.97354743565E-02 -0.26193360774E-02  0.23937599182E-01  0.00000000000E+00 0. -1.
     999901    1    3    3    0    0 -0.23544343139E-01 -0.11861813581E+00  0.70990041305E-01  0.89110279104E+00  0.88000000000E+00 0.  1.
        -11    1    4    4    0    0  0.30598462804E-02  0.60045552673E-01 -0.33114490340E-01  0.68641544611E-01  0.51100000000E-03 0. -1.
         11    1    4    4    0    0 -0.12265204408E-02  0.48837108785E-01 -0.35256214887E-01  0.60248065165E-01  0.51100000000E-03 0.  1.
</event>
<event>
 8    1  0.1091347E+005  0.1043930E+01  0.7957747E-01            NaN
         13   -1    0    0    0    0  0.00000000000E+00  0.00000000000E+00  0.74505805969E-08  0.10566000000E+00  0.10566000000E+00 0.  1.
     999900   -1    0    0    0    0 -0.00000000000E+00 -0.00000000000E+00 -0.74505805969E-08  0.93827000000E+00  0.93827000000E+00 0.  1.
     999902    2    1    2    0    0 -0.16181655693E-01 -0.53030760586E-02 -0.16324596214E-01  0.10203405736E+01  0.10200678532E+01 0.  0.
     999903    2    3    3    0    0  0.57818247765E-01 -0.11099777506E+00  0.28594866614E-01  0.12979854020E+00  0.19145202982E-01 0.  0.
         14    1    1    2    0    0  0.16181655693E-01  0.53030760586E-02  0.16324596214E-01  0.23589426406E-01  0.00000000000E+00 0.  1.
     999901    1    3    3    0    0 -0.73999903458E-01  0.10569469900E+00 -0.44919462828E-01  0.89054203340E+00  0.88000000000E+00 0. -1.
        -11    1    4    4    0    0  0.12176733882E-01 -0.10061445760E-01  0.26632623810E-02  0.16026840809E-01  0.51100000000E-03 0. -1.
         11    1    4    4    0    0  0.45641513884E-01 -0.10093632930E+00  0.25931604233E-01  0.11377169939E+00  0.51100000000E-03 0.  1.
</event>
<event>
 7    1  0.1091347E+005  0.1043930E+01  0.7957747E-01            NaN
         13   -1    0    0    0    0  0.00000000000E+00  0.00000000000E+00  0.74505805969E-08  0.10566000000E+00  0.10566000000E+00 0. -1.
     999900   -1    0    0    0    0 -0.00000000000E+00 -0.00000000000E+00 -0.74505805969E-08  0.93827000000E+00  0.93827000000E+00 0. -1.
     999903    2    1    2    0    0 -0.34026639188E-01  0.75743135178E-01  0.27293379194E-01  0.89562913141E-01  0.19538478993E-01 0.  0.
         14    1    1    2    0    0  0.37291194410E-01 -0.20920063330E-01  0.54041743823E-01  0.68911481668E-01  0.00000000000E+00 0. -1.
     999901    1    1    2    0    0 -0.32645552222E-02 -0.54823071848E-01 -0.81335123017E-01  0.88545560519E+00  0.88000000000E+00 0. -1.
        -11    1    3    3    0    0 -0.21699309745E-01  0.65588011161E-01  0.24729414425E-01  0.73378827398E-01  0.51100000000E-03 0.  1.
         11    1    3    3    0    0 -0.12327329443E-01  0.10155124017E-01  0.25639647691E-02  0.16184085743E-01  0.51100000000E-03 0. -1.
</event>
<event>
 8    1  0.1091347E+005  0.1043930E+01  0.7957747E-01            NaN
         13   -1    0    0    0    0  0.00000000000E+00  0.00000000000E+00  0.74505805969E-08  0.10566000000E+00  0.10566000000E+00 0. -1.
     999900   -1    0    0    0    0 -0.00000000000E+00 -0.00000000000E+00 -0.74505805969E-08  0.93827000000E+00  0.93827000000E+00 0. -1.
     999902    2    1    2    0    0  0.22149972595E-01 -0.56631842817E-02  0.41426252468E-02  0.10206952354E+01  0.10204307469E+01 0.  0.
     999903    2    3    3    0    0  0.13086614402E+00 -0.19736145321E-01  0.24760324748E-02  0.13389196990E+00  0.20136180969E-01 0.  0.
         14    1    1    2    0    0 -0.22149972595E-01  0.56631842817E-02 -0.41426252468E-02  0.23234764602E-01  0.00000000000E+00 0.  1.
     999901    1    3    3    0    0 -0.10871617143E+00  0.14072961039E-01  0.16665927720E-02  0.88680326550E+00  0.88000000000E+00 0. -1.
        -11    1    4    4    0    0  0.27330397131E-01  0.30277539025E-02  0.44702469678E-02  0.27863275650E-01  0.51100000000E-03 0. -1.
         11    1    4    4    0    0  0.10353574689E+00 -0.22763899223E-01 -0.19942144930E-02  0.10602869425E+00  0.51100000000E-03 0.  1.
</event>
<event>
 8    1  0.1091347E+005  0.1043930E+01  0.7957747E-01            NaN
         13   -1    0    0    0    0  0.00000000000E+00  0.00000000000E+00  0.74505805969E-08  0.10566000000E+00  0.10566000000E+00 0.  1.
     999900   -1    0    0    0    0 -0.00000000000E+00 -0.00000000000E+00 -0.74505805969E-08  0.93827000000E+00  0.93827000000E+00 0.  1.
     999902    2    1    2    0    0  0.29435267572E-03  0.10526784977E-01  0.21874128520E-01  0.10196529050E+01  0.10193638552E+01 0.  0.
     999903    2    3    3    0    0  0.87329830893E-01 -0.66385348862E-01  0.68488769673E-01  0.13079769989E+00  0.19591141298E-01 0.  0.
         14    1    1    2    0    0 -0.29435267572E-03 -0.10526784977E-01 -0.21874128520E-01  0.24277095048E-01  0.00000000000E+00 0. -1.
     999901    1    3    3    0    0 -0.87035478217E-01  0.76912133839E-01 -0.46614641152E-01  0.88885520506E+00  0.88000000000E+00 0.  1.
        -11    1    4    4    0    0  0.36430785179E-01 -0.39913491966E-01  0.32068319831E-01  0.62840490191E-01  0.51100000000E-03 0.  1.
         11    1    4    4    0    0  0.50899045714E-01 -0.26471856896E-01  0.36420449842E-01  0.67957209697E-01  0.51100000000E-03 0. -1.
</event>
<event>
 8    1  0.1091347E+005  0.1043930E+01  0.7957747E-01            NaN
         13   -1    0    0    0    0  0.00000000000E+00  0.00000000000E+00  0.74505805969E-08  0.10566000000E+00  0.10566000000E+00 0. -1.
     999900   -1    0    0    0    0 -0.00000000000E+00 -0.00000000000E+00 -0.74505805969E-08  0.93827000000E+00  0.93827000000E+00 0.  1.
     999902    2    1    2    0    0  0.11856827538E-01 -0.15857931383E-01 -0.13403146751E-01  0.10200196949E+01  0.10197394154E+01 0.  0.
     999903    2    3    3    0    0 -0.60801480012E-02 -0.10672828383E+00 -0.76183844214E-01  0.13293425819E+00  0.20967692120E-01 0.  0.
         14    1    1    2    0    0 -0.11856827538E-01  0.15857931383E-01  0.13403146751E-01  0.23910305097E-01  0.00000000000E+00 0. -1.
     999901    1    3    3    0    0  0.17936975539E-01  0.90870352450E-01  0.62780697463E-01  0.88708543671E+00  0.88000000000E+00 0.  1.
        -11    1    4    4    0    0  0.60537192753E-02 -0.55385465569E-01 -0.45227640433E-01  0.71763485795E-01  0.51100000000E-03 0.  1.
         11    1    4    4    0    0 -0.12133867276E-01 -0.51342818265E-01 -0.30956203781E-01  0.61170772400E-01  0.51100000000E-03 0. -1.
</event>
<event>
 8    1  0.1091347E+005  0.1043930E+01  0.7957747E-01            NaN
         13   -1    0    0    0    0  0.00000000000E+00  0.00000000000E+00  0.74505805969E-08  0.10566000000E+00  0.10566000000E+00 0.  1.
     999900   -1    0    0    0    0 -0.00000000000E+00 -0.00000000000E+00 -0.74505805969E-08  0.93827000000E+00  0.93827000000E+00 0. -1.
     999902    2    1    2    0    0 -0.25504609894E-01 -0.13863489503E-02  0.92156772918E-02  0.10167760722E+01  0.10164134223E+01 0.  0.
     999903    2    3    3    0    0 -0.80156976034E-01 -0.74144442826E-01 -0.65744212312E-01  0.12891369183E+00  0.19336475389E-01 0.  0.
         14    1    1    2    0    0  0.25504609894E-01  0.13863489503E-02 -0.92156772918E-02  0.27153927841E-01  0.00000000000E+00 0. -1.
     999901    1    3    3    0    0  0.54652366140E-01  0.72758093876E-01  0.74959889604E-01  0.88786238033E+00  0.88000000000E+00 0.  1.
        -11    1    4    4    0    0 -0.26707418946E-01 -0.25460546439E-01 -0.11923179802E-01  0.38780781185E-01  0.51100000000E-03 0. -1.
         11    1    4    4    0    0 -0.53449557089E-01 -0.48683896387E-01 -0.53821032510E-01  0.90132910648E-01  0.51100000000E-03 0.  1.
</event>
<event>
 8    1  0.1091347E+005  0.1043930E+01  0.7957747E-01            NaN
         13   -1    0    0    0    0  0.00000000000E+00  0.00000000000E+00  0.74505805969E-08  0.10566000000E+00  0.10566000000E+00 0.  1.
     999900   -1    0    0    0    0 -0.00000000000E+00 -0.00000000000E+00 -0.74505805969E-08  0.93827000000E+00  0.93827000000E+00 0. -1.
     999902    2    1    2    0    0 -0.78467509324E-02  0.19766686243E-01 -0.97459320612E-02  0.10205360568E+01  0.10202678897E+01 0.  0.
     999903    2    3    3    0    0  0.12311544736E+00 -0.37537151925E-02 -0.36693158896E-01  0.13012578078E+00  0.20367306094E-01 0.  0.
         14    1    1    2    0    0  0.78467509324E-02 -0.19766686243E-01  0.97459320612E-02  0.23393943168E-01  0.00000000000E+00 0.  1.
     999901    1    3    3    0    0 -0.13096219829E+00  0.23520401435E-01  0.26947226835E-01  0.89041027605E+00  0.88000000000E+00 0. -1.
        -11    1    4    4    0    0  0.78324225228E-01 -0.12104848255E-01 -0.22080187893E-01  0.82273977825E-01  0.51100000000E-03 0.  1.
         11    1    4    4    0    0  0.44791222132E-01  0.83511330621E-02 -0.14612971003E-01  0.47851802954E-01  0.51100000000E-03 0. -1.
</event>
<event>
 8    1  0.1091347E+005  0.1043930E+01  0.7957747E-01            NaN
         13   -1    0    0    0    0  0.00000000000E+00  0.00000000000E+00  0.74505805969E-08  0.10566000000E+00  0.10566000000E+00 0.  1.
     999900   -1    0    0    0    0 -0.00000000000E+00 -0.00000000000E+00 -0.74505805969E-08  0.93827000000E+00  0.93827000000E+00 0. -1.
     999902    2    1    2    0    0 -0.23570957521E-01 -0.83199282015E-02 -0.68207785854E-02  0.10180198810E+01  0.10176901021E+01 0.  0.
     999903    2    3    3    0    0 -0.30053588064E-01  0.35694446359E-01  0.11764683786E+00  0.12814827390E+00  0.20097014409E-01 0.  0.
         14    1    1    2    0    0  0.23570957521E-01  0.83199282015E-02  0.68207785854E-02  0.25910118955E-01  0.00000000000E+00 0. -1.
     999901    1    3    3    0    0  0.64826305434E-02 -0.44014374561E-01 -0.12446761644E+00  0.88987160715E+00  0.88000000000E+00 0. -1.
        -11    1    4    4    0    0 -0.23316699973E-01  0.12655619918E-01  0.68219794535E-01  0.73198597668E-01  0.51100000000E-03 0. -1.
         11    1    4    4    0    0 -0.67368880914E-02  0.23038826441E-01  0.49427043324E-01  0.54949676229E-01  0.51100000000E-03 0.  1.
</event>
<event>
 8    1  0.1091347E+005  0.1043930E+01  0.7957747E-01            NaN
         13   -1    0    0    0    0  0.00000000000E+00  0.00000000000E+00  0.74505805969E-08  0.10566000000E+00  0.10566000000E+00 0. -1.
     999900   -1    0    0    0    0 -0.00000000000E+00 -0.00000000000E+00 -0.74505805969E-08  0.93827000000E+00  0.93827000000E+00 0. -1.
     999902    2    1    2    0    0  0.23148930810E-01  0.79013292271E-02  0.22485366957E-02  0.10193666143E+01  0.10190706229E+01 0.  0.
     999903    2    3    3    0    0  0.63172825807E-01  0.95308157227E-01 -0.62392763281E-01  0.13177416083E+00  0.19927915015E-01 0.  0.
         14    1    1    2    0    0 -0.23148930810E-01 -0.79013292271E-02 -0.22485366957E-02  0.24563385729E-01  0.00000000000E+00 0. -1.
     999901    1    3    3    0    0 -0.40023894998E-01 -0.87406828000E-01  0.64641299977E-01  0.88759245345E+00  0.88000000000E+00 0.  1.
        -11    1    4    4    0    0  0.20077486366E-01  0.40742260738E-01 -0.33670465782E-01  0.56542007886E-01  0.51100000000E-03 0.  1.
         11    1    4    4    0    0  0.43095339441E-01  0.54565896488E-01 -0.28722297499E-01  0.75232152939E-01  0.51100000000E-03 0. -1.
</event>
<event>
 8    1  0.1091347E+005  0.1043930E+01  0.7957747E-01            NaN
         13   -1    0    0    0    0  0.00000000000E+00  0.00000000000E+00  0.74505805969E-08  0.10566000000E+00  0.10566000000E+00 0.  1.
     999900   -1    0    0    0    0 -0.00000000000E+00 -0.00000000000E+00 -0.74505805969E-08  0.93827000000E+00  0.93827000000E+00 0. -1.
     999902    2    1    2    0    0  0.19717627516E-01  0.12123161662E-01  0.34892539595E-02  0.10205220788E+01  0.10202535873E+01 0.  0.
     999903    2    3    3    0    0 -0.48646656560E-01  0.99536508517E-02  0.11888750912E+00  0.13035628555E+00  0.19822941175E-01 0.  0.
         14    1    1    2    0    0 -0.19717627516E-01 -0.12123161662E-01 -0.34892539595E-02  0.23407921240E-01  0.00000000000E+00 0. -1.
     999901    1    3    3    0    0  0.68364284077E-01  0.21695108103E-02 -0.11539825516E+00  0.89016579321E+00  0.88000000000E+00 0.  1.
        -11    1    4    4    0    0 -0.42851180425E-01  0.40311987219E-02  0.82726981844E-01  0.93254967014E-01  0.51100000000E-03 0.  1.
         11    1    4    4    0    0 -0.57954761356E-02  0.59224521298E-02  0.36160527277E-01  0.37101318532E-01  0.51100000000E-03 0. -1.
</event>
<event>
 8    1  0.1091347E+005  0.1043930E+01  0.7957747E-01            NaN
         13   -1    0    0    0    0  0.00000000000E+00  0.00000000000E+00  0.74505805969E-08  0.10566000000E+00  0.10566000000E+00 0.  1.
     999900   -1    0    0    0    0 -0.00000000000E+00 -0.00000000000E+00 -0.74505805969E-08  0.93827000000E+00  0.93827000000E+00 0.  1.
     999902    2    1    2    0    0 -0.19488498511E-01  0.16134955308E-02 -0.12850617155E-01  0.10205303568E+01  0.10202620574E+01 0.  0.
     999903    2    3    3    0    0 -0.46125573990E-01 -0.11964500992E+00 -0.22655473155E-01  0.13176194254E+00  0.20135591926E-01 0.  0.
         14    1    1    2    0    0  0.19488498511E-01 -0.16134955308E-02  0.12850617155E-01  0.23399643230E-01  0.00000000000E+00 0.  1.
     999901    1    3    3    0    0  0.26637075479E-01  0.12125850545E+00  0.98048560000E-02  0.88876841423E+00  0.88000000000E+00 0. -1.
        -11    1    4    4    0    0  0.10236966331E-02 -0.90560684696E-02  0.11684401540E-02  0.92025379280E-02  0.51100000000E-03 0. -1.
         11    1    4    4    0    0 -0.47149270623E-01 -0.11058894145E+00 -0.23823913309E-01  0.12255940461E+00  0.51100000000E-03 0.  1.
</event>
<event>
 8    1  0.1091347E+005  0.1043930E+01  0.7957747E-01            NaN
         13   -1    0    0    0    0  0.00000000000E+00  0.00000000000E+00  0.74505805969E-08  0.10566000000E+00  0.10566000000E+00 0. -1.
     999900   -1    0    0    0    0 -0.00000000000E+00 -0.00000000000E+00 -0.74505805969E-08  0.93827000000E+00  0.93827000000E+00 0. -1.
     999902    2    1    2    0    0  0.24046032096E-02 -0.23885326224E-01  0.38534939926E-02  0.10196166222E+01  0.10193266973E+01 0.  0.
     999903    2    3    3    0    0 -0.42550560814E-01  0.11490734435E+00  0.28009307192E-01  0.12727819115E+00  0.20024201383E-01 0.  0.
         14    1    1    2    0    0 -0.24046032096E-02  0.23885326224E-01 -0.38534939926E-02  0.24313377828E-01  0.00000000000E+00 0. -1.
     999901    1    3    3    0    0  0.44955164024E-01 -0.13879267057E+00 -0.24155813200E-01  0.89233843103E+00  0.88000000000E+00 0.  1.
        -11    1    4    4    0    0 -0.29555981271E-01  0.58912970031E-01  0.21964376630E-01  0.69476535812E-01  0.51100000000E-03 0. -1.
         11    1    4    4    0    0 -0.12994579543E-01  0.55994374317E-01  0.60449305624E-02  0.57801655333E-01  0.51100000000E-03 0.  1.
</event>
<event>
 8    1  0.1091347E+005  0.1043930E+01  0.7957747E-01            NaN
         13   -1    0    0    0    0  0.00000000000E+00  0.00000000000E+00  0.74505805969E-08  0.10566000000E+00  0.10566000000E+00 0. -1.
     999900   -1    0    0    0    0 -0.00000000000E+00 -0.00000000000E+00 -0.74505805969E-08  0.93827000000E+00  0.93827000000E+00 0.  1.
     999902    2    1    2    0    0  0.17754289722E-02  0.79731626117E-02 -0.23109657568E-01  0.10194191913E+01  0.10191244810E+01 0.  0.
     999903    2    3    3    0    0  0.32067254370E-01 -0.12329899492E+00 -0.47990816354E-02  0.12897814821E+00  0.19528967723E-01 0.  0.
         14    1    1    2    0    0 -0.17754289722E-02 -0.79731626117E-02  0.23109657568E-01  0.24510808697E-01  0.00000000000E+00 0. -1.
     999901    1    3    3    0    0 -0.30291825398E-01  0.13127215753E+00 -0.18310575933E-01  0.89044104309E+00  0.88000000000E+00 0.  1.
        -11    1    4    4    0    0  0.17522959679E-01 -0.71497152241E-01  0.68214381776E-02  0.73930305249E-01  0.51100000000E-03 0.  1.
         11    1    4    4    0    0  0.14544294691E-01 -0.51801842681E-01 -0.11620519813E-01  0.55047842963E-01  0.51100000000E-03 0. -1.
</event>
<event>
 8    1  0.1091347E+005  0.1043930E+01  0.7957747E-01            NaN
         13   -1    0    0    0    0  0.00000000000E+00  0.00000000000E+00  0.74505805969E-08  0.10566000000E+00  0.10566000000E+00 0.  1.
     999900   -1    0    0    0    0 -0.00000000000E+00 -0.00000000000E+00 -0.74505805969E-08  0.93827000000E+00  0.93827000000E+00 0. -1.
     999902    2    1    2    0    0  0.20926699961E-01 -0.59882271192E-02 -0.12606054255E-01  0.10187765064E+01  0.10184659404E+01 0.  0.
     999903    2    3    3    0    0 -0.34880967387E-01  0.32364147249E-01 -0.11909375541E+00  0.12977423935E+00  0.19847183901E-01 0.  0.
         14    1    1    2    0    0 -0.20926699961E-01  0.59882271192E-02  0.12606054255E-01  0.25153493578E-01  0.00000000000E+00 0. -1.
     999901    1    3    3    0    0  0.55807667349E-01 -0.38352374368E-01  0.10648770116E+00  0.88900226707E+00  0.88000000000E+00 0.  1.
        -11    1    4    4    0    0 -0.80058797083E-02  0.15478122729E-01 -0.25064397473E-01  0.30531156788E-01  0.51100000000E-03 0. -1.
         11    1    4    4    0    0 -0.26875087679E-01  0.16886024520E-01 -0.94029357938E-01  0.99243082566E-01  0.51100000000E-03 0.  1.
</event>
<event>
 8    1  0.1091347E+005  0.1043930E+01  0.7957747E-01            NaN
         13   -1    0    0    0    0  0.00000000000E+00  0.00000000000E+00  0.74505805969E-08  0.10566000000E+00  0.10566000000E+00 0.  1.
     999900   -1    0    0    0    0 -0.00000000000E+00 -0.00000000000E+00 -0.74505805969E-08  0.93827000000E+00  0.93827000000E+00 0. -1.
     999902    2    1    2    0    0 -0.17870164771E-02  0.23000867719E-01  0.27177546720E-02  0.10207002877E+01  0.10204359156E+01 0.  0.
     999903    2    3    3    0    0  0.55815309712E-01 -0.98919834804E-01 -0.56601389666E-01  0.12845511590E+00  0.19912733949E-01 0.  0.
         14    1    1    2    0    0  0.17870164771E-02 -0.23000867719E-01 -0.27177546720E-02  0.23229712314E-01  0.00000000000E+00 0.  1.
     999901    1    3    3    0    0 -0.57602326189E-01  0.12192070252E+00  0.59319144338E-01  0.89224517178E+00  0.88000000000E+00 0. -1.
        -11    1    4    4    0    0  0.35447701829E-01 -0.60941740284E-01 -0.45635582600E-01  0.83983943668E-01  0.51100000000E-03 0.  1.
         11    1    4    4    0    0  0.20367607883E-01 -0.37978094520E-01 -0.10965807067E-01  0.44471172234E-01  0.51100000000E-03 0. -1.
</event>
<event>
 8    1  0.1091347E+005  0.1043930E+01  0.7957747E-01            NaN
         13   -1    0    0    0    0  0.00000000000E+00  0.00000000000E+00  0.74505805969E-08  0.10566000000E+00  0.10566000000E+00 0.  1.
     999900   -1    0    0    0    0 -0.00000000000E+00 -0.00000000000E+00 -0.74505805969E-08  0.93827000000E+00  0.93827000000E+00 0. -1.
     999902    2    1    2    0    0 -0.44076123019E-02  0.21195653070E-01  0.10976760516E-01  0.10196571339E+01  0.10193681861E+01 0.  0.
     999903    2    3    3    0    0 -0.43131443241E-01 -0.23727315644E-01 -0.11695227825E+00  0.12843132240E+00  0.19835883657E-01 0.  0.
         14    1    1    2    0    0  0.44076123019E-02 -0.21195653070E-01 -0.10976760516E-01  0.24272866058E-01  0.00000000000E+00 0. -1.
     999901    1    3    3    0    0  0.38723830939E-01  0.44922968714E-01  0.12792903877E+00  0.89122581154E+00  0.88000000000E+00 0.  1.
        -11    1    4    4    0    0 -0.94707693232E-02  0.27076684500E-02 -0.16240482923E-01  0.19001088037E-01  0.51100000000E-03 0. -1.
         11    1    4    4    0    0 -0.33660673918E-01 -0.26434984094E-01 -0.10071179533E+00  0.10943023436E+00  0.51100000000E-03 0.  1.
</event>
<event>
 8    1  0.1091347E+005  0.1043930E+01  0.7957747E-01            NaN
         13   -1    0    0    0    0  0.00000000000E+00  0.00000000000E+00  0.74505805969E-08  0.10566000000E+00  0.10566000000E+00 0. -1.
     999900   -1    0    0    0    0 -0.00000000000E+00 -0.00000000000E+00 -0.74505805969E-08  0.93827000000E+00  0.93827000000E+00 0. -1.
     999902    2    1    2    0    0  0.20922616526E-01  0.87536568568E-02  0.43037444534E-02  0.10208452733E+01  0.10205842285E+01 0.  0.
     999903    2    3    3    0    0  0.14041020249E-01  0.22910243350E-01 -0.12671063222E+00  0.13100678671E+00  0.19625604413E-01 0.  0.
         14    1    1    2    0    0 -0.20922616526E-01 -0.87536568568E-02 -0.43037444534E-02  0.23084726704E-01  0.00000000000E+00 0.  1.
     999901    1    3    3    0    0  0.68815962778E-02 -0.14156586493E-01  0.13101437667E+00  0.88983848658E+00  0.88000000000E+00 0.  1.
        -11    1    4    4    0    0  0.16345403877E-01  0.10657616947E-01 -0.58683408443E-01  0.61844648713E-01  0.51100000000E-03 0. -1.
         11    1    4    4    0    0 -0.23043836281E-02  0.12252626403E-01 -0.68027223773E-01  0.69162138001E-01  0.51100000000E-03 0.  1.
</event>
<event>
 8    1  0.1091347E+005  0.1043930E+01  0.7957747E-01            NaN
         13   -1    0    0    0    0  0.00000000000E+00  0.00000000000E+00  0.74505805969E-08  0.10566000000E+00  0.10566000000E+00 0.  1.
     999900   -1    0    0    0    0 -0.00000000000E+00 -0.00000000000E+00 -0.74505805969E-08  0.93827000000E+00  0.93827000000E+00 0. -1.
     999902    2    1    2    0    0  0.12584773842E-01  0.82978196205E-02  0.18589834931E-01  0.10199965024E+01  0.10197156725E+01 0.  0.
     999903    2    3    3    0    0  0.97168798373E-01 -0.69238039074E-01 -0.48094322957E-01  0.13004535574E+00  0.19053850424E-01 0.  0.
         14    1    1    2    0    0 -0.12584773842E-01 -0.82978196205E-02 -0.18589834931E-01  0.23933497569E-01  0.00000000000E+00 0. -1.
     999901    1    3    3    0    0 -0.84584024531E-01  0.77535858695E-01  0.66684157888E-01  0.88995114669E+00  0.88000000000E+00 0.  1.
        -11    1    4    4    0    0  0.12248178603E-01 -0.70620179004E-02 -0.12675542724E-01  0.18995275209E-01  0.51100000000E-03 0. -1.
         11    1    4    4    0    0  0.84920619770E-01 -0.62176021174E-01 -0.35418780234E-01  0.11105008053E+00  0.51100000000E-03 0.  1.
</event>
<event>
 8    1  0.1091347E+005  0.1043930E+01  0.7957747E-01            NaN
         13   -1    0    0    0    0  0.00000000000E+00  0.00000000000E+00  0.74505805969E-08  0.10566000000E+00  0.10566000000E+00 0. -1.
     999900   -1    0    0    0    0 -0.00000000000E+00 -0.00000000000E+00 -0.74505805969E-08  0.93827000000E+00  0.93827000000E+00 0.  1.
     999902    2    1    2    0    0 -0.12880829447E-01  0.11023304582E-01  0.17545893944E-01  0.10195314876E+01  0.10192395042E+01 0.  0.
     999903    2    3    3    0    0  0.69692503387E-01 -0.79321444752E-01  0.72732852427E-01  0.12934828772E+00  0.17087278560E-01 0.  0.
         14    1    1    2    0    0  0.12880829447E-01 -0.11023304582E-01 -0.17545893944E-01  0.24398512361E-01  0.00000000000E+00 0.  1.
     999901    1    3    3    0    0 -0.82573332834E-01  0.90344749334E-01 -0.55186958483E-01  0.89018319992E+00  0.88000000000E+00 0. -1.
        -11    1    4    4    0    0  0.24780219297E-01 -0.20880555321E-01  0.29927910042E-01  0.44113464831E-01  0.51100000000E-03 0.  1.
         11    1    4    4    0    0  0.44912284090E-01 -0.58440889431E-01  0.42804942385E-01  0.85234822891E-01  0.51100000000E-03 0. -1.
</event>
<event>
 8    1  0.1091347E+005  0.1043930E+01  0.7957747E-01            NaN
         13   -1    0    0    0    0  0.00000000000E+00  0.00000000000E+00  0.74505805969E-08  0.10566000000E+00  0.10566000000E+00 0.  1.
     999900   -1    0    0    0    0 -0.00000000000E+00 -0.00000000000E+00 -0.74505805969E-08  0.93827000000E+00  0.93827000000E+00 0. -1.
     999902    2    1    2    0    0  0.21707337928E-01 -0.35387144215E-02 -0.83477461084E-02  0.10204052070E+01  0.10201339964E+01 0.  0.
     999903    2    3    3    0    0 -0.35163904759E-01  0.53458803893E-01 -0.11218212046E+00  0.13064982904E+00  0.19753626671E-01 0.  0.
         14    1    1    2    0    0 -0.21707337928E-01  0.35387144215E-02  0.83477461084E-02  0.23524792980E-01  0.00000000000E+00 0. -1.
     999901    1    3    3    0    0  0.56871242686E-01 -0.56997518314E-01  0.10383437435E+00  0.88975537798E+00  0.88000000000E+00 0.  1.
        -11    1    4    4    0    0 -0.20181508802E-01  0.30733118307E-01 -0.44685493361E-01  0.57869441818E-01  0.51100000000E-03 0.  1.
         11    1    4    4    0    0 -0.14982395957E-01  0.22725685586E-01 -0.67496627100E-01  0.72780387226E-01  0.51100000000E-03 0. -1.
</event>
<event>
 8    1  0.1091347E+005  0.1043930E+01  0.7957747E-01            NaN
         13   -1    0    0    0    0  0.00000000000E+00  0.00000000000E+00  0.74505805969E-08  0.10566000000E+00  0.10566000000E+00 0.  1.
     999900   -1    0    0    0    0 -0.00000000000E+00 -0.00000000000E+00 -0.74505805969E-08  0.93827000000E+00  0.93827000000E+00 0. -1.
     999902    2    1    2    0    0  0.18512795343E-01 -0.42819120322E-02  0.17990434477E-01  0.10177629579E+01  0.10174265203E+01 0.  0.
     999903    2    3    3    0    0 -0.47899304390E-01 -0.36349100655E-01 -0.10826207820E+00  0.12569874013E+00  0.21538226853E-01 0.  0.
         14    1    1    2    0    0 -0.18512795343E-01  0.42819120322E-02 -0.17990434477E-01  0.26167042147E-01  0.00000000000E+00 0. -1.
     999901    1    3    3    0    0  0.66412099733E-01  0.32067188623E-01  0.12625251268E+00  0.89206421772E+00  0.88000000000E+00 0.  1.
        -11    1    4    4    0    0 -0.37164807599E-01 -0.22215309111E-01 -0.91737773714E-01  0.10144369438E+00  0.51100000000E-03 0.  1.
         11    1    4    4    0    0 -0.10734496791E-01 -0.14133791544E-01 -0.16524304485E-01  0.24255045753E-01  0.51100000000E-03 0. -1.
</event>
<event>
 8    1  0.1091347E+005  0.1043930E+01  0.7957747E-01            NaN
         13   -1    0    0    0    0  0.00000000000E+00  0.00000000000E+00  0.74505805969E-08  0.10566000000E+00  0.10566000000E+00 0. -1.
     999900   -1    0    0    0    0 -0.00000000000E+00 -0.00000000000E+00 -0.74505805969E-08  0.93827000000E+00  0.93827000000E+00 0. -1.
     999902    2    1    2    0    0  0.21440578251E-02  0.33798511439E-02 -0.23547179227E-01  0.10200450669E+01  0.10197653890E+01 0.  0.
     999903    2    3    3    0    0 -0.10813855068E+00 -0.52344420450E-02 -0.72479497911E-01  0.13177099235E+00  0.19722354811E-01 0.  0.
         14    1    1    2    0    0 -0.21440578251E-02 -0.33798511439E-02  0.23547179227E-01  0.23884933059E-01  0.00000000000E+00 0. -1.
     999901    1    3    3    0    0  0.11028260851E+00  0.86142931890E-02  0.48932318684E-01  0.88827407460E+00  0.88000000000E+00 0.  1.
        -11    1    4    4    0    0 -0.78520123529E-01  0.31529877489E-02 -0.45323194018E-01  0.90718268104E-01  0.51100000000E-03 0.  1.
         11    1    4    4    0    0 -0.29618427152E-01 -0.83874297940E-02 -0.27156303893E-01  0.41052724241E-01  0.51100000000E-03 0. -1.
</event>
<event>
 8    1  0.1091347E+005  0.1043930E+01  0.7957747E-01            NaN
         13   -1    0    0    0    0  0.00000000000E+00  0.00000000000E+00  0.74505805969E-08  0.10566000000E+00  0.10566000000E+00 0. -1.
     999900   -1    0    0    0    0 -0.00000000000E+00 -0.00000000000E+00 -0.74505805969E-08  0.93827000000E+00  0.93827000000E+00 0.  1.
     999902    2    1    2    0    0 -0.56023224386E-02  0.13754693470E-02 -0.23253220453E-01  0.10199719075E+01  0.10196904932E+01 0.  0.
     999903    2    3    3    0    0 -0.12226290954E+00 -0.31348844589E-01  0.24607572063E-01  0.13038142380E+00  0.21513111432E-01 0.  0.
         14    1    1    2    0    0  0.56023224386E-02 -0.13754693470E-02  0.23253220453E-01  0.23958092455E-01  0.00000000000E+00 0. -1.
     999901    1    3    3    0    0  0.11666058710E+00  0.32724313936E-01 -0.47860792517E-01  0.88959048374E+00  0.88000000000E+00 0.  1.
        -11    1    4    4    0    0 -0.70759934857E-01 -0.29005966824E-01  0.14228014051E-01  0.77788251023E-01  0.51100000000E-03 0. -1.
         11    1    4    4    0    0 -0.51502974683E-01 -0.23428777649E-02  0.10379558012E-01  0.52593172779E-01  0.51100000000E-03 0.  1.
</event>
<event>
 8    1  0.1091347E+005  0.1043930E+01  0.7957747E-01            NaN
         13   -1    0    0    0    0  0.00000000000E+00  0.00000000000E+00  0.74505805969E-08  0.10566000000E+00  0.10566000000E+00 0.  1.
     999900   -1    0    0    0    0 -0.00000000000E+00 -0.00000000000E+00 -0.74505805969E-08  0.93827000000E+00  0.93827000000E+00 0.  1.
     999902    2    1    2    0    0  0.17818353924E-01  0.14935891765E-01 -0.68862165463E-02  0.10196814005E+01  0.10193930370E+01 0.  0.
     999903    2    3    3    0    0 -0.37739470688E-01 -0.11409439171E+00 -0.38986479499E-01  0.12796064106E+00  0.20302271082E-01 0.  0.
         14    1    1    2    0    0 -0.17818353924E-01 -0.14935891765E-01  0.68862165463E-02  0.24248599500E-01  0.00000000000E+00 0.  1.
     999901    1    3    3    0    0  0.55557824612E-01  0.12903028347E+00  0.32100262953E-01  0.89172075944E+00  0.88000000000E+00 0. -1.
        -11    1    4    4    0    0 -0.20582575999E-01 -0.46962725175E-01 -0.25888536328E-01  0.57442296479E-01  0.51100000000E-03 0. -1.
         11    1    4    4    0    0 -0.17156894688E-01 -0.67131666531E-01 -0.13097943172E-01  0.70518344584E-01  0.51100000000E-03 0.  1.
</event>
<event>
 8    1  0.1091347E+005  0.1043930E+01  0.7957747E-01            NaN
         13   -1    0    0    0    0  0.00000000000E+00  0.00000000000E+00  0.74505805969E-08  0.10566000000E+00  0.10566000000E+00 0.  1.
     999900   -1    0    0    0    0 -0.00000000000E+00 -0.00000000000E+00 -0.74505805969E-08  0.93827000000E+00  0.93827000000E+00 0.  1.
     999902    2    1    2    0    0 -0.62724556365E-02  0.26378433341E-01 -0.12418706795E-01  0.10141073622E+01  0.10136687587E+01 0.  0.
     999903    2    3    3    0    0  0.40971234593E-01 -0.10727427080E+00  0.33886371377E-01  0.12156090862E+00  0.21032287048E-01 0.  0.
         14    1    1    2    0    0  0.62724556365E-02 -0.26378433341E-01  0.12418706795E-01  0.29822637772E-01  0.00000000000E+00 0. -1.
     999901    1    3    3    0    0 -0.47243690230E-01  0.13365270414E+00 -0.46305078172E-01  0.89254645361E+00  0.88000000000E+00 0. -1.
        -11    1    4    4    0    0  0.72241439279E-02 -0.38952089215E-01  0.44484924106E-02  0.39868580555E-01  0.51100000000E-03 0.  1.
         11    1    4    4    0    0  0.33747090666E-01 -0.68322181585E-01  0.29437878967E-01  0.81692328061E-01  0.51100000000E-03 0. -1.
</event>
<event>
 8    1  0.1091347E+005  0.1043930E+01  0.7957747E-01            NaN
         13   -1    0    0    0    0  0.00000000000E+00  0.00000000000E+00  0.74505805969E-08  0.10566000000E+00  0.10566000000E+00 0. -1.
     999900   -1    0    0    0    0 -0.00000000000E+00 -0.00000000000E+00 -0.74505805969E-08  0.93827000000E+00  0.93827000000E+00 0. -1.
     999902    2    1    2    0    0 -0.13498168553E-01 -0.13190621326E-01  0.15562492396E-01  0.10194681069E+01  0.10191745860E+01 0.  0.
     999903    2    3    3    0    0  0.12536714669E+00 -0.75632983832E-02  0.18841634304E-01  0.12855509468E+00  0.19931889889E-01 0.  0.
         14    1    1    2    0    0  0.13498168553E-01  0.13190621326E-01 -0.15562492396E-01  0.24461893116E-01  0.00000000000E+00 0.  1.
     999901    1    3    3    0    0 -0.13886531524E+00 -0.56273229430E-02 -0.32791419081E-02  0.89091301220E+00  0.88000000000E+00 0. -1.
        -11    1    4    4    0    0  0.11187774344E+00 -0.11829865048E-01  0.20312437356E-01  0.11432161395E+00  0.51100000000E-03 0.  1.
         11    1    4    4    0    0  0.13489403247E-01  0.42665666649E-02 -0.14708030521E-02  0.14233480729E-01  0.51100000000E-03 0. -1.
</event>
<event>
 8    1  0.1091347E+005  0.1043930E+01  0.7957747E-01            NaN
         13   -1    0    0    0    0  0.00000000000E+00  0.00000000000E+00  0.74505805969E-08  0.10566000000E+00  0.10566000000E+00 0. -1.
     999900   -1    0    0    0    0 -0.00000000000E+00 -0.00000000000E+00 -0.74505805969E-08  0.93827000000E+00  0.93827000000E+00 0.  1.
     999902    2    1    2    0    0  0.70746947980E-02 -0.13337479469E-01  0.18244715159E-01  0.10202485875E+01  0.10199737110E+01 0.  0.
     999903    2    3    3    0    0 -0.35619753832E-01  0.66607928308E-01  0.10545899850E+00  0.13130516111E+00  0.20348513267E-01 0.  0.
         14    1    1    2    0    0 -0.70746947980E-02  0.13337479469E-01 -0.18244715159E-01  0.23681412464E-01  0.00000000000E+00 0.  1.
     999901    1    3    3    0    0  0.42694448630E-01 -0.79945407776E-01 -0.87214283343E-01  0.88894342643E+00  0.88000000000E+00 0.  1.
        -11    1    4    4    0    0 -0.27317427925E-01  0.54212495823E-01  0.68978861004E-01  0.91888959936E-01  0.51100000000E-03 0. -1.
         11    1    4    4    0    0 -0.83023259075E-02  0.12395432485E-01  0.36480137498E-01  0.39416201172E-01  0.51100000000E-03 0.  1.
</event>
<event>
 8    1  0.1091347E+005  0.1043930E+01  0.7957747E-01            NaN
         13   -1    0    0    0    0  0.00000000000E+00  0.00000000000E+00  0.74505805969E-08  0.10566000000E+00  0.10566000000E+00 0.  1.
     999900   -1    0    0    0    0 -0.00000000000E+00 -0.00000000000E+00 -0.74505805969E-08  0.93827000000E+00  0.93827000000E+00 0. -1.
     999902    2    1    2    0    0  0.11683278070E-01  0.24739022434E-01 -0.13092973102E-01  0.10135994187E+01  0.10131455164E+01 0.  0.
     999903    2    3    3    0    0  0.44805760563E-02 -0.11172999922E+00  0.42517692090E-01  0.12131682957E+00  0.20158142468E-01 0.  0.
         14    1    1    2    0    0 -0.11683278070E-01 -0.24739022434E-01  0.13092973102E-01  0.30330581302E-01  0.00000000000E+00 0. -1.
     999901    1    3    3    0    0  0.72027020139E-02  0.13646902165E+00 -0.55610665192E-01  0.89228258913E+00  0.88000000000E+00 0. -1.
        -11    1    4    4    0    0  0.11921848983E-01 -0.58663520764E-01  0.19126327374E-01  0.62845975778E-01  0.51100000000E-03 0.  1.
         11    1    4    4    0    0 -0.74412729264E-02 -0.53066478455E-01  0.23391364716E-01  0.58470853787E-01  0.51100000000E-03 0. -1.
</event>
<event>
 8    1  0.1091347E+005  0.1043930E+01  0.7957747E-01            NaN
         13   -1    0    0    0    0  0.00000000000E+00  0.00000000000E+00  0.74505805969E-08  0.10566000000E+00  0.10566000000E+00 0.  1.
     999900   -1    0    0    0    0 -0.00000000000E+00 -0.00000000000E+00 -0.74505805969E-08  0.93827000000E+00  0.93827000000E+00 0. -1.
     999902    2    1    2    0    0  0.15084780872E-01 -0.14165237508E-01  0.14272767529E-01  0.10187920514E+01  0.10184818739E+01 0.  0.
     999903    2    3    3    0    0 -0.47781051834E-01  0.74647899070E-01  0.91193374113E-01  0.12876021720E+00  0.20189707793E-01 0.  0.
         14    1    1    2    0    0 -0.15084780872E-01  0.14165237508E-01 -0.14272767529E-01  0.25137948615E-01  0.00000000000E+00 0. -1.
     999901    1    3    3    0    0  0.62865832706E-01 -0.88813136577E-01 -0.76920606584E-01  0.89003183419E+00  0.88000000000E+00 0. -1.
        -11    1    4    4    0    0 -0.14324719719E-01  0.14289727456E-01  0.11275660355E-01  0.23168848552E-01  0.51100000000E-03 0. -1.
         11    1    4    4    0    0 -0.33456332116E-01  0.60358171613E-01  0.79917713758E-01  0.10559136865E+00  0.51100000000E-03 0.  1.
</event>
<event>
 8    1  0.1091347E+005  0.1043930E+01  0.7957747E-01            NaN
         13   -1    0    0    0    0  0.00000000000E+00  0.00000000000E+00  0.74505805969E-08  0.10566000000E+00  0.10566000000E+00 0. -1.
     999900   -1    0    0    0    0 -0.00000000000E+00 -0.00000000000E+00 -0.74505805969E-08  0.93827000000E+00  0.93827000000E+00 0. -1.
     999902    2    1    2    0    0  0.16490511668E-01 -0.14676483315E-01  0.96425488962E-02  0.10198402742E+01  0.10195557219E+01 0.  0.
     999903    2    3    3    0    0  0.99972831779E-03 -0.12508642877E+00 -0.35745069087E-01  0.13164527522E+00  0.20128447675E-01 0.  0.
         14    1    1    2    0    0 -0.16490511668E-01  0.14676483315E-01 -0.96425488962E-02  0.24089725752E-01  0.00000000000E+00 0.  1.
     999901    1    3    3    0    0  0.15490783350E-01  0.11040994545E+00  0.45387617984E-01  0.88819499902E+00  0.88000000000E+00 0. -1.
        -11    1    4    4    0    0  0.78786324585E-02 -0.32414664442E-01 -0.48325642340E-02  0.33710504571E-01  0.51100000000E-03 0. -1.
         11    1    4    4    0    0 -0.68789041407E-02 -0.92671764328E-01 -0.30912504853E-01  0.97934770654E-01  0.51100000000E-03 0.  1.
</event>
<event>
 8    1  0.1091347E+005  0.1043930E+01  0.7957747E-01            NaN
         13   -1    0    0    0    0  0.00000000000E+00  0.00000000000E+00  0.74505805969E-08  0.10566000000E+00  0.10566000000E+00 0.  1.
     999900   -1    0    0    0    0 -0.00000000000E+00 -0.00000000000E+00 -0.74505805969E-08  0.93827000000E+00  0.93827000000E+00 0. -1.
     999902    2    1    2    0    0 -0.24766913945E-01  0.65479328129E-02  0.40474918326E-02  0.10179943558E+01  0.10176639184E+01 0.  0.
     999903    2    3    3    0    0 -0.67787581988E-02  0.66760438338E-01 -0.10801524175E+00  0.12866473421E+00  0.19606470582E-01 0.  0.
         14    1    1    2    0    0  0.24766913945E-01 -0.65479328129E-02 -0.40474918326E-02  0.25935644210E-01  0.00000000000E+00 0. -1.
     999901    1    3    3    0    0 -0.17988155746E-01 -0.60212505525E-01  0.11206273358E+00  0.88932962158E+00  0.88000000000E+00 0.  1.
        -11    1    4    4    0    0  0.67144344918E-02  0.26818454764E-01 -0.39518903117E-01  0.48231918592E-01  0.51100000000E-03 0.  1.
         11    1    4    4    0    0 -0.13493192691E-01  0.39941983574E-01 -0.68496338631E-01  0.80432815614E-01  0.51100000000E-03 0. -1.
</event>
<event>
 8    1  0.1091347E+005  0.1043930E+01  0.7957747E-01            NaN
         13   -1    0    0    0    0  0.00000000000E+00  0.00000000000E+00  0.74505805969E-08  0.10566000000E+00  0.10566000000E+00 0. -1.
     999900   -1    0    0    0    0 -0.00000000000E+00 -0.00000000000E+00 -0.74505805969E-08  0.93827000000E+00  0.93827000000E+00 0. -1.
     999902    2    1    2    0    0 -0.24709847486E-01  0.22086322775E-01  0.46321128513E-02  0.10104660091E+01  0.10099117372E+01 0.  0.
     999903    2    3    3    0    0  0.78807238974E-01  0.51190135321E-01 -0.72804034928E-01  0.12054512719E+00  0.19992231485E-01 0.  0.
         14    1    1    2    0    0  0.24709847486E-01 -0.22086322775E-01 -0.46321128513E-02  0.33463990885E-01  0.00000000000E+00 0.  1.
     999901    1    3    3    0    0 -0.10351708646E+00 -0.29103812546E-01  0.77436147779E-01  0.88992088192E+00  0.88000000000E+00 0.  1.
        -11    1    4    4    0    0  0.47023031158E-01  0.19179105545E-01 -0.42196507543E-01  0.66028856712E-01  0.51100000000E-03 0.  1.
         11    1    4    4    0    0  0.31784207817E-01  0.32011029775E-01 -0.30607527384E-01  0.54516270483E-01  0.51100000000E-03 0. -1.
</event>
<event>
 8    1  0.1091347E+005  0.1043930E+01  0.7957747E-01            NaN
         13   -1    0    0    0    0  0.00000000000E+00  0.00000000000E+00  0.74505805969E-08  0.10566000000E+00  0.10566000000E+00 0.  1.
     999900   -1    0    0    0    0 -0.00000000000E+00 -0.00000000000E+00 -0.74505805969E-08  0.93827000000E+00  0.93827000000E+00 0.  1.
     999902    2    1    2    0    0 -0.98606769315E-02  0.83224882537E-03  0.22145464822E-01  0.10196741306E+01  0.10193855921E+01 0.  0.
     999903    2    3    3    0    0 -0.36399824384E-01 -0.12009957709E+00 -0.25551400028E-01  0.12972816383E+00  0.20680106758E-01 0.  0.
         14    1    1    2    0    0  0.98606769315E-02 -0.83224882537E-03 -0.22145464822E-01  0.24255869389E-01  0.00000000000E+00 0. -1.
     999901    1    3    3    0    0  0.26539147452E-01  0.12093182592E+00  0.47696864850E-01  0.88994596678E+00  0.88000000000E+00 0. -1.
        -11    1    4    4    0    0 -0.14018177054E-01 -0.18968391885E-01 -0.39496533731E-02  0.23920076534E-01  0.51100000000E-03 0. -1.
         11    1    4    4    0    0 -0.22381647330E-01 -0.10113118521E+00 -0.21601746655E-01  0.10580808730E+00  0.51100000000E-03 0.  1.
</event>
<event>
 8    1  0.1091347E+005  0.1043930E+01  0.7957747E-01            NaN
         13   -1    0    0    0    0  0.00000000000E+00  0.00000000000E+00  0.74505805969E-08  0.10566000000E+00  0.10566000000E+00 0. -1.
     999900   -1    0    0    0    0 -0.00000000000E+00 -0.00000000000E+00 -0.74505805969E-08  0.93827000000E+00  0.93827000000E+00 0.  1.
     999902    2    1    2    0    0  0.22760428094E-01  0.58689555705E-02 -0.22025314959E-02  0.10203221015E+01  0.10200489488E+01 0.  0.
     999903    2    3    3    0    0  0.10202178860E+00  0.74601228534E-01 -0.37235801801E-01  0.13339830622E+00  0.20852206556E-01 0.  0.
         14    1    1    2    0    0 -0.22760428094E-01 -0.58689555705E-02  0.22025314959E-02  0.23607898499E-01  0.00000000000E+00 0. -1.
     999901    1    3    3    0    0 -0.79261360502E-01 -0.68732272964E-01  0.35033270305E-01  0.88692379529E+00  0.88000000000E+00 0.  1.
        -11    1    4    4    0    0  0.70136279061E-01  0.44914471853E-01 -0.15531090696E-01  0.84722389729E-01  0.51100000000E-03 0.  1.
         11    1    4    4    0    0  0.31885509536E-01  0.29686756682E-01 -0.21704711105E-01  0.48675916486E-01  0.51100000000E-03 0. -1.
</event>
<event>
 8    1  0.1091347E+005  0.1043930E+01  0.7957747E-01            NaN
         13   -1    0    0    0    0  0.00000000000E+00  0.00000000000E+00  0.74505805969E-08  0.10566000000E+00  0.10566000000E+00 0.  1.
     999900   -1    0    0    0    0 -0.00000000000E+00 -0.00000000000E+00 -0.74505805969E-08  0.93827000000E+00  0.93827000000E+00 0. -1.
     999902    2    1    2    0    0 -0.95635942982E-02  0.19872136946E-01  0.59543352110E-02  0.10210866581E+01  0.10208311050E+01 0.  0.
     999903    2    3    3    0    0  0.47505748847E-02  0.13218954850E+00 -0.32191306953E-02  0.13378499074E+00  0.19784242444E-01 0.  0.
         14    1    1    2    0    0  0.95635942982E-02 -0.19872136946E-01 -0.59543352110E-02  0.22843341929E-01  0.00000000000E+00 0. -1.
     999901    1    3    3    0    0 -0.14314169183E-01 -0.11231741156E+00  0.91734659063E-02  0.88730166733E+00  0.88000000000E+00 0.  1.
        -11    1    4    4    0    0  0.67675317667E-02  0.16831559754E-01  0.21991082832E-02  0.18281085531E-01  0.51100000000E-03 0.  1.
         11    1    4    4    0    0 -0.20169568820E-02  0.11535798875E+00 -0.54182389785E-02  0.11550390521E+00  0.51100000000E-03 0. -1.
</event>
<event>
 8    1  0.1091347E+005  0.1043930E+01  0.7957747E-01            NaN
         13   -1    0    0    0    0  0.00000000000E+00  0.00000000000E+00  0.74505805969E-08  0.10566000000E+00  0.10566000000E+00 0.  1.
     999900   -1    0    0    0    0 -0.00000000000E+00 -0.00000000000E+00 -0.74505805969E-08  0.93827000000E+00  0.93827000000E+00 0. -1.
     999902    2    1    2    0    0  0.15138519693E-01 -0.15812545074E-01 -0.75505033119E-02  0.10207735439E+01  0.10205108556E+01 0.  0.
     999903    2    3    3    0    0 -0.91564426575E-02  0.43814393866E-02 -0.12978120415E+00  0.13176376528E+00  0.20383607023E-01 0.  0.
         14    1    1    2    0    0 -0.15138519693E-01  0.15812545074E-01  0.75505033119E-02  0.23156456130E-01  0.00000000000E+00 0.  1.
     999901    1    3    3    0    0  0.24294962351E-01 -0.20193984460E-01  0.12223070084E+00  0.88900977859E+00  0.88000000000E+00 0.  1.
        -11    1    4    4    0    0 -0.15152809074E-01  0.54824717046E-02 -0.10544109486E+00  0.10666653986E+00  0.51100000000E-03 0. -1.
         11    1    4    4    0    0  0.59963664169E-02 -0.11010323180E-02 -0.24340109296E-01  0.25097225423E-01  0.51100000000E-03 0.  1.
</event>
<event>
 8    1  0.1091347E+005  0.1043930E+01  0.7957747E-01            NaN
         13   -1    0    0    0    0  0.00000000000E+00  0.00000000000E+00  0.74505805969E-08  0.10566000000E+00  0.10566000000E+00 0.  1.
     999900   -1    0    0    0    0 -0.00000000000E+00 -0.00000000000E+00 -0.74505805969E-08  0.93827000000E+00  0.93827000000E+00 0. -1.
     999902    2    1    2    0    0 -0.10207947372E-01  0.21631706091E-01 -0.18925391251E-03  0.10200099516E+01  0.10197294409E+01 0.  0.
     999903    2    3    3    0    0  0.14381075882E-01  0.60852015586E-01  0.11385205196E+00  0.13144466296E+00  0.20140172339E-01 0.  0.
         14    1    1    2    0    0  0.10207947372E-01 -0.21631706091E-01  0.18925391251E-03  0.23920048390E-01  0.00000000000E+00 0. -1.
     999901    1    3    3    0    0 -0.24589023254E-01 -0.39220309495E-01 -0.11404130587E+00  0.88856528865E+00  0.88000000000E+00 0. -1.
        -11    1    4    4    0    0  0.15792207675E-01  0.26467399822E-01  0.61497761114E-01  0.68790644855E-01  0.51100000000E-03 0.  1.
         11    1    4    4    0    0 -0.14111317930E-02  0.34384615764E-01  0.52354290846E-01  0.62654018109E-01  0.51100000000E-03 0. -1.
</event>
<event>
 8    1  0.1091347E+005  0.1043930E+01  0.7957747E-01            NaN
         13   -1    0    0    0    0  0.00000000000E+00  0.00000000000E+00  0.74505805969E-08  0.10566000000E+00  0.10566000000E+00 0. -1.
     999900   -1    0    0    0    0 -0.00000000000E+00 -0.00000000000E+00 -0.74505805969E-08  0.93827000000E+00  0.93827000000E+00 0.  1.
     999902    2    1    2    0    0  0.12888303323E-01  0.14367096475E-01 -0.73876969126E-02  0.10232636048E+01  0.10230548886E+01 0.  0.
     999903    2    3    3    0    0 -0.70802814367E-01  0.80114921023E-01  0.76405280244E-01  0.13289949805E+00  0.19826009205E-01 0.  0.
         14    1    1    2    0    0 -0.12888303323E-01 -0.14367096475E-01  0.73876969126E-02  0.20666395171E-01  0.00000000000E+00 0.  1.
     999901    1    3    3    0    0  0.83691117690E-01 -0.65747824549E-01 -0.83792977156E-01  0.89036410678E+00  0.88000000000E+00 0.  1.
        -11    1    4    4    0    0 -0.36792489616E-01  0.40690671287E-01  0.51238138273E-01  0.75066809954E-01  0.51100000000E-03 0.  1.
         11    1    4    4    0    0 -0.34010324751E-01  0.39424249736E-01  0.25167141971E-01  0.57832688100E-01  0.51100000000E-03 0. -1.
</event>
<event>
 8    1  0.1091347E+005  0.1043930E+01  0.7957747E-01            NaN
         13   -1    0    0    0    0  0.00000000000E+00  0.00000000000E+00  0.74505805969E-08  0.10566000000E+00  0.10566000000E+00 0.  1.
     999900   -1    0    0    0    0 -0.00000000000E+00 -0.00000000000E+00 -0.74505805969E-08  0.93827000000E+00  0.93827000000E+00 0.  1.
     999902    2    1    2    0    0  0.12880172444E-01 -0.16495026819E-01 -0.88292686206E-02  0.10212156711E+01  0.10209630288E+01 0.  0.
     999903    2    3    3    0    0  0.49055769862E-01 -0.10995863667E+00  0.52006895964E-01  0.13344027209E+00  0.24580859469E-01 0.  0.
         14    1    1    2    0    0 -0.12880172444E-01  0.16495026819E-01  0.88292686206E-02  0.22714328877E-01  0.00000000000E+00 0. -1.
     999901    1    3    3    0    0 -0.36175597418E-01  0.93463609847E-01 -0.60836164585E-01  0.88777539904E+00  0.88000000000E+00 0.  1.
        -11    1    4    4    0    0  0.26948740990E-01 -0.61128551480E-01  0.15487976736E-01  0.68578954434E-01  0.51100000000E-03 0. -1.
         11    1    4    4    0    0  0.22107028873E-01 -0.48830085186E-01  0.36518919228E-01  0.64861317651E-01  0.51100000000E-03 0.  1.
</event>
<event>
 8    1  0.1091347E+005  0.1043930E+01  0.7957747E-01            NaN
         13   -1    0    0    0    0  0.00000000000E+00  0.00000000000E+00  0.74505805969E-08  0.10566000000E+00  0.10566000000E+00 0. -1.
     999900   -1    0    0    0    0 -0.00000000000E+00 -0.00000000000E+00 -0.74505805969E-08  0.93827000000E+00  0.93827000000E+00 0.  1.
     999902    2    1    2    0    0 -0.20445181667E-01  0.26991525557E-02 -0.12104166852E-01  0.10200176239E+01  0.10197372952E+01 0.  0.
     999903    2    3    3    0    0 -0.25569158087E-01 -0.10989237214E-01  0.12471726160E+00  0.12932478654E+00  0.19898740964E-01 0.  0.
         14    1    1    2    0    0  0.20445181667E-01 -0.26991525557E-02  0.12104166852E-01  0.23912376149E-01  0.00000000000E+00 0. -1.
     999901    1    3    3    0    0  0.51239764199E-02  0.13688389770E-01 -0.13682142846E+00  0.89069283731E+00  0.88000000000E+00 0.  1.
        -11    1    4    4    0    0 -0.16115358104E-01 -0.68757044116E-02  0.10976297001E+00  0.11115372591E+00  0.51100000000E-03 0.  1.
         11    1    4    4    0    0 -0.94537999836E-02 -0.41135328024E-02  0.14954291594E-01  0.18171060627E-01  0.51100000000E-03 0. -1.
</event>
<event>
 8    1  0.1091347E+005  0.1043930E+01  0.7957747E-01            NaN
         13   -1    0    0    0    0  0.00000000000E+00  0.00000000000E+00  0.74505805969E-08  0.10566000000E+00  0.10566000000E+00 0. -1.
     999900   -1    0    0    0    0 -0.00000000000E+00 -0.00000000000E+00 -0.74505805969E-08  0.93827000000E+00  0.93827000000E+00 0.  1.
     999902    2    1    2    0    0 -0.16624029615E-01 -0.17559958762E-02 -0.17289597441E-01  0.10198806328E+01  0.10195970445E+01 0.  0.
     999903    2    3    3    0    0  0.20506485400E-01  0.12644119958E+00 -0.44517513806E-02  0.12972446317E+00  0.20018125766E-01 0.  0.
         14    1    1    2    0    0  0.16624029615E-01  0.17559958762E-02  0.17289597441E-01  0.24049367181E-01  0.00000000000E+00 0. -1.
     999901    1    3    3    0    0 -0.37130515015E-01 -0.12819719546E+00 -0.12837846060E-01  0.89015616965E+00  0.88000000000E+00 0.  1.
        -11    1    4    4    0    0  0.18673529686E-01  0.63503658624E-01  0.33368639892E-02  0.66278285674E-01  0.51100000000E-03 0. -1.
         11    1    4    4    0    0  0.18329557139E-02  0.62937540960E-01 -0.77886153698E-02  0.63446177498E-01  0.51100000000E-03 0.  1.
</event>
<event>
 8    1  0.1091347E+005  0.1043930E+01  0.7957747E-01            NaN
         13   -1    0    0    0    0  0.00000000000E+00  0.00000000000E+00  0.74505805969E-08  0.10566000000E+00  0.10566000000E+00 0. -1.
     999900   -1    0    0    0    0 -0.00000000000E+00 -0.00000000000E+00 -0.74505805969E-08  0.93827000000E+00  0.93827000000E+00 0.  1.
     999902    2    1    2    0    0  0.37939667500E-02 -0.22531901940E-01 -0.59174185952E-02  0.10203271054E+01  0.10200540699E+01 0.  0.
     999903    2    3    3    0    0  0.98816591062E-01 -0.49262596803E-01 -0.70231463086E-01  0.13247569586E+00  0.20635635999E-01 0.  0.
         14    1    1    2    0    0 -0.37939667500E-02  0.22531901940E-01  0.59174185952E-02  0.23602894559E-01  0.00000000000E+00 0. -1.
     999901    1    3    3    0    0 -0.95022624312E-01  0.26730694863E-01  0.64314044491E-01  0.88785140958E+00  0.88000000000E+00 0. -1.
        -11    1    4    4    0    0  0.45596763214E-01 -0.30296138880E-01 -0.43733282642E-01  0.70069836437E-01  0.51100000000E-03 0.  1.
         11    1    4    4    0    0  0.53219827848E-01 -0.18966457923E-01 -0.26498180444E-01  0.62405859422E-01  0.51100000000E-03 0. -1.
</event>
<event>
 8    1  0.1091347E+005  0.1043930E+01  0.7957747E-01            NaN
         13   -1    0    0    0    0  0.00000000000E+00  0.00000000000E+00  0.74505805969E-08  0.10566000000E+00  0.10566000000E+00 0.  1.
     999900   -1    0    0    0    0 -0.00000000000E+00 -0.00000000000E+00 -0.74505805969E-08  0.93827000000E+00  0.93827000000E+00 0.  1.
     999902    2    1    2    0    0 -0.10746500922E-01 -0.16103047623E-01 -0.16346021343E-01  0.10185925211E+01  0.10182773375E+01 0.  0.
     999903    2    3    3    0    0 -0.56090630698E-01 -0.62843683752E-01 -0.10008090542E+00  0.13222222149E+00  0.19262419009E-01 0.  0.
         14    1    1    2    0    0  0.10746500922E-01  0.16103047623E-01  0.16346021343E-01  0.25337478931E-01  0.00000000000E+00 0.  1.
     999901    1    3    3    0    0  0.45344129777E-01  0.46740636129E-01  0.83734884074E-01  0.88637029958E+00  0.88000000000E+00 0. -1.
        -11    1    4    4    0    0 -0.67901831617E-02 -0.17124061840E-01 -0.29149341131E-01  0.34486015871E-01  0.51100000000E-03 0. -1.
         11    1    4    4    0    0 -0.49300447537E-01 -0.45719621912E-01 -0.70931564287E-01  0.97736205616E-01  0.51100000000E-03 0.  1.
</event>
<event>
 8    1  0.1091347E+005  0.1043930E+01  0.7957747E-01            NaN
         13   -1    0    0    0    0  0.00000000000E+00  0.00000000000E+00  0.74505805969E-08  0.10566000000E+00  0.10566000000E+00 0.  1.
     999900   -1    0    0    0    0 -0.00000000000E+00 -0.00000000000E+00 -0.74505805969E-08  0.93827000000E+00  0.93827000000E+00 0.  1.
     999902    2    1    2    0    0  0.16285595579E-01  0.50404868326E-02 -0.16298861391E-01  0.10203444109E+01  0.10200717802E+01 0.  0.
     999903    2    3    3    0    0  0.50437620607E-01 -0.11425582896E+00  0.32059881615E-01  0.13032388315E+00  0.18924335837E-01 0.  0.
         14    1    1    2    0    0 -0.16285595579E-01 -0.50404868326E-02  0.16298861391E-01  0.23585589107E-01  0.00000000000E+00 0. -1.
     999901    1    3    3    0    0 -0.34152025028E-01  0.11929631579E+00 -0.48358743006E-01  0.89002052774E+00  0.88000000000E+00 0. -1.
        -11    1    4    4    0    0  0.27962795857E-01 -0.53921734457E-01  0.66539700257E-02  0.61106528596E-01  0.51100000000E-03 0.  1.
         11    1    4    4    0    0  0.22474824750E-01 -0.60334094503E-01  0.25405911590E-01  0.69217354556E-01  0.51100000000E-03 0. -1.
</event>
<event>
 8    1  0.1091347E+005  0.1043930E+01  0.7957747E-01            NaN
         13   -1    0    0    0    0  0.00000000000E+00  0.00000000000E+00  0.74505805969E-08  0.10566000000E+00  0.10566000000E+00 0.  1.
     999900   -1    0    0    0    0 -0.00000000000E+00 -0.00000000000E+00 -0.74505805969E-08  0.93827000000E+00  0.93827000000E+00 0.  1.
     999902    2    1    2    0    0  0.13342626040E-01 -0.16293269952E-01  0.11048621693E-01  0.10201483189E+01  0.10198710821E+01 0.  0.
     999903    2    3    3    0    0 -0.10540479328E+00  0.55100827991E-01  0.44722001596E-01  0.12867091405E+00  0.20245369927E-01 0.  0.
         14    1    1    2    0    0 -0.13342626040E-01  0.16293269952E-01 -0.11048621693E-01  0.23781681116E-01  0.00000000000E+00 0. -1.
     999901    1    3    3    0    0  0.11874741932E+00 -0.71394097943E-01 -0.33673379903E-01  0.89147740483E+00  0.88000000000E+00 0.  1.
        -11    1    4    4    0    0 -0.77643023536E-01  0.33369072383E-01  0.38494021286E-01  0.92865412783E-01  0.51100000000E-03 0.  1.
         11    1    4    4    0    0 -0.27761769746E-01  0.21731755608E-01  0.62279803093E-02  0.35805501267E-01  0.51100000000E-03 0. -1.
</event>
<event>
 8    1  0.1091347E+005  0.1043930E+01  0.7957747E-01            NaN
         13   -1    0    0    0    0  0.00000000000E+00  0.00000000000E+00  0.74505805969E-08  0.10566000000E+00  0.10566000000E+00 0. -1.
     999900   -1    0    0    0    0 -0.00000000000E+00 -0.00000000000E+00 -0.74505805969E-08  0.93827000000E+00  0.93827000000E+00 0. -1.
     999902    2    1    2    0    0  0.47684809108E-05 -0.23436121446E-01  0.15757002801E-02  0.10204409676E+01  0.10201705905E+01 0.  0.
     999903    2    3    3    0    0 -0.10886428875E+00 -0.65505020249E-01  0.30384357102E-01  0.13226744708E+00  0.20715389377E-01 0.  0.
         14    1    1    2    0    0 -0.47684809109E-05  0.23436121446E-01 -0.15757002801E-02  0.23489032388E-01  0.00000000000E+00 0.  1.
     999901    1    3    3    0    0  0.10886905723E+00  0.42068898803E-01 -0.28808656822E-01  0.88817352053E+00  0.88000000000E+00 0. -1.
        -11    1    4    4    0    0 -0.39108628639E-01 -0.34045391405E-01  0.17091673991E-01  0.54598168017E-01  0.51100000000E-03 0.  1.
         11    1    4    4    0    0 -0.69755660112E-01 -0.31459628844E-01  0.13292683110E-01  0.77669279061E-01  0.51100000000E-03 0. -1.
</event>
<event>
 8    1  0.1091347E+005  0.1043930E+01  0.7957747E-01            NaN
         13   -1    0    0    0    0  0.00000000000E+00  0.00000000000E+00  0.74505805969E-08  0.10566000000E+00  0.10566000000E+00 0. -1.
     999900   -1    0    0    0    0 -0.00000000000E+00 -0.00000000000E+00 -0.74505805969E-08  0.93827000000E+00  0.93827000000E+00 0. -1.
     999902    2    1    2    0    0 -0.11635139907E-01  0.12592296010E-01 -0.75230412749E-02  0.10252073253E+01  0.10250363512E+01 0.  0.
     999903    2    3    3    0    0  0.98573192811E-01 -0.64712503903E-01 -0.59171347444E-01  0.13347336481E+00  0.20236310250E-01 0.  0.
         14    1    1    2    0    0  0.11635139907E-01 -0.12592296010E-01  0.75230412749E-02  0.18722674742E-01  0.00000000000E+00 0. -1.
     999901    1    3    3    0    0 -0.11020833272E+00  0.77304799913E-01  0.51648306169E-01  0.89173396045E+00  0.88000000000E+00 0. -1.
        -11    1    4    4    0    0  0.61426829983E-01 -0.48317394549E-01 -0.31132870657E-01  0.84126944637E-01  0.51100000000E-03 0.  1.
         11    1    4    4    0    0  0.37146362828E-01 -0.16395109354E-01 -0.28038476787E-01  0.49346420171E-01  0.51100000000E-03 0. -1.
</event>
<event>
 8    1  0.1091347E+005  0.1043930E+01  0.7957747E-01            NaN
         13   -1    0    0    0    0  0.00000000000E+00  0.00000000000E+00  0.74505805969E-08  0.10566000000E+00  0.10566000000E+00 0.  1.
     999900   -1    0    0    0    0 -0.00000000000E+00 -0.00000000000E+00 -0.74505805969E-08  0.93827000000E+00  0.93827000000E+00 0. -1.
     999902    2    1    2    0    0  0.18586503948E-01 -0.14418385459E-01  0.43949472901E-02  0.10199996107E+01  0.10197188546E+01 0.  0.
     999903    2    3    3    0    0 -0.82180657011E-01  0.59303476431E-01 -0.74870852104E-01  0.12765886831E+00  0.20508034061E-01 0.  0.
         14    1    1    2    0    0 -0.18586503948E-01  0.14418385459E-01 -0.43949472901E-02  0.23930389256E-01  0.00000000000E+00 0.  1.
     999901    1    3    3    0    0  0.10076716096E+00 -0.73721861889E-01  0.79265799394E-01  0.89234074243E+00  0.88000000000E+00 0.  1.
        -11    1    4    4    0    0 -0.67957911822E-01  0.43266599635E-01 -0.67118610423E-01  0.10485916941E+00  0.51100000000E-03 0.  1.
         11    1    4    4    0    0 -0.14222745189E-01  0.16036876795E-01 -0.77522416810E-02  0.22799698905E-01  0.51100000000E-03 0. -1.
</event>
<event>
 8    1  0.1091347E+005  0.1043930E+01  0.7957747E-01            NaN
         13   -1    0    0    0    0  0.00000000000E+00  0.00000000000E+00  0.74505805969E-08  0.10566000000E+00  0.10566000000E+00 0. -1.
     999900   -1    0    0    0    0 -0.00000000000E+00 -0.00000000000E+00 -0.74505805969E-08  0.93827000000E+00  0.93827000000E+00 0. -1.
     999902    2    1    2    0    0  0.90257223179E-02  0.57683152222E-02  0.21052017762E-01  0.10203095729E+01  0.10200361268E+01 0.  0.
     999903    2    3    3    0    0 -0.12517192616E+00  0.17721877105E-03 -0.23874574923E-01  0.12898546354E+00  0.19980289618E-01 0.  0.
         14    1    1    2    0    0 -0.90257223179E-02 -0.57683152222E-02 -0.21052017762E-01  0.23620427086E-01  0.00000000000E+00 0.  1.
     999901    1    3    3    0    0  0.13419764848E+00  0.55910964511E-02  0.44926592686E-01  0.89132410937E+00  0.88000000000E+00 0.  1.
        -11    1    4    4    0    0 -0.47372858949E-01  0.62827395253E-02 -0.15515412082E-02  0.47815572589E-01  0.51100000000E-03 0.  1.
         11    1    4    4    0    0 -0.77799067208E-01 -0.61055207543E-02 -0.22323033715E-01  0.81169890954E-01  0.51100000000E-03 0. -1.
</event>
<event>
 8    1  0.1091347E+005  0.1043930E+01  0.7957747E-01            NaN
         13   -1    0    0    0    0  0.00000000000E+00  0.00000000000E+00  0.74505805969E-08  0.10566000000E+00  0.10566000000E+00 0.  1.
     999900   -1    0    0    0    0 -0.00000000000E+00 -0.00000000000E+00 -0.74505805969E-08  0.93827000000E+00  0.93827000000E+00 0.  1.
     999902    2    1    2    0    0  0.97841272422E-02  0.10621856603E-01 -0.19874693216E-01  0.10193626148E+01  0.10190665258E+01 0.  0.
     999903    2    3    3    0    0 -0.63988659461E-01 -0.94617199494E-01  0.53019501489E-01  0.12704470814E+00  0.16802599434E-01 0.  0.
         14    1    1    2    0    0 -0.97841272422E-02 -0.10621856603E-01  0.19874693216E-01  0.24567385168E-01  0.00000000000E+00 0.  1.
     999901    1    3    3    0    0  0.73772786703E-01  0.10523905610E+00 -0.72894194705E-01  0.89231790669E+00  0.88000000000E+00 0. -1.
        -11    1    4    4    0    0 -0.21407032531E-01 -0.40431313543E-01  0.13987663277E-01  0.47842115354E-01  0.51100000000E-03 0. -1.
         11    1    4    4    0    0 -0.42581626931E-01 -0.54185885951E-01  0.39031838212E-01  0.79202592783E-01  0.51100000000E-03 0.  1.
</event>
<event>
 8    1  0.1091347E+005  0.1043930E+01  0.7957747E-01            NaN
         13   -1    0    0    0    0  0.00000000000E+00  0.00000000000E+00  0.74505805969E-08  0.10566000000E+00  0.10566000000E+00 0.  1.
     999900   -1    0    0    0    0 -0.00000000000E+00 -0.00000000000E+00 -0.74505805969E-08  0.93827000000E+00  0.93827000000E+00 0. -1.
     999902    2    1    2    0    0  0.13213023140E-01 -0.99983526218E-02  0.16587284407E-01  0.10204845518E+01  0.10202151888E+01 0.  0.
     999903    2    3    3    0    0  0.10182835902E+00  0.10606137578E-01  0.83014987771E-01  0.13330370074E+00  0.19921937221E-01 0.  0.
         14    1    1    2    0    0 -0.13213023140E-01  0.99983526218E-02 -0.16587284407E-01  0.23445448165E-01  0.00000000000E+00 0. -1.
     999901    1    3    3    0    0 -0.88615335879E-01 -0.20604490200E-01 -0.66427703364E-01  0.88718085109E+00  0.88000000000E+00 0. -1.
        -11    1    4    4    0    0  0.32823267513E-01 -0.58509932147E-02  0.25577391219E-01  0.42024577028E-01  0.51100000000E-03 0. -1.
         11    1    4    4    0    0  0.69005091506E-01  0.16457130793E-01  0.57437596552E-01  0.91279123716E-01  0.51100000000E-03 0.  1.
</event>
<event>
 8    1  0.1091347E+005  0.1043930E+01  0.7957747E-01            NaN
         13   -1    0    0    0    0  0.00000000000E+00  0.00000000000E+00  0.74505805969E-08  0.10566000000E+00  0.10566000000E+00 0.  1.
     999900   -1    0    0    0    0 -0.00000000000E+00 -0.00000000000E+00 -0.74505805969E-08  0.93827000000E+00  0.93827000000E+00 0. -1.
     999902    2    1    2    0    0 -0.24359020407E-01  0.13964472908E-02 -0.24614535409E-02  0.10194071394E+01  0.10191121357E+01 0.  0.
     999903    2    3    3    0    0  0.99413166504E-01 -0.71144712760E-01  0.28565523413E-01  0.12724995173E+00  0.20784928637E-01 0.  0.
         14    1    1    2    0    0  0.24359020407E-01 -0.13964472908E-02  0.24614535409E-02  0.24522860636E-01  0.00000000000E+00 0.  1.
     999901    1    3    3    0    0 -0.12377218691E+00  0.72541160051E-01 -0.31026976954E-01  0.89215718764E+00  0.88000000000E+00 0.  1.
        -11    1    4    4    0    0  0.75247971318E-01 -0.46665864305E-01  0.27920908998E-01  0.92842869188E-01  0.51100000000E-03 0. -1.
         11    1    4    4    0    0  0.24165195186E-01 -0.24478848455E-01  0.64461441568E-03  0.34407082539E-01  0.51100000000E-03 0.  1.
</event>
<event>
 8    1  0.1091347E+005  0.1043930E+01  0.7957747E-01            NaN
         13   -1    0    0    0    0  0.00000000000E+00  0.00000000000E+00  0.74505805969E-08  0.10566000000E+00  0.10566000000E+00 0. -1.
     999900   -1    0    0    0    0 -0.00000000000E+00 -0.00000000000E+00 -0.74505805969E-08  0.93827000000E+00  0.93827000000E+00 0. -1.
     999902    2    1    2    0    0 -0.23078534082E-01  0.22575744369E-01 -0.71271256616E-02  0.10108682564E+01  0.10103274484E+01 0.  0.
     999903    2    3    3    0    0  0.98542420607E-01 -0.14652282544E-01 -0.63617254210E-01  0.11993126805E+00  0.20274515510E-01 0.  0.
         14    1    1    2    0    0  0.23078534082E-01 -0.22575744369E-01  0.71271256616E-02  0.33061743592E-01  0.00000000000E+00 0.  1.
     999901    1    3    3    0    0 -0.12162095469E+00  0.37228026913E-01  0.56490128549E-01  0.89093698836E+00  0.88000000000E+00 0.  1.
        -11    1    4    4    0    0  0.56691481398E-01 -0.13756467837E-01 -0.46899150311E-01  0.74852895009E-01  0.51100000000E-03 0.  1.
         11    1    4    4    0    0  0.41850939209E-01 -0.89581470674E-03 -0.16718103900E-01  0.45078373037E-01  0.51100000000E-03 0. -1.
</event>
<event>
 8    1  0.1111425E+005  0.1043930E+01  0.7957747E-01            NaN
         13   -1    0    0    0    0  0.00000000000E+00  0.00000000000E+00  0.74505805969E-08  0.10566000000E+00  0.10566000000E+00 0. -1.
     999900   -1    0    0    0    0 -0.00000000000E+00 -0.00000000000E+00 -0.74505805969E-08  0.93827000000E+00  0.93827000000E+00 0.  1.
     999902    2    1    2    0    0 -0.22610721808E-01  0.44841567681E-02 -0.58127395906E-02  0.10201573194E+01  0.10198802949E+01 0.  0.
     999903    2    3    3    0    0 -0.94336095034E-01 -0.88749588018E-01  0.16924925607E-01  0.13203904924E+00  0.19289095806E-01 0.  0.
         14    1    1    2    0    0  0.22610721808E-01 -0.44841567681E-02  0.58127395906E-02  0.23772680627E-01  0.00000000000E+00 0.  1.
     999901    1    3    3    0    0  0.71725373226E-01  0.93233744786E-01 -0.22737665197E-01  0.88811827014E+00  0.88000000000E+00 0. -1.
        -11    1    4    4    0    0 -0.48592173029E-01 -0.46284684728E-01  0.18458183030E-01  0.69601989640E-01  0.51100000000E-03 0.  1.
         11    1    4    4    0    0 -0.45743922005E-01 -0.42464903290E-01 -0.15332574232E-02  0.62437059598E-01  0.51100000000E-03 0. -1.
</event>
<event>
 8    1  0.1091347E+005  0.1043930E+01  0.7957747E-01            NaN
         13   -1    0    0    0    0  0.00000000000E+00  0.00000000000E+00  0.74505805969E-08  0.10566000000E+00  0.10566000000E+00 0. -1.
     999900   -1    0    0    0    0 -0.00000000000E+00 -0.00000000000E+00 -0.74505805969E-08  0.93827000000E+00  0.93827000000E+00 0.  1.
     999902    2    1    2    0    0  0.79663849856E-02  0.24297894437E-01  0.62362762457E-03  0.10183518868E+01  0.10180306113E+01 0.  0.
     999903    2    3    3    0    0 -0.53006433053E-01  0.10598295372E+00 -0.51952004749E-01  0.13090930805E+00  0.19903962244E-01 0.  0.
         14    1    1    2    0    0 -0.79663849856E-02 -0.24297894437E-01 -0.62362762457E-03  0.25578113207E-01  0.00000000000E+00 0.  1.
     999901    1    3    3    0    0  0.60972818038E-01 -0.81685059280E-01  0.52575632373E-01  0.88744257874E+00  0.88000000000E+00 0. -1.
        -11    1    4    4    0    0 -0.14830524024E-01  0.41856145142E-01 -0.28127161169E-01  0.52566906371E-01  0.51100000000E-03 0.  1.
         11    1    4    4    0    0 -0.38175909028E-01  0.64126808575E-01 -0.23824843580E-01  0.78342401678E-01  0.51100000000E-03 0. -1.
</event>
<event>
 8    1  0.1091347E+005  0.1043930E+01  0.7957747E-01            NaN
         13   -1    0    0    0    0  0.00000000000E+00  0.00000000000E+00  0.74505805969E-08  0.10566000000E+00  0.10566000000E+00 0.  1.
     999900   -1    0    0    0    0 -0.00000000000E+00 -0.00000000000E+00 -0.74505805969E-08  0.93827000000E+00  0.93827000000E+00 0.  1.
     999902    2    1    2    0    0 -0.15789996866E-01 -0.10639829432E-01 -0.16233634119E-01  0.10189087920E+01  0.10186015245E+01 0.  0.
     999903    2    3    3    0    0 -0.11221417755E+00  0.26165540034E-01  0.56153686434E-01  0.12992500027E+00  0.21227625090E-01 0.  0.
         14    1    1    2    0    0  0.15789996866E-01  0.10639829432E-01  0.16233634119E-01  0.25021207966E-01  0.00000000000E+00 0.  1.
     999901    1    3    3    0    0  0.96424180682E-01 -0.36805369466E-01 -0.72387320553E-01  0.88898379176E+00  0.88000000000E+00 0.  1.
        -11    1    4    4    0    0 -0.28525087920E-01  0.33252934714E-02  0.48227670915E-02  0.29124876325E-01  0.51100000000E-03 0.  1.
         11    1    4    4    0    0 -0.83689089628E-01  0.22840246563E-01  0.51330919343E-01  0.10080012395E+00  0.51100000000E-03 0. -1.
</event>
<event>
 8    1  0.1091347E+005  0.1043930E+01  0.7957747E-01            NaN
         13   -1    0    0    0    0  0.00000000000E+00  0.00000000000E+00  0.74505805969E-08  0.10566000000E+00  0.10566000000E+00 0.  1.
     999900   -1    0    0    0    0 -0.00000000000E+00 -0.00000000000E+00 -0.74505805969E-08  0.93827000000E+00  0.93827000000E+00 0.  1.
     999902    2    1    2    0    0  0.12677996717E-01 -0.22097100433E-01  0.58982919544E-02  0.10177803672E+01  0.10174443830E+01 0.  0.
     999903    2    3    3    0    0  0.96593750452E-01 -0.82836883168E-01  0.25475687981E-01  0.13148783683E+00  0.21159837349E-01 0.  0.
         14    1    1    2    0    0 -0.12677996717E-01  0.22097100433E-01 -0.58982919544E-02  0.26149632813E-01  0.00000000000E+00 0.  1.
     999901    1    3    3    0    0 -0.83915753736E-01  0.60739782735E-01 -0.19577396026E-01  0.88629253036E+00  0.88000000000E+00 0.  1.
        -11    1    4    4    0    0  0.34798892528E-01 -0.18630509823E-01  0.12665970148E-01  0.41457770541E-01  0.51100000000E-03 0.  1.
         11    1    4    4    0    0  0.61794857924E-01 -0.64206373345E-01  0.12809717833E-01  0.90030066289E-01  0.51100000000E-03 0. -1.
</event>
<event>
 8    1  0.1091347E+005  0.1043930E+01  0.7957747E-01            NaN
         13   -1    0    0    0    0  0.00000000000E+00  0.00000000000E+00  0.74505805969E-08  0.10566000000E+00  0.10566000000E+00 0. -1.
     999900   -1    0    0    0    0 -0.00000000000E+00 -0.00000000000E+00 -0.74505805969E-08  0.93827000000E+00  0.93827000000E+00 0. -1.
     999902    2    1    2    0    0  0.22064613060E-01 -0.64926249292E-02  0.46522377237E-02  0.10204641814E+01  0.10201943446E+01 0.  0.
     999903    2    3    3    0    0  0.12970085831E+00 -0.83048128049E-02  0.23243521173E-01  0.13370915255E+00  0.21132762195E-01 0.  0.
         14    1    1    2    0    0 -0.22064613060E-01  0.64926249292E-02 -0.46522377237E-02  0.23465818626E-01  0.00000000000E+00 0.  1.
     999901    1    3    3    0    0 -0.10763624525E+00  0.18121878757E-02 -0.18591283449E-01  0.88675502882E+00  0.88000000000E+00 0. -1.
        -11    1    4    4    0    0  0.29236957707E-01 -0.89369689573E-02 -0.51381199499E-04  0.30576672009E-01  0.51100000000E-03 0.  1.
         11    1    4    4    0    0  0.10046390060E+00  0.63215615241E-03  0.23294902372E-01  0.10313248055E+00  0.51100000000E-03 0. -1.
</event>
<event>
 8    1  0.1091347E+005  0.1043930E+01  0.7957747E-01            NaN
         13   -1    0    0    0    0  0.00000000000E+00  0.00000000000E+00  0.74505805969E-08  0.10566000000E+00  0.10566000000E+00 0. -1.
     999900   -1    0    0    0    0 -0.00000000000E+00 -0.00000000000E+00 -0.74505805969E-08  0.93827000000E+00  0.93827000000E+00 0. -1.
     999902    2    1    2    0    0 -0.52315425525E-02  0.22421002638E-01 -0.17913366213E-03  0.10209060454E+01  0.10206463888E+01 0.  0.
     999903    2    3    3    0    0 -0.53604107861E-01  0.35343767159E-01  0.11372274818E+00  0.13215380680E+00  0.20228270888E-01 0.  0.
         14    1    1    2    0    0  0.52315425525E-02 -0.22421002638E-01  0.17913366213E-03  0.23023954605E-01  0.00000000000E+00 0.  1.
     999901    1    3    3    0    0  0.48372565309E-01 -0.12922764521E-01 -0.11390188184E+00  0.88875223859E+00  0.88000000000E+00 0. -1.
        -11    1    4    4    0    0 -0.11022042679E-01 -0.39911818557E-03  0.26629730466E-01  0.28827909842E-01  0.51100000000E-03 0.  1.
         11    1    4    4    0    0 -0.42582065182E-01  0.35742885345E-01  0.87093017710E-01  0.10332589696E+00  0.51100000000E-03 0. -1.
</event>
<event>
 8    1  0.1091347E+005  0.1043930E+01  0.7957747E-01            NaN
         13   -1    0    0    0    0  0.00000000000E+00  0.00000000000E+00  0.74505805969E-08  0.10566000000E+00  0.10566000000E+00 0. -1.
     999900   -1    0    0    0    0 -0.00000000000E+00 -0.00000000000E+00 -0.74505805969E-08  0.93827000000E+00  0.93827000000E+00 0. -1.
     999902    2    1    2    0    0  0.21038708831E-01 -0.62117075713E-02  0.15950891113E-01  0.10168072511E+01  0.10164454449E+01 0.  0.
     999903    2    3    3    0    0  0.85150472238E-01  0.51967311535E-01 -0.77051191529E-01  0.12768155479E+00  0.20359001139E-01 0.  0.
         14    1    1    2    0    0 -0.21038708831E-01  0.62117075713E-02 -0.15950891113E-01  0.27122748894E-01  0.00000000000E+00 0.  1.
     999901    1    3    3    0    0 -0.64111763407E-01 -0.58179019106E-01  0.93002082643E-01  0.88912569631E+00  0.88000000000E+00 0.  1.
        -11    1    4    4    0    0  0.37086860303E-01  0.11122912516E-01 -0.30314083814E-01  0.49176815558E-01  0.51100000000E-03 0.  1.
         11    1    4    4    0    0  0.48063611935E-01  0.40844399019E-01 -0.46737107716E-01  0.78504739233E-01  0.51100000000E-03 0. -1.
</event>
<event>
 8    1  0.1096072E+005  0.1043930E+01  0.7957747E-01            NaN
         13   -1    0    0    0    0  0.00000000000E+00  0.00000000000E+00  0.74505805969E-08  0.10566000000E+00  0.10566000000E+00 0. -1.
     999900   -1    0    0    0    0 -0.00000000000E+00 -0.00000000000E+00 -0.74505805969E-08  0.93827000000E+00  0.93827000000E+00 0. -1.
     999902    2    1    2    0    0  0.79268349498E-02 -0.47548515610E-02 -0.20868353658E-01  0.10211060759E+01  0.10208509621E+01 0.  0.
     999903    2    3    3    0    0  0.75007711720E-01  0.10552976127E+00  0.77761150604E-02  0.13122796886E+00  0.19940524417E-01 0.  0.
         14    1    1    2    0    0 -0.79268349498E-02  0.47548515610E-02  0.20868353658E-01  0.22823924072E-01  0.00000000000E+00 0. -1.
     999901    1    3    3    0    0 -0.67080876770E-01 -0.11028461283E+00 -0.28644468718E-01  0.88987810707E+00  0.88000000000E+00 0. -1.
        -11    1    4    4    0    0  0.23736148434E-01  0.49159127288E-01  0.68560324778E-02  0.55020821882E-01  0.51100000000E-03 0. -1.
         11    1    4    4    0    0  0.51271563286E-01  0.56370633981E-01  0.92008258260E-03  0.76207146975E-01  0.51100000000E-03 0.  1.
</event>
<event>
 8    1  0.1091347E+005  0.1043930E+01  0.7957747E-01            NaN
         13   -1    0    0    0    0  0.00000000000E+00  0.00000000000E+00  0.74505805969E-08  0.10566000000E+00  0.10566000000E+00 0. -1.
     999900   -1    0    0    0    0 -0.00000000000E+00 -0.00000000000E+00 -0.74505805969E-08  0.93827000000E+00  0.93827000000E+00 0.  1.
     999902    2    1    2    0    0  0.16373479771E-01 -0.12896189289E-01  0.95836998931E-02  0.10209898640E+01  0.10207321159E+01 0.  0.
     999903    2    3    3    0    0  0.59627000961E-01 -0.71171267092E-01 -0.92299215907E-01  0.13214399412E+00  0.17948855759E-01 0.  0.
         14    1    1    2    0    0 -0.16373479771E-01  0.12896189289E-01 -0.95836998931E-02  0.22940136042E-01  0.00000000000E+00 0.  1.
     999901    1    3    3    0    0 -0.43253521190E-01  0.58275077803E-01  0.10188291580E+00  0.88884586983E+00  0.88000000000E+00 0. -1.
        -11    1    4    4    0    0  0.48669646297E-01 -0.57967648787E-01 -0.64371523259E-01  0.99362653469E-01  0.51100000000E-03 0.  1.
         11    1    4    4    0    0  0.10957354664E-01 -0.13203618305E-01 -0.27927692648E-01  0.32781340656E-01  0.51100000000E-03 0. -1.
</event>
<event>
 8    1  0.1091347E+005  0.1043930E+01  0.7957747E-01            NaN
         13   -1    0    0    0    0  0.00000000000E+00  0.00000000000E+00  0.74505805969E-08  0.10566000000E+00  0.10566000000E+00 0. -1.
     999900   -1    0    0    0    0 -0.00000000000E+00 -0.00000000000E+00 -0.74505805969E-08  0.93827000000E+00  0.93827000000E+00 0.  1.
     999902    2    1    2    0    0  0.99050249142E-02  0.18503538724E-01  0.10784232325E-01  0.10203335992E+01  0.10200607156E+01 0.  0.
     999903    2    3    3    0    0  0.12189048072E+00  0.31098735233E-01  0.37509048192E-01  0.13274495739E+00  0.19745237237E-01 0.  0.
         14    1    1    2    0    0 -0.99050249142E-02 -0.18503538724E-01 -0.10784232325E-01  0.23596400800E-01  0.00000000000E+00 0.  1.
     999901    1    3    3    0    0 -0.11198545580E+00 -0.12595196509E-01 -0.26724815867E-01  0.88758864181E+00  0.88000000000E+00 0.  1.
        -11    1    4    4    0    0  0.89053268979E-02  0.73884723511E-02  0.61517031707E-02  0.13114836779E-01  0.51100000000E-03 0.  1.
         11    1    4    4    0    0  0.11298515382E+00  0.23710262882E-01  0.31357345022E-01  0.11963012061E+00  0.51100000000E-03 0. -1.
</event>
<event>
 8    1  0.1091347E+005  0.1043930E+01  0.7957747E-01            NaN
         13   -1    0    0    0    0  0.00000000000E+00  0.00000000000E+00  0.74505805969E-08  0.10566000000E+00  0.10566000000E+00 0.  1.
     999900   -1    0    0    0    0 -0.00000000000E+00 -0.00000000000E+00 -0.74505805969E-08  0.93827000000E+00  0.93827000000E+00 0. -1.
     999902    2    1    2    0    0  0.55080174840E-02  0.21564955051E-01 -0.10292832705E-01  0.10194080109E+01  0.10191130285E+01 0.  0.
     999903    2    3    3    0    0 -0.11909797384E+00  0.42524251772E-01 -0.23777058813E-01  0.13028047815E+00  0.20371919367E-01 0.  0.
         14    1    1    2    0    0 -0.55080174840E-02 -0.21564955051E-01  0.10292832705E-01  0.24521989073E-01  0.00000000000E+00 0.  1.
     999901    1    3    3    0    0  0.12460599133E+00 -0.20959296720E-01  0.13484226107E-01  0.88912753278E+00  0.88000000000E+00 0. -1.
        -11    1    4    4    0    0 -0.83748498085E-01  0.23186689574E-01 -0.90210975382E-02  0.87367470072E-01  0.51100000000E-03 0.  1.
         11    1    4    4    0    0 -0.35349475756E-01  0.19337562198E-01 -0.14755961274E-01  0.42913008076E-01  0.51100000000E-03 0. -1.
</event>
<event>
 8    1  0.1091347E+005  0.1043930E+01  0.7957747E-01            NaN
         13   -1    0    0    0    0  0.00000000000E+00  0.00000000000E+00  0.74505805969E-08  0.10566000000E+00  0.10566000000E+00 0.  1.
     999900   -1    0    0    0    0 -0.00000000000E+00 -0.00000000000E+00 -0.74505805969E-08  0.93827000000E+00  0.93827000000E+00 0. -1.
     999902    2    1    2    0    0 -0.74201003452E-02 -0.15350619238E-01  0.16087817020E-01  0.10204882156E+01  0.10202189377E+01 0.  0.
     999903    2    3    3    0    0  0.68354965380E-01 -0.69328095935E-01 -0.83578547745E-01  0.12998902252E+00  0.20808319383E-01 0.  0.
         14    1    1    2    0    0  0.74201003452E-02  0.15350619238E-01 -0.16087817020E-01  0.23441784416E-01  0.00000000000E+00 0. -1.
     999901    1    3    3    0    0 -0.75775065725E-01  0.53977476696E-01  0.99666364765E-01  0.89049919306E+00  0.88000000000E+00 0.  1.
        -11    1    4    4    0    0  0.11569043182E-01 -0.21622159365E-01 -0.28535139756E-01  0.37628125885E-01  0.51100000000E-03 0. -1.
         11    1    4    4    0    0  0.56785922197E-01 -0.47705936570E-01 -0.55043407988E-01  0.92360896638E-01  0.51100000000E-03 0.  1.
</event>
<event>
 8    1  0.1091347E+005  0.1043930E+01  0.7957747E-01            NaN
         13   -1    0    0    0    0  0.00000000000E+00  0.00000000000E+00  0.74505805969E-08  0.10566000000E+00  0.10566000000E+00 0. -1.
     999900   -1    0    0    0    0 -0.00000000000E+00 -0.00000000000E+00 -0.74505805969E-08  0.93827000000E+00  0.93827000000E+00 0.  1.
     999902    2    1    2    0    0 -0.11078188812E-02 -0.17095649591E-01 -0.16828451783E-01  0.10199157274E+01  0.10196329760E+01 0.  0.
     999903    2    3    3    0    0  0.61181970580E-01  0.43035584727E-01  0.10162744326E+00  0.12776799175E+00  0.20030661864E-01 0.  0.
         14    1    1    2    0    0  0.11078188812E-02  0.17095649591E-01  0.16828451783E-01  0.24014272570E-01  0.00000000000E+00 0. -1.
     999901    1    3    3    0    0 -0.62289789461E-01 -0.60131234318E-01 -0.11845589504E+00  0.89214773568E+00  0.88000000000E+00 0.  1.
        -11    1    4    4    0    0  0.56620411246E-01  0.32425236266E-01  0.91604657342E-01  0.11246751213E+00  0.51100000000E-03 0. -1.
         11    1    4    4    0    0  0.45615593335E-02  0.10610348460E-01  0.10022785919E-01  0.15300479619E-01  0.51100000000E-03 0.  1.
</event>
<event>
 8    1  0.1097183E+005  0.1043930E+01  0.7957747E-01            NaN
         13   -1    0    0    0    0  0.00000000000E+00  0.00000000000E+00  0.74505805969E-08  0.10566000000E+00  0.10566000000E+00 0. -1.
     999900   -1    0    0    0    0 -0.00000000000E+00 -0.00000000000E+00 -0.74505805969E-08  0.93827000000E+00  0.93827000000E+00 0.  1.
     999902    2    1    2    0    0  0.10571527920E-01  0.20717566286E-02 -0.20113183586E-01  0.10211135688E+01  0.10208586243E+01 0.  0.
     999903    2    3    3    0    0 -0.12258647979E+00  0.11457472364E-01 -0.39844832083E-01  0.13082794912E+00  0.19225580004E-01 0.  0.
         14    1    1    2    0    0 -0.10571527920E-01 -0.20717566286E-02  0.20113183586E-01  0.22816431186E-01  0.00000000000E+00 0. -1.
     999901    1    3    3    0    0  0.13315800771E+00 -0.93857157359E-02  0.19731648497E-01  0.89028561969E+00  0.88000000000E+00 0. -1.
        -11    1    4    4    0    0 -0.70534519288E-01  0.14368004722E-01 -0.17349498047E-01  0.74046094929E-01  0.51100000000E-03 0.  1.
         11    1    4    4    0    0 -0.52051960506E-01 -0.29105323573E-02 -0.22495334036E-01  0.56781854193E-01  0.51100000000E-03 0. -1.
</event>
<event>
 8    1  0.1091347E+005  0.1043930E+01  0.7957747E-01            NaN
         13   -1    0    0    0    0  0.00000000000E+00  0.00000000000E+00  0.74505805969E-08  0.10566000000E+00  0.10566000000E+00 0. -1.
     999900   -1    0    0    0    0 -0.00000000000E+00 -0.00000000000E+00 -0.74505805969E-08  0.93827000000E+00  0.93827000000E+00 0. -1.
     999902    2    1    2    0    0  0.14126524905E-01  0.85947984807E-02  0.19345915747E-01  0.10184801724E+01  0.10181621521E+01 0.  0.
     999903    2    3    3    0    0 -0.39474349600E-01  0.11866288095E+00 -0.25775582284E-01  0.12886003659E+00  0.17361589653E-01 0.  0.
         14    1    1    2    0    0 -0.14126524905E-01 -0.85947984807E-02 -0.19345915747E-01  0.25449827561E-01  0.00000000000E+00 0.  1.
     999901    1    3    3    0    0  0.53600874505E-01 -0.11006808247E+00  0.45121498031E-01  0.88962013585E+00  0.88000000000E+00 0.  1.
        -11    1    4    4    0    0 -0.19525601408E-01  0.52245965527E-01 -0.29707718508E-02  0.55856750985E-01  0.51100000000E-03 0.  1.
         11    1    4    4    0    0 -0.19948748192E-01  0.66416915425E-01 -0.22804810433E-01  0.73003285603E-01  0.51100000000E-03 0. -1.
</event>
<event>
 8    1  0.1091347E+005  0.1043930E+01  0.7957747E-01            NaN
         13   -1    0    0    0    0  0.00000000000E+00  0.00000000000E+00  0.74505805969E-08  0.10566000000E+00  0.10566000000E+00 0. -1.
     999900   -1    0    0    0    0 -0.00000000000E+00 -0.00000000000E+00 -0.74505805969E-08  0.93827000000E+00  0.93827000000E+00 0. -1.
     999902    2    1    2    0    0  0.70958783627E-02  0.67253255847E-02 -0.22284435466E-01  0.10195953014E+01  0.10193048617E+01 0.  0.
     999903    2    3    3    0    0 -0.12684964975E+00 -0.33908290407E-02  0.10021958161E-01  0.12881617938E+00  0.19769599425E-01 0.  0.
         14    1    1    2    0    0 -0.70958783627E-02 -0.67253255847E-02  0.22284435466E-01  0.24334698642E-01  0.00000000000E+00 0. -1.
     999901    1    3    3    0    0  0.13394552811E+00  0.10116154625E-01 -0.32306393626E-01  0.89077912198E+00  0.88000000000E+00 0. -1.
        -11    1    4    4    0    0 -0.10425977881E+00 -0.90337987690E-02  0.12497969031E-01  0.10539530990E+00  0.51100000000E-03 0.  1.
         11    1    4    4    0    0 -0.22589870939E-01  0.56429697284E-02 -0.24760108705E-02  0.23420869481E-01  0.51100000000E-03 0. -1.
</event>
<event>
 8    1  0.1091347E+005  0.1043930E+01  0.7957747E-01            NaN
         13   -1    0    0    0    0  0.00000000000E+00  0.00000000000E+00  0.74505805969E-08  0.10566000000E+00  0.10566000000E+00 0. -1.
     999900   -1    0    0    0    0 -0.00000000000E+00 -0.00000000000E+00 -0.74505805969E-08  0.93827000000E+00  0.93827000000E+00 0. -1.
     999902    2    1    2    0    0  0.13412426883E-01 -0.73106290045E-02 -0.18323980295E-01  0.10200740417E+01  0.10197950499E+01 0.  0.
     999903    2    3    3    0    0  0.79940366775E-01 -0.58360708811E-01  0.82093315444E-01  0.13040235469E+00  0.21657033372E-01 0.  0.
         14    1    1    2    0    0 -0.13412426883E-01  0.73106290045E-02  0.18323980295E-01  0.23855958274E-01  0.00000000000E+00 0. -1.
     999901    1    3    3    0    0 -0.66527939892E-01  0.51050079807E-01 -0.10041729574E+00  0.88967168704E+00  0.88000000000E+00 0. -1.
        -11    1    4    4    0    0  0.30899011443E-01 -0.10686169657E-01  0.30659873574E-01  0.44824458710E-01  0.51100000000E-03 0.  1.
         11    1    4    4    0    0  0.49041355332E-01 -0.47674539154E-01  0.51433441870E-01  0.85577895977E-01  0.51100000000E-03 0. -1.
</event>
<event>
 8    1  0.1091347E+005  0.1043930E+01  0.7957747E-01            NaN
         13   -1    0    0    0    0  0.00000000000E+00  0.00000000000E+00  0.74505805969E-08  0.10566000000E+00  0.10566000000E+00 0. -1.
     999900   -1    0    0    0    0 -0.00000000000E+00 -0.00000000000E+00 -0.74505805969E-08  0.93827000000E+00  0.93827000000E+00 0. -1.
     999902    2    1    2    0    0 -0.21189302588E-01 -0.32678219020E-02  0.94380767931E-02  0.10205047466E+01  0.10202358528E+01 0.  0.
     999903    2    3    3    0    0  0.90489423428E-01  0.83408391002E-01  0.33099414853E-01  0.12890799768E+00  0.19401163912E-01 0.  0.
         14    1    1    2    0    0  0.21189302588E-01  0.32678219020E-02 -0.94380767931E-02  0.23425253418E-01  0.00000000000E+00 0.  1.
     999901    1    3    3    0    0 -0.11167872602E+00 -0.86676212904E-01 -0.23661338060E-01  0.89159674890E+00  0.88000000000E+00 0. -1.
        -11    1    4    4    0    0  0.26958019994E-01  0.29264076443E-01  0.19569199965E-01  0.44343384178E-01  0.51100000000E-03 0. -1.
         11    1    4    4    0    0  0.63531403434E-01  0.54144314559E-01  0.13530214888E-01  0.84564613505E-01  0.51100000000E-03 0.  1.
</event>
<event>
 8    1  0.1091347E+005  0.1043930E+01  0.7957747E-01            NaN
         13   -1    0    0    0    0  0.00000000000E+00  0.00000000000E+00  0.74505805969E-08  0.10566000000E+00  0.10566000000E+00 0. -1.
     999900   -1    0    0    0    0 -0.00000000000E+00 -0.00000000000E+00 -0.74505805969E-08  0.93827000000E+00  0.93827000000E+00 0. -1.
     999902    2    1    2    0    0  0.42522077746E-02 -0.18982102260E-01 -0.12360889123E-01  0.10208823742E+01  0.10206221773E+01 0.  0.
     999903    2    3    3    0    0 -0.44045620581E-01  0.67425843408E-03  0.12010554215E+00  0.12944173779E+00  0.19731976865E-01 0.  0.
         14    1    1    2    0    0 -0.42522077746E-02  0.18982102260E-01  0.12360889123E-01  0.23047625845E-01  0.00000000000E+00 0. -1.
     999901    1    3    3    0    0  0.48297828355E-01 -0.19656360694E-01 -0.13246643128E+00  0.89144063636E+00  0.88000000000E+00 0. -1.
        -11    1    4    4    0    0 -0.26928219987E-01 -0.92476327641E-02  0.70983700928E-01  0.76482642879E-01  0.51100000000E-03 0. -1.
         11    1    4    4    0    0 -0.17117400593E-01  0.99218911981E-02  0.49121841224E-01  0.52959094915E-01  0.51100000000E-03 0.  1.
</event>
<event>
 8    1  0.1091347E+005  0.1043930E+01  0.7957747E-01            NaN
         13   -1    0    0    0    0  0.00000000000E+00  0.00000000000E+00  0.74505805969E-08  0.10566000000E+00  0.10566000000E+00 0. -1.
     999900   -1    0    0    0    0 -0.00000000000E+00 -0.00000000000E+00 -0.74505805969E-08  0.93827000000E+00  0.93827000000E+00 0. -1.
     999902    2    1    2    0    0 -0.10220282147E-01 -0.20078444131E-01 -0.59441584985E-02  0.10206291179E+01  0.10203631046E+01 0.  0.
     999903    2    3    3    0    0 -0.87363637008E-01  0.60181173391E-01 -0.74102140104E-01  0.13100098557E+00  0.20394909881E-01 0.  0.
         14    1    1    2    0    0  0.10220282147E-01  0.20078444131E-01  0.59441584985E-02  0.23300882089E-01  0.00000000000E+00 0. -1.
     999901    1    3    3    0    0  0.77143354861E-01 -0.80259617521E-01  0.68157981606E-01  0.88962813235E+00  0.88000000000E+00 0.  1.
        -11    1    4    4    0    0 -0.71663013653E-02 -0.62566630540E-03 -0.69117221344E-02  0.99890118353E-02  0.51100000000E-03 0.  1.
         11    1    4    4    0    0 -0.80197335643E-01  0.60806839696E-01 -0.67190417970E-01  0.12101197373E+00  0.51100000000E-03 0. -1.
</event>
<event>
 8    1  0.1091347E+005  0.1043930E+01  0.7957747E-01            NaN
         13   -1    0    0    0    0  0.00000000000E+00  0.00000000000E+00  0.74505805969E-08  0.10566000000E+00  0.10566000000E+00 0. -1.
     999900   -1    0    0    0    0 -0.00000000000E+00 -0.00000000000E+00 -0.74505805969E-08  0.93827000000E+00  0.93827000000E+00 0. -1.
     999902    2    1    2    0    0  0.15119058687E-01  0.64005242041E-02 -0.20898501654E-01  0.10173536944E+01  0.10170065091E+01 0.  0.
     999903    2    3    3    0    0 -0.65923591976E-01  0.32664380551E-01 -0.10416060077E+00  0.12932763710E+00  0.21524990807E-01 0.  0.
         14    1    1    2    0    0 -0.15119058687E-01 -0.64005242041E-02  0.20898501654E-01  0.26576305557E-01  0.00000000000E+00 0. -1.
     999901    1    3    3    0    0  0.81042650663E-01 -0.26263856347E-01  0.83262099112E-01  0.88802605735E+00  0.88000000000E+00 0.  1.
        -11    1    4    4    0    0 -0.18132184166E-01  0.84788179117E-02 -0.46489497716E-01  0.50618188181E-01  0.51100000000E-03 0.  1.
         11    1    4    4    0    0 -0.47791407810E-01  0.24185562640E-01 -0.57671103051E-01  0.78709448917E-01  0.51100000000E-03 0. -1.
</event>
<event>
 8    1  0.1091347E+005  0.1043930E+01  0.7957747E-01            NaN
         13   -1    0    0    0    0  0.00000000000E+00  0.00000000000E+00  0.74505805969E-08  0.10566000000E+00  0.10566000000E+00 0. -1.
     999900   -1    0    0    0    0 -0.00000000000E+00 -0.00000000000E+00 -0.74505805969E-08  0.93827000000E+00  0.93827000000E+00 0.  1.
     999902    2    1    2    0    0  0.13803248748E-01  0.17726832051E-01 -0.81365649261E-02  0.10200349390E+01  0.10197550210E+01 0.  0.
     999903    2    3    3    0    0  0.11494582498E+00 -0.45376027082E-01  0.36770673738E-01  0.13086203590E+00  0.22388914185E-01 0.  0.
         14    1    1    2    0    0 -0.13803248748E-01 -0.17726832051E-01  0.81365649261E-02  0.23895060982E-01  0.00000000000E+00 0. -1.
     999901    1    3    3    0    0 -0.10114257623E+00  0.63102859133E-01 -0.44907238664E-01  0.88917290312E+00  0.88000000000E+00 0.  1.
        -11    1    4    4    0    0  0.35103983106E-01 -0.50504030827E-02  0.16626923047E-01  0.39172846364E-01  0.51100000000E-03 0.  1.
         11    1    4    4    0    0  0.79841841873E-01 -0.40325623999E-01  0.20143750691E-01  0.91689189535E-01  0.51100000000E-03 0. -1.
</event>
<event>
 8    1  0.1091347E+005  0.1043930E+01  0.7957747E-01            NaN
         13   -1    0    0    0    0  0.00000000000E+00  0.00000000000E+00  0.74505805969E-08  0.10566000000E+00  0.10566000000E+00 0.  1.
     999900   -1    0    0    0    0 -0.00000000000E+00 -0.00000000000E+00 -0.74505805969E-08  0.93827000000E+00  0.93827000000E+00 0.  1.
     999902    2    1    2    0    0  0.77511894035E-02 -0.13734011555E-01 -0.17634623999E-01  0.10202723591E+01  0.10199980405E+01 0.  0.
     999903    2    3    3    0    0 -0.11675071090E+00  0.32796090902E-01  0.37544833596E-01  0.12858264502E+00  0.20434529470E-01 0.  0.
         14    1    1    2    0    0 -0.77511894035E-02  0.13734011555E-01  0.17634623999E-01  0.23657640925E-01  0.00000000000E+00 0. -1.
     999901    1    3    3    0    0  0.12450190031E+00 -0.46530102457E-01 -0.55179457595E-01  0.89168971406E+00  0.88000000000E+00 0.  1.
        -11    1    4    4    0    0 -0.32092752347E-01  0.11404115092E-01  0.14417990594E-02  0.34093085806E-01  0.51100000000E-03 0. -1.
         11    1    4    4    0    0 -0.84657958558E-01  0.21391975810E-01  0.36103034537E-01  0.94489559212E-01  0.51100000000E-03 0.  1.
</event>
<event>
 8    1  0.1091347E+005  0.1043930E+01  0.7957747E-01            NaN
         13   -1    0    0    0    0  0.00000000000E+00  0.00000000000E+00  0.74505805969E-08  0.10566000000E+00  0.10566000000E+00 0.  1.
     999900   -1    0    0    0    0 -0.00000000000E+00 -0.00000000000E+00 -0.74505805969E-08  0.93827000000E+00  0.93827000000E+00 0.  1.
     999902    2    1    2    0    0  0.13450955104E-01  0.10186472332E-01 -0.16551844278E-01  0.10202940959E+01  0.10200202872E+01 0.  0.
     999903    2    3    3    0    0  0.74313793223E-01  0.97429194260E-01  0.43230748695E-01  0.13187441132E+00  0.22516104708E-01 0.  0.
         14    1    1    2    0    0 -0.13450955104E-01 -0.10186472332E-01  0.16551844278E-01  0.23635904061E-01  0.00000000000E+00 0.  1.
     999901    1    3    3    0    0 -0.60862838118E-01 -0.87242721929E-01 -0.59782592973E-01  0.88841968462E+00  0.88000000000E+00 0.  1.
        -11    1    4    4    0    0  0.43802331909E-02  0.62220476678E-02  0.93201726798E-02  0.12042718122E-01  0.51100000000E-03 0. -1.
         11    1    4    4    0    0  0.69933560032E-01  0.91207146593E-01  0.33910576015E-01  0.11983169320E+00  0.51100000000E-03 0.  1.
</event>
<event>
 8    1  0.1091347E+005  0.1043930E+01  0.7957747E-01            NaN
         13   -1    0    0    0    0  0.00000000000E+00  0.00000000000E+00  0.74505805969E-08  0.10566000000E+00  0.10566000000E+00 0. -1.
     999900   -1    0    0    0    0 -0.00000000000E+00 -0.00000000000E+00 -0.74505805969E-08  0.93827000000E+00  0.93827000000E+00 0.  1.
     999902    2    1    2    0    0 -0.15830482282E-01  0.74783319191E-02 -0.18982507235E-01  0.10181062668E+01  0.10177787113E+01 0.  0.
     999903    2    3    3    0    0 -0.94861499523E-01 -0.73703434782E-01  0.41831986732E-01  0.12876112363E+00  0.19965256172E-01 0.  0.
         14    1    1    2    0    0  0.15830482282E-01 -0.74783319191E-02  0.18982507235E-01  0.25823733241E-01  0.00000000000E+00 0.  1.
     999901    1    3    3    0    0  0.79031017241E-01  0.81181766701E-01 -0.60814493966E-01  0.88934514313E+00  0.88000000000E+00 0.  1.
        -11    1    4    4    0    0 -0.45964564743E-01 -0.47941141150E-01  0.20398003062E-01  0.69479737167E-01  0.51100000000E-03 0. -1.
         11    1    4    4    0    0 -0.48896934780E-01 -0.25762293632E-01  0.21433983670E-01  0.59281386464E-01  0.51100000000E-03 0.  1.
</event>
<event>
 8    1  0.1091347E+005  0.1043930E+01  0.7957747E-01            NaN
         13   -1    0    0    0    0  0.00000000000E+00  0.00000000000E+00  0.74505805969E-08  0.10566000000E+00  0.10566000000E+00 0. -1.
     999900   -1    0    0    0    0 -0.00000000000E+00 -0.00000000000E+00 -0.74505805969E-08  0.93827000000E+00  0.93827000000E+00 0. -1.
     999902    2    1    2    0    0 -0.20313359290E-01  0.98366434998E-02 -0.35290820043E-02  0.10210860393E+01  0.10208304723E+01 0.  0.
     999903    2    3    3    0    0 -0.24608690643E-01 -0.90374151194E-01  0.89608645389E-01  0.13050460590E+00  0.15121771490E-01 0.  0.
         14    1    1    2    0    0  0.20313359290E-01 -0.98366434998E-02  0.35290820043E-02  0.22843960707E-01  0.00000000000E+00 0. -1.
     999901    1    3    3    0    0  0.42953313530E-02  0.10021079469E+00 -0.93137727393E-01  0.89058143340E+00  0.88000000000E+00 0. -1.
        -11    1    4    4    0    0 -0.12934643843E-02 -0.26884383464E-01  0.20805922200E-01  0.34023383781E-01  0.51100000000E-03 0. -1.
         11    1    4    4    0    0 -0.23315226258E-01 -0.63489767730E-01  0.68802723189E-01  0.96481222117E-01  0.51100000000E-03 0.  1.
</event>
<event>
 8    1  0.1091347E+005  0.1043930E+01  0.7957747E-01            NaN
         13   -1    0    0    0    0  0.00000000000E+00  0.00000000000E+00  0.74505805969E-08  0.10566000000E+00  0.10566000000E+00 0. -1.
     999900   -1    0    0    0    0 -0.00000000000E+00 -0.00000000000E+00 -0.74505805969E-08  0.93827000000E+00  0.93827000000E+00 0.  1.
     999902    2    1    2    0    0  0.71844488940E-02 -0.13445614326E-01 -0.18595566700E-01  0.10198842945E+01  0.10196007936E+01 0.  0.
     999903    2    3    3    0    0  0.75896532905E-01 -0.10222292219E+00  0.26633015685E-01  0.13160033906E+00  0.19988051156E-01 0.  0.
         14    1    1    2    0    0 -0.71844488940E-02  0.13445614326E-01  0.18595566700E-01  0.24045705467E-01  0.00000000000E+00 0. -1.
     999901    1    3    3    0    0 -0.68712084011E-01  0.88777307864E-01 -0.45228582385E-01  0.88828395547E+00  0.88000000000E+00 0.  1.
        -11    1    4    4    0    0  0.33713205226E-01 -0.57751289960E-01  0.20760937768E-01  0.70021920544E-01  0.51100000000E-03 0.  1.
         11    1    4    4    0    0  0.42183327679E-01 -0.44471632230E-01  0.58720779170E-02  0.61578418519E-01  0.51100000000E-03 0. -1.
</event>
<event>
 8    1  0.1091347E+005  0.1043930E+01  0.7957747E-01            NaN
         13   -1    0    0    0    0  0.00000000000E+00  0.00000000000E+00  0.74505805969E-08  0.10566000000E+00  0.10566000000E+00 0. -1.
     999900   -1    0    0    0    0 -0.00000000000E+00 -0.00000000000E+00 -0.74505805969E-08  0.93827000000E+00  0.93827000000E+00 0.  1.
     999902    2    1    2    0    0 -0.23903633755E-01 -0.10966510061E-02  0.16629970658E-02  0.10199435057E+01  0.10196614158E+01 0.  0.
     999903    2    3    3    0    0  0.81900815038E-02  0.12242234716E+00 -0.37471258981E-01  0.12987696915E+00  0.20239153811E-01 0.  0.
         14    1    1    2    0    0  0.23903633755E-01  0.10966510061E-02 -0.16629970658E-02  0.23986494311E-01  0.00000000000E+00 0.  1.
     999901    1    3    3    0    0 -0.32093715258E-01 -0.12351899817E+00  0.39134256047E-01  0.89006653654E+00  0.88000000000E+00 0.  1.
        -11    1    4    4    0    0 -0.47746700847E-02  0.27028332672E-01 -0.13857457428E-01  0.30750910373E-01  0.51100000000E-03 0.  1.
         11    1    4    4    0    0  0.12964751589E-01  0.95394014489E-01 -0.23613801554E-01  0.99126058778E-01  0.51100000000E-03 0. -1.
</event>
<event>
 8    1  0.1091347E+005  0.1043930E+01  0.7957747E-01            NaN
         13   -1    0    0    0    0  0.00000000000E+00  0.00000000000E+00  0.74505805969E-08  0.10566000000E+00  0.10566000000E+00 0. -1.
     999900   -1    0    0    0    0 -0.00000000000E+00 -0.00000000000E+00 -0.74505805969E-08  0.93827000000E+00  0.93827000000E+00 0.  1.
     999902    2    1    2    0    0 -0.17583795162E-01  0.20006071448E-01 -0.73335340395E-02  0.10163036816E+01  0.10159281273E+01 0.  0.
     999903    2    3    3    0    0 -0.18150929069E-01  0.10915115677E+00  0.63200549676E-01  0.12899188474E+00  0.20029118790E-01 0.  0.
         14    1    1    2    0    0  0.17583795162E-01 -0.20006071448E-01  0.73335340395E-02  0.27626318405E-01  0.00000000000E+00 0. -1.
     999901    1    3    3    0    0  0.56713390619E-03 -0.89145085318E-01 -0.70534083716E-01  0.88731179686E+00  0.88000000000E+00 0.  1.
        -11    1    4    4    0    0 -0.15168021922E-01  0.34427079598E-01  0.22764091428E-01  0.43974511688E-01  0.51100000000E-03 0.  1.
         11    1    4    4    0    0 -0.29829071465E-02  0.74724077167E-01  0.40436458248E-01  0.85017373049E-01  0.51100000000E-03 0. -1.
</event>
<event>
 8    1  0.1091347E+005  0.1043930E+01  0.7957747E-01            NaN
         13   -1    0    0    0    0  0.00000000000E+00  0.00000000000E+00  0.74505805969E-08  0.10566000000E+00  0.10566000000E+00 0.  1.
     999900   -1    0    0    0    0 -0.00000000000E+00 -0.00000000000E+00 -0.74505805969E-08  0.93827000000E+00  0.93827000000E+00 0. -1.
     999902    2    1    2    0    0 -0.13616455595E-01  0.69528464275E-02  0.23476459247E-01  0.10159140389E+01  0.10155276660E+01 0.  0.
     999903    2    3    3    0    0  0.21486395939E-01  0.22950626737E-01 -0.11818505370E+00  0.12375030764E+00  0.18921819258E-01 0.  0.
         14    1    1    2    0    0  0.13616455595E-01 -0.69528464275E-02 -0.23476459247E-01  0.28015961079E-01  0.00000000000E+00 0. -1.
     999901    1    3    3    0    0 -0.35102851534E-01 -0.15997780309E-01  0.14166151295E+00  0.89216373128E+00  0.88000000000E+00 0.  1.
        -11    1    4    4    0    0  0.15917945746E-02  0.11573156625E-01 -0.61565493378E-01  0.62666122109E-01  0.51100000000E-03 0.  1.
         11    1    4    4    0    0  0.19894601365E-01  0.11377470112E-01 -0.56619560326E-01  0.61084185532E-01  0.51100000000E-03 0. -1.
</event>
<event>
 8    1  0.1091347E+005  0.1043930E+01  0.7957747E-01            NaN
         13   -1    0    0    0    0  0.00000000000E+00  0.00000000000E+00  0.74505805969E-08  0.10566000000E+00  0.10566000000E+00 0.  1.
     999900   -1    0    0    0    0 -0.00000000000E+00 -0.00000000000E+00 -0.74505805969E-08  0.93827000000E+00  0.93827000000E+00 0.  1.
     999902    2    1    2    0    0  0.34195361675E-02  0.31575787017E-02  0.23407564974E-01  0.10200641745E+01  0.10197849491E+01 0.  0.
     999903    2    3    3    0    0  0.11289092489E+00 -0.55166517743E-01  0.34364450655E-01  0.13129776053E+00  0.16446301967E-01 0.  0.
         14    1    1    2    0    0 -0.34195361675E-02 -0.31575787017E-02 -0.23407564974E-01  0.23865825544E-01  0.00000000000E+00 0. -1.
     999901    1    3    3    0    0 -0.10947138873E+00  0.58324096445E-01 -0.10956885681E-01  0.88876641392E+00  0.88000000000E+00 0. -1.
        -11    1    4    4    0    0  0.28944461038E-01 -0.20851484774E-01  0.14158294830E-01  0.38383390621E-01  0.51100000000E-03 0.  1.
         11    1    4    4    0    0  0.83946463857E-01 -0.34315032969E-01  0.20206155825E-01  0.92914369911E-01  0.51100000000E-03 0. -1.
</event>
<event>
 8    1  0.1091347E+005  0.1043930E+01  0.7957747E-01            NaN
         13   -1    0    0    0    0  0.00000000000E+00  0.00000000000E+00  0.74505805969E-08  0.10566000000E+00  0.10566000000E+00 0.  1.
     999900   -1    0    0    0    0 -0.00000000000E+00 -0.00000000000E+00 -0.74505805969E-08  0.93827000000E+00  0.93827000000E+00 0. -1.
     999902    2    1    2    0    0  0.24618492394E-01  0.63474671924E-02  0.13992584895E-01  0.10149101285E+01  0.10144951533E+01 0.  0.
     999903    2    3    3    0    0 -0.15069932545E-01 -0.53939573275E-01  0.11162935995E+00  0.12657312145E+00  0.20568437903E-01 0.  0.
         14    1    1    2    0    0 -0.24618492394E-01 -0.63474671924E-02 -0.13992584895E-01  0.29019871460E-01  0.00000000000E+00 0.  1.
     999901    1    3    3    0    0  0.39688424939E-01  0.60287040467E-01 -0.97636775059E-01  0.88833700709E+00  0.88000000000E+00 0. -1.
        -11    1    4    4    0    0 -0.17736896699E-01 -0.37656837396E-01  0.65809257736E-01  0.77870112571E-01  0.51100000000E-03 0.  1.
         11    1    4    4    0    0  0.26669641533E-02 -0.16282735879E-01  0.45820102218E-01  0.48703008878E-01  0.51100000000E-03 0. -1.
</event>
<event>
 8    1  0.1091347E+005  0.1043930E+01  0.7957747E-01            NaN
         13   -1    0    0    0    0  0.00000000000E+00  0.00000000000E+00  0.74505805969E-08  0.10566000000E+00  0.10566000000E+00 0.  1.
     999900   -1    0    0    0    0 -0.00000000000E+00 -0.00000000000E+00 -0.74505805969E-08  0.93827000000E+00  0.93827000000E+00 0.  1.
     999902    2    1    2    0    0  0.14265205651E-01  0.15177954182E-01  0.11488883920E-01  0.10201421704E+01  0.10198647885E+01 0.  0.
     999903    2    3    3    0    0 -0.11323082817E-02  0.10999540301E+00  0.71394310590E-01  0.13289018125E+00  0.21503066814E-01 0.  0.
         14    1    1    2    0    0 -0.14265205651E-01 -0.15177954182E-01 -0.11488883920E-01  0.23787829643E-01  0.00000000000E+00 0. -1.
     999901    1    3    3    0    0  0.15397513932E-01 -0.94817448824E-01 -0.59905426671E-01  0.88725198911E+00  0.88000000000E+00 0.  1.
        -11    1    4    4    0    0  0.61217880982E-02  0.52207949544E-01  0.23941468262E-01  0.57763321482E-01  0.51100000000E-03 0. -1.
         11    1    4    4    0    0 -0.72540963799E-02  0.57787453462E-01  0.47452842329E-01  0.75126859764E-01  0.51100000000E-03 0.  1.
</event>
<event>
 7    1  0.1091347E+005  0.1043930E+01  0.7957747E-01            NaN
         13   -1    0    0    0    0  0.00000000000E+00  0.00000000000E+00  0.74505805969E-08  0.10566000000E+00  0.10566000000E+00 0. -1.
     999900   -1    0    0    0    0 -0.00000000000E+00 -0.00000000000E+00 -0.74505805969E-08  0.93827000000E+00  0.93827000000E+00 0. -1.
     999903    2    1    2    0    0 -0.80241223229E-03 -0.11437743470E+00  0.19543464890E-01  0.11803932735E+00  0.21644730252E-01 0.  0.
         14    1    1    2    0    0 -0.24122946380E-01  0.23398374621E-01  0.21504268565E-01  0.39897794970E-01  0.00000000000E+00 0. -1.
     999901    1    1    2    0    0  0.24925358612E-01  0.90979060079E-01 -0.41047733455E-01  0.88599287768E+00  0.88000000000E+00 0. -1.
        -11    1    3    3    0    0 -0.47576175112E-02 -0.61394049859E-01  0.20483926679E-01  0.64897739989E-01  0.51100000000E-03 0. -1.
         11    1    3    3    0    0  0.39552052789E-02 -0.52983384842E-01 -0.94046178897E-03  0.53141587363E-01  0.51100000000E-03 0.  1.
</event>
<event>
 8    1  0.1091347E+005  0.1043930E+01  0.7957747E-01            NaN
         13   -1    0    0    0    0  0.00000000000E+00  0.00000000000E+00  0.74505805969E-08  0.10566000000E+00  0.10566000000E+00 0.  1.
     999900   -1    0    0    0    0 -0.00000000000E+00 -0.00000000000E+00 -0.74505805969E-08  0.93827000000E+00  0.93827000000E+00 0. -1.
     999902    2    1    2    0    0 -0.21073023161E-01  0.10390487325E-01 -0.12925721375E-02  0.10203990571E+01  0.10201277030E+01 0.  0.
     999903    2    3    3    0    0 -0.71925742545E-01  0.91685325864E-01  0.60946522650E-01  0.13300480718E+00  0.19907001012E-01 0.  0.
         14    1    1    2    0    0  0.21073023161E-01 -0.10390487325E-01  0.12925721375E-02  0.23530942921E-01  0.00000000000E+00 0. -1.
     999901    1    3    3    0    0  0.50852719384E-01 -0.81294838539E-01 -0.62239094787E-01  0.88739424990E+00  0.88000000000E+00 0. -1.
        -11    1    4    4    0    0 -0.48079111651E-01  0.73389716589E-01  0.40394476225E-01  0.96589990727E-01  0.51100000000E-03 0.  1.
         11    1    4    4    0    0 -0.23846630894E-01  0.18295609275E-01  0.20552046425E-01  0.36414816449E-01  0.51100000000E-03 0. -1.
</event>
<event>
 8    1  0.1091347E+005  0.1043930E+01  0.7957747E-01            NaN
         13   -1    0    0    0    0  0.00000000000E+00  0.00000000000E+00  0.74505805969E-08  0.10566000000E+00  0.10566000000E+00 0. -1.
     999900   -1    0    0    0    0 -0.00000000000E+00 -0.00000000000E+00 -0.74505805969E-08  0.93827000000E+00  0.93827000000E+00 0.  1.
     999902    2    1    2    0    0  0.36125636764E-02 -0.65236095133E-02  0.22256298975E-01  0.10204576558E+01  0.10201876672E+01 0.  0.
     999903    2    3    3    0    0  0.11589254330E+00  0.40105349778E-01  0.43673467340E-01  0.13184089434E+00  0.20859745905E-01 0.  0.
         14    1    1    2    0    0 -0.36125636764E-02  0.65236095133E-02 -0.22256298975E-01  0.23472344183E-01  0.00000000000E+00 0.  1.
     999901    1    3    3    0    0 -0.11227997962E+00 -0.46628959292E-01 -0.21417168366E-01  0.88861676147E+00  0.88000000000E+00 0.  1.
        -11    1    4    4    0    0  0.43070010290E-01  0.22633535827E-01  0.97491959775E-02  0.49624698222E-01  0.51100000000E-03 0.  1.
         11    1    4    4    0    0  0.72822533008E-01  0.17471813952E-01  0.33924271363E-01  0.82216196123E-01  0.51100000000E-03 0. -1.
</event>
<event>
 8    1  0.1091347E+005  0.1043930E+01  0.7957747E-01            NaN
         13   -1    0    0    0    0  0.00000000000E+00  0.00000000000E+00  0.74505805969E-08  0.10566000000E+00  0.10566000000E+00 0. -1.
     999900   -1    0    0    0    0 -0.00000000000E+00 -0.00000000000E+00 -0.74505805969E-08  0.93827000000E+00  0.93827000000E+00 0.  1.
     999902    2    1    2    0    0  0.22972291815E-01 -0.84858281676E-02 -0.77704356667E-03  0.10194281783E+01  0.10191336867E+01 0.  0.
     999903    2    3    3    0    0  0.12915404530E+00  0.10242386894E-01  0.19941343787E-01  0.13260544380E+00  0.20021803810E-01 0.  0.
         14    1    1    2    0    0 -0.22972291815E-01  0.84858281676E-02  0.77704356667E-03  0.24501821720E-01  0.00000000000E+00 0. -1.
     999901    1    3    3    0    0 -0.10618175348E+00 -0.18728215062E-01 -0.20718387354E-01  0.88682273448E+00  0.88000000000E+00 0. -1.
        -11    1    4    4    0    0  0.55360176221E-01  0.14163572624E-01  0.10551558812E-01  0.58111551477E-01  0.51100000000E-03 0. -1.
         11    1    4    4    0    0  0.73793869077E-01 -0.39211857301E-02  0.93897849753E-02  0.74493892325E-01  0.51100000000E-03 0.  1.
</event>
<event>
 8    1  0.1091347E+005  0.1043930E+01  0.7957747E-01            NaN
         13   -1    0    0    0    0  0.00000000000E+00  0.00000000000E+00  0.74505805969E-08  0.10566000000E+00  0.10566000000E+00 0.  1.
     999900   -1    0    0    0    0 -0.00000000000E+00 -0.00000000000E+00 -0.74505805969E-08  0.93827000000E+00  0.93827000000E+00 0. -1.
     999902    2    1    2    0    0 -0.19351410604E-01 -0.89050527692E-02  0.15999238351E-01  0.10172888160E+01  0.10169399109E+01 0.  0.
     999903    2    3    3    0    0 -0.77111361581E-01  0.17028745023E-01  0.10232601305E+00  0.13080075300E+00  0.20052027270E-01 0.  0.
         14    1    1    2    0    0  0.19351410604E-01  0.89050527692E-02 -0.15999238351E-01  0.26641184001E-01  0.00000000000E+00 0.  1.
     999901    1    3    3    0    0  0.57759950977E-01 -0.25933797792E-01 -0.86326774698E-01  0.88648806300E+00  0.88000000000E+00 0.  1.
        -11    1    4    4    0    0 -0.47099433628E-01  0.29801216600E-02  0.49137974160E-01  0.68132513521E-01  0.51100000000E-03 0.  1.
         11    1    4    4    0    0 -0.30011927953E-01  0.14048623363E-01  0.53188038889E-01  0.62668239481E-01  0.51100000000E-03 0. -1.
</event>
<event>
 8    1  0.1091347E+005  0.1043930E+01  0.7957747E-01            NaN
         13   -1    0    0    0    0  0.00000000000E+00  0.00000000000E+00  0.74505805969E-08  0.10566000000E+00  0.10566000000E+00 0.  1.
     999900   -1    0    0    0    0 -0.00000000000E+00 -0.00000000000E+00 -0.74505805969E-08  0.93827000000E+00  0.93827000000E+00 0.  1.
     999902    2    1    2    0    0 -0.10172135029E-01 -0.94912576191E-02 -0.21161703869E-01  0.10186046370E+01  0.10182897586E+01 0.  0.
     999903    2    3    3    0    0 -0.37180815504E-01 -0.11501004768E+00  0.42426397837E-01  0.12961243759E+00  0.19739823548E-01 0.  0.
         14    1    1    2    0    0  0.10172135029E-01  0.94912576191E-02  0.21161703869E-01  0.25325363035E-01  0.00000000000E+00 0.  1.
     999901    1    3    3    0    0  0.27008680475E-01  0.10551879007E+00 -0.63588101706E-01  0.88899219938E+00  0.88000000000E+00 0.  1.
        -11    1    4    4    0    0 -0.35227883186E-01 -0.93114828989E-01  0.28389478149E-01  0.10352583601E+00  0.51100000000E-03 0. -1.
         11    1    4    4    0    0 -0.19529323181E-02 -0.21895218695E-01  0.14036919688E-01  0.26086601574E-01  0.51100000000E-03 0.  1.
</event>
<event>
 8    1  0.1091347E+005  0.1043930E+01  0.7957747E-01            NaN
         13   -1    0    0    0    0  0.00000000000E+00  0.00000000000E+00  0.74505805969E-08  0.10566000000E+00  0.10566000000E+00 0.  1.
     999900   -1    0    0    0    0 -0.00000000000E+00 -0.00000000000E+00 -0.74505805969E-08  0.93827000000E+00  0.93827000000E+00 0. -1.
     999902    2    1    2    0    0  0.23513295495E-02  0.22206517263E-01  0.72745093787E-02  0.10204443310E+01  0.10201740323E+01 0.  0.
     999903    2    3    3    0    0 -0.90742949467E-01  0.63202385463E-01  0.70199729538E-01  0.13235267512E+00  0.18984313975E-01 0.  0.
         14    1    1    2    0    0 -0.23513295495E-02 -0.22206517263E-01 -0.72745093787E-02  0.23485668956E-01  0.00000000000E+00 0.  1.
     999901    1    3    3    0    0  0.93094279017E-01 -0.40995868200E-01 -0.62925220160E-01  0.88809165593E+00  0.88000000000E+00 0. -1.
        -11    1    4    4    0    0 -0.65730373560E-01  0.37815540824E-01  0.40576475292E-01  0.86007026482E-01  0.51100000000E-03 0. -1.
         11    1    4    4    0    0 -0.25012575907E-01  0.25386844639E-01  0.29623254246E-01  0.46345648635E-01  0.51100000000E-03 0.  1.
</event>
<event>
 8    1  0.1091347E+005  0.1043930E+01  0.7957747E-01            NaN
         13   -1    0    0    0    0  0.00000000000E+00  0.00000000000E+00  0.74505805969E-08  0.10566000000E+00  0.10566000000E+00 0. -1.
     999900   -1    0    0    0    0 -0.00000000000E+00 -0.00000000000E+00 -0.74505805969E-08  0.93827000000E+00  0.93827000000E+00 0. -1.
     999902    2    1    2    0    0 -0.12146296693E-01  0.29198020725E-02  0.22262804350E-01  0.10184017759E+01  0.10180817683E+01 0.  0.
     999903    2    3    3    0    0 -0.11557139774E+00 -0.24749028576E-02  0.59584491803E-01  0.13154284535E+00  0.19756907126E-01 0.  0.
         14    1    1    2    0    0  0.12146296693E-01 -0.29198020725E-02 -0.22262804350E-01  0.25528224087E-01  0.00000000000E+00 0.  1.
     999901    1    3    3    0    0  0.10342510105E+00  0.53947049301E-02 -0.37321687453E-01  0.88685893056E+00  0.88000000000E+00 0.  1.
        -11    1    4    4    0    0 -0.59325896893E-01 -0.66148862860E-02  0.39917756806E-01  0.71812305297E-01  0.51100000000E-03 0. -1.
         11    1    4    4    0    0 -0.56245500847E-01  0.41399834284E-02  0.19666734997E-01  0.59730540051E-01  0.51100000000E-03 0.  1.
</event>
<event>
 8    1  0.1091347E+005  0.1043930E+01  0.7957747E-01            NaN
         13   -1    0    0    0    0  0.00000000000E+00  0.00000000000E+00  0.74505805969E-08  0.10566000000E+00  0.10566000000E+00 0.  1.
     999900   -1    0    0    0    0 -0.00000000000E+00 -0.00000000000E+00 -0.74505805969E-08  0.93827000000E+00  0.93827000000E+00 0.  1.
     999902    2    1    2    0    0 -0.56052069554E-02 -0.16447413883E-01 -0.15381734457E-01  0.10207236749E+01  0.10204598410E+01 0.  0.
     999903    2    3    3    0    0 -0.35266979415E-01  0.10406718137E-01  0.12220701575E+00  0.12913429111E+00  0.19724371251E-01 0.  0.
         14    1    1    2    0    0  0.56052069554E-02  0.16447413883E-01  0.15381734457E-01  0.23206325073E-01  0.00000000000E+00 0.  1.
     999901    1    3    3    0    0  0.29661772459E-01 -0.26854132020E-01 -0.13758875021E+00  0.89158938382E+00  0.88000000000E+00 0.  1.
        -11    1    4    4    0    0 -0.20142310802E-01 -0.42997105181E-02  0.62474491446E-01  0.65783914428E-01  0.51100000000E-03 0.  1.
         11    1    4    4    0    0 -0.15124668613E-01  0.14706428655E-01  0.59732524308E-01  0.63350376681E-01  0.51100000000E-03 0. -1.
</event>
<event>
 7    1  0.1091347E+005  0.1043930E+01  0.7957747E-01            NaN
         13   -1    0    0    0    0  0.00000000000E+00  0.00000000000E+00  0.74505805969E-08  0.10566000000E+00  0.10566000000E+00 0. -1.
     999900   -1    0    0    0    0 -0.00000000000E+00 -0.00000000000E+00 -0.74505805969E-08  0.93827000000E+00  0.93827000000E+00 0. -1.
     999903    2    1    2    0    0 -0.72047333931E-01  0.28754455976E-01 -0.57289628260E-01  0.98540627755E-01  0.20261212873E-01 0.  0.
         14    1    1    2    0    0 -0.45879656512E-01  0.28274358860E-01  0.58223496019E-02  0.54205922237E-01  0.00000000000E+00 0.  1.
     999901    1    1    2    0    0  0.11792699044E+00 -0.57028814836E-01  0.51467278659E-01  0.89118345001E+00  0.88000000000E+00 0.  1.
        -11    1    3    3    0    0 -0.46427663587E-01  0.84047575894E-02 -0.37758078158E-01  0.60432619366E-01  0.51100000000E-03 0. -1.
         11    1    3    3    0    0 -0.25619670344E-01  0.20349698386E-01 -0.19531550103E-01  0.38108008389E-01  0.51100000000E-03 0.  1.
</event>
<event>
 8    1  0.1091347E+005  0.1043930E+01  0.7957747E-01            NaN
         13   -1    0    0    0    0  0.00000000000E+00  0.00000000000E+00  0.74505805969E-08  0.10566000000E+00  0.10566000000E+00 0.  1.
     999900   -1    0    0    0    0 -0.00000000000E+00 -0.00000000000E+00 -0.74505805969E-08  0.93827000000E+00  0.93827000000E+00 0. -1.
     999902    2    1    2    0    0 -0.76449567816E-02 -0.11417274840E-01 -0.20434407173E-01  0.10193055299E+01  0.10190080465E+01 0.  0.
     999903    2    3    3    0    0 -0.11776825545E+00 -0.42526807087E-01  0.30450788706E-01  0.13043869680E+00  0.20226511729E-01 0.  0.
         14    1    1    2    0    0  0.76449567816E-02  0.11417274840E-01  0.20434407173E-01  0.24624470055E-01  0.00000000000E+00 0.  1.
     999901    1    3    3    0    0  0.11012329867E+00  0.31109532247E-01 -0.50885195879E-01  0.88886683315E+00  0.88000000000E+00 0. -1.
        -11    1    4    4    0    0 -0.11229591196E+00 -0.35295618553E-01  0.29090523969E-01  0.12125457615E+00  0.51100000000E-03 0.  1.
         11    1    4    4    0    0 -0.54723434896E-02 -0.72311885335E-02  0.13602647373E-02  0.91841206455E-02  0.51100000000E-03 0. -1.
</event>
<event>
 8    1  0.1091347E+005  0.1043930E+01  0.7957747E-01            NaN
         13   -1    0    0    0    0  0.00000000000E+00  0.00000000000E+00  0.74505805969E-08  0.10566000000E+00  0.10566000000E+00 0. -1.
     999900   -1    0    0    0    0 -0.00000000000E+00 -0.00000000000E+00 -0.74505805969E-08  0.93827000000E+00  0.93827000000E+00 0. -1.
     999902    2    1    2    0    0  0.18315170597E-01  0.15493250823E-01 -0.91208704576E-03  0.10199233718E+01  0.10196408025E+01 0.  0.
     999903    2    3    3    0    0  0.26095170642E-01 -0.11982236025E+00 -0.34258486185E-01  0.12892234748E+00  0.20223052593E-01 0.  0.
         14    1    1    2    0    0 -0.18315170597E-01 -0.15493250823E-01  0.91208704576E-03  0.24006628206E-01  0.00000000000E+00 0.  1.
     999901    1    3    3    0    0 -0.77800000447E-02  0.13531561107E+00  0.33346399140E-01  0.89100102432E+00  0.88000000000E+00 0. -1.
        -11    1    4    4    0    0  0.23697632977E-01 -0.62170114840E-01 -0.16568003597E-01  0.68567199535E-01  0.51100000000E-03 0. -1.
         11    1    4    4    0    0  0.23975376649E-02 -0.57652245410E-01 -0.17690482588E-01  0.60355147940E-01  0.51100000000E-03 0.  1.
</event>
<event>
 8    1  0.1091347E+005  0.1043930E+01  0.7957747E-01            NaN
         13   -1    0    0    0    0  0.00000000000E+00  0.00000000000E+00  0.74505805969E-08  0.10566000000E+00  0.10566000000E+00 0.  1.
     999900   -1    0    0    0    0 -0.00000000000E+00 -0.00000000000E+00 -0.74505805969E-08  0.93827000000E+00  0.93827000000E+00 0.  1.
     999902    2    1    2    0    0  0.84434132547E-02  0.14046704009E-01  0.16513466764E-01  0.10206642375E+01  0.10203990347E+01 0.  0.
     999903    2    3    3    0    0  0.92517083076E-02  0.36878022618E-01 -0.12214512175E+00  0.12951434739E+00  0.20222580239E-01 0.  0.
         14    1    1    2    0    0 -0.84434132547E-02 -0.14046704009E-01 -0.16513466764E-01  0.23265762516E-01  0.00000000000E+00 0. -1.
     999901    1    3    3    0    0 -0.80829505294E-03 -0.22831318609E-01  0.13865858852E+00  0.89114989010E+00  0.88000000000E+00 0. -1.
        -11    1    4    4    0    0  0.88915622700E-03  0.26700106018E-01 -0.10198155315E+00  0.10542383299E+00  0.51100000000E-03 0.  1.
         11    1    4    4    0    0  0.83625520806E-02  0.10177916600E-01 -0.20163568609E-01  0.24090514391E-01  0.51100000000E-03 0. -1.
</event>
<event>
 8    1  0.1091347E+005  0.1043930E+01  0.7957747E-01            NaN
         13   -1    0    0    0    0  0.00000000000E+00  0.00000000000E+00  0.74505805969E-08  0.10566000000E+00  0.10566000000E+00 0. -1.
     999900   -1    0    0    0    0 -0.00000000000E+00 -0.00000000000E+00 -0.74505805969E-08  0.93827000000E+00  0.93827000000E+00 0. -1.
     999902    2    1    2    0    0  0.12622618043E-01 -0.68314394214E-02 -0.18432862939E-01  0.10205682902E+01  0.10203008700E+01 0.  0.
     999903    2    3    3    0    0  0.91510946056E-01 -0.92995286249E-01  0.10485963720E-01  0.13237693952E+00  0.19781864678E-01 0.  0.
         14    1    1    2    0    0 -0.12622618043E-01  0.68314394214E-02  0.18432862939E-01  0.23361709847E-01  0.00000000000E+00 0. -1.
     999901    1    3    3    0    0 -0.78888328013E-01  0.86163846827E-01 -0.28918826659E-01  0.88819135063E+00  0.88000000000E+00 0. -1.
        -11    1    4    4    0    0  0.64608428696E-01 -0.54095507484E-01  0.17918514574E-02  0.84285496031E-01  0.51100000000E-03 0. -1.
         11    1    4    4    0    0  0.26902517360E-01 -0.38899778765E-01  0.86941122626E-02  0.48091443493E-01  0.51100000000E-03 0.  1.
</event>
<event>
 8    1  0.1091347E+005  0.1043930E+01  0.7957747E-01            NaN
         13   -1    0    0    0    0  0.00000000000E+00  0.00000000000E+00  0.74505805969E-08  0.10566000000E+00  0.10566000000E+00 0. -1.
     999900   -1    0    0    0    0 -0.00000000000E+00 -0.00000000000E+00 -0.74505805969E-08  0.93827000000E+00  0.93827000000E+00 0.  1.
     999902    2    1    2    0    0  0.98674702816E-02  0.82873953630E-03 -0.21490577735E-01  0.10202678211E+01  0.10199933961E+01 0.  0.
     999903    2    3    3    0    0 -0.11338817540E+00  0.58547895766E-01 -0.11120479598E-01  0.12974494429E+00  0.20624041366E-01 0.  0.
         14    1    1    2    0    0 -0.98674702816E-02 -0.82873953630E-03  0.21490577735E-01  0.23662178901E-01  0.00000000000E+00 0. -1.
     999901    1    3    3    0    0  0.12325564568E+00 -0.57719156230E-01 -0.10370098137E-01  0.89052287681E+00  0.88000000000E+00 0.  1.
        -11    1    4    4    0    0 -0.10208691745E+00  0.47519655409E-01 -0.47380463146E-02  0.11270566342E+00  0.51100000000E-03 0. -1.
         11    1    4    4    0    0 -0.11301257954E-01  0.11028240357E-01 -0.63824332835E-02  0.17039280863E-01  0.51100000000E-03 0.  1.
</event>
<event>
 8    1  0.1091347E+005  0.1043930E+01  0.7957747E-01            NaN
         13   -1    0    0    0    0  0.00000000000E+00  0.00000000000E+00  0.74505805969E-08  0.10566000000E+00  0.10566000000E+00 0.  1.
     999900   -1    0    0    0    0 -0.00000000000E+00 -0.00000000000E+00 -0.74505805969E-08  0.93827000000E+00  0.93827000000E+00 0.  1.
     999902    2    1    2    0    0  0.15703481179E-01  0.14428652120E-02  0.17378401313E-01  0.10204632147E+01  0.10201933554E+01 0.  0.
     999903    2    3    3    0    0 -0.64010122570E-01  0.86349145597E-01  0.72356103913E-01  0.13108934343E+00  0.19888173651E-01 0.  0.
         14    1    1    2    0    0 -0.15703481179E-01 -0.14428652120E-02 -0.17378401313E-01  0.23466785322E-01  0.00000000000E+00 0. -1.
     999901    1    3    3    0    0  0.79713603749E-01 -0.84906280385E-01 -0.54977702600E-01  0.88937387125E+00  0.88000000000E+00 0.  1.
        -11    1    4    4    0    0 -0.16765020671E-01  0.38235485792E-01  0.30738803946E-01  0.51847405730E-01  0.51100000000E-03 0.  1.
         11    1    4    4    0    0 -0.47245101899E-01  0.48113659805E-01  0.41617299967E-01  0.79241937703E-01  0.51100000000E-03 0. -1.
</event>
<event>
 8    1  0.1091347E+005  0.1043930E+01  0.7957747E-01            NaN
         13   -1    0    0    0    0  0.00000000000E+00  0.00000000000E+00  0.74505805969E-08  0.10566000000E+00  0.10566000000E+00 0.  1.
     999900   -1    0    0    0    0 -0.00000000000E+00 -0.00000000000E+00 -0.74505805969E-08  0.93827000000E+00  0.93827000000E+00 0.  1.
     999902    2    1    2    0    0  0.14233510718E-03 -0.24225454574E-01 -0.54334776892E-02  0.10191022819E+01  0.10187998063E+01 0.  0.
     999903    2    3    3    0    0  0.18691600186E-01  0.11591108721E+00  0.42668798595E-01  0.12652390739E+00  0.20072785320E-01 0.  0.
         14    1    1    2    0    0 -0.14233510718E-03  0.24225454574E-01  0.54334776892E-02  0.24827718147E-01  0.00000000000E+00 0. -1.
     999901    1    3    3    0    0 -0.18549265078E-01 -0.14013654179E+00 -0.48102276284E-01  0.89257837447E+00  0.88000000000E+00 0.  1.
        -11    1    4    4    0    0  0.21686177674E-01  0.10897656248E+00  0.42458400506E-01  0.11895023483E+00  0.51100000000E-03 0.  1.
         11    1    4    4    0    0 -0.29945774889E-02  0.69345247351E-02  0.21039808893E-03  0.75736725566E-02  0.51100000000E-03 0. -1.
</event>
<event>
 8    1  0.1091347E+005  0.1043930E+01  0.7957747E-01            NaN
         13   -1    0    0    0    0  0.00000000000E+00  0.00000000000E+00  0.74505805969E-08  0.10566000000E+00  0.10566000000E+00 0.  1.
     999900   -1    0    0    0    0 -0.00000000000E+00 -0.00000000000E+00 -0.74505805969E-08  0.93827000000E+00  0.93827000000E+00 0.  1.
     999902    2    1    2    0    0 -0.10834051167E-01 -0.44832847094E-02 -0.20258647865E-01  0.10205229643E+01  0.10202544934E+01 0.  0.
     999903    2    3    3    0    0  0.14096216792E-01  0.11670931505E+00  0.49538137263E-01  0.12913037083E+00  0.20021440504E-01 0.  0.
         14    1    1    2    0    0  0.10834051167E-01  0.44832847094E-02  0.20258647865E-01  0.23407035689E-01  0.00000000000E+00 0.  1.
     999901    1    3    3    0    0 -0.24930267959E-01 -0.12119259976E+00 -0.69796785128E-01  0.89139259348E+00  0.88000000000E+00 0.  1.
        -11    1    4    4    0    0  0.10204327553E-01  0.38509685301E-01  0.25175819455E-01  0.47129684585E-01  0.51100000000E-03 0. -1.
         11    1    4    4    0    0  0.38918892391E-02  0.78199629750E-01  0.24362317808E-01  0.82000686246E-01  0.51100000000E-03 0.  1.
</event>
<event>
 8    1  0.1091347E+005  0.1043930E+01  0.7957747E-01            NaN
         13   -1    0    0    0    0  0.00000000000E+00  0.00000000000E+00  0.74505805969E-08  0.10566000000E+00  0.10566000000E+00 0.  1.
     999900   -1    0    0    0    0 -0.00000000000E+00 -0.00000000000E+00 -0.74505805969E-08  0.93827000000E+00  0.93827000000E+00 0. -1.
     999902    2    1    2    0    0  0.76009891559E-02 -0.13715080197E-02 -0.21781082660E-01  0.10208200101E+01  0.10205583871E+01 0.  0.
     999903    2    3    3    0    0  0.81748749639E-01  0.45579407808E-01  0.87429666312E-01  0.12973681166E+00  0.20672524408E-01 0.  0.
         14    1    1    2    0    0 -0.76009891559E-02  0.13715080197E-02  0.21781082660E-01  0.23109989880E-01  0.00000000000E+00 0.  1.
     999901    1    3    3    0    0 -0.74147760483E-01 -0.46950915827E-01 -0.10921074897E+00  0.89108319846E+00  0.88000000000E+00 0. -1.
        -11    1    4    4    0    0  0.64069624713E-01  0.25242681998E-01  0.61226953888E-01  0.92147223554E-01  0.51100000000E-03 0. -1.
         11    1    4    4    0    0  0.17679124925E-01  0.20336725810E-01  0.26202712424E-01  0.37589588109E-01  0.51100000000E-03 0.  1.
</event>
<event>
 8    1  0.1091347E+005  0.1043930E+01  0.7957747E-01            NaN
         13   -1    0    0    0    0  0.00000000000E+00  0.00000000000E+00  0.74505805969E-08  0.10566000000E+00  0.10566000000E+00 0.  1.
     999900   -1    0    0    0    0 -0.00000000000E+00 -0.00000000000E+00 -0.74505805969E-08  0.93827000000E+00  0.93827000000E+00 0.  1.
     999902    2    1    2    0    0  0.24506673779E-02  0.20523522282E-01 -0.11532632490E-01  0.10202609833E+01  0.10199863978E+01 0.  0.
     999903    2    3    3    0    0  0.64983159470E-01  0.10985818133E+00 -0.32656176794E-01  0.13327891024E+00  0.20129853787E-01 0.  0.
         14    1    1    2    0    0 -0.24506673779E-02 -0.20523522282E-01  0.11532632490E-01  0.23669016659E-01  0.00000000000E+00 0.  1.
     999901    1    3    3    0    0 -0.62532492092E-01 -0.89334659045E-01  0.21123544304E-01  0.88698207310E+00  0.88000000000E+00 0. -1.
        -11    1    4    4    0    0  0.16197725717E-01  0.14911533850E-01 -0.14824265381E-02  0.22072128797E-01  0.51100000000E-03 0. -1.
         11    1    4    4    0    0  0.48785433753E-01  0.94946647477E-01 -0.31173750256E-01  0.11120678145E+00  0.51100000000E-03 0.  1.
</event>
<event>
 8    1  0.1091347E+005  0.1043930E+01  0.7957747E-01            NaN
         13   -1    0    0    0    0  0.00000000000E+00  0.00000000000E+00  0.74505805969E-08  0.10566000000E+00  0.10566000000E+00 0. -1.
     999900   -1    0    0    0    0 -0.00000000000E+00 -0.00000000000E+00 -0.74505805969E-08  0.93827000000E+00  0.93827000000E+00 0. -1.
     999902    2    1    2    0    0  0.84257381202E-03 -0.67945033875E-02  0.20671092967E-01  0.10221545714E+01  0.10219225991E+01 0.  0.
     999903    2    3    3    0    0 -0.11296498838E+00  0.37577460580E-02 -0.62814312918E-01  0.13084467905E+00  0.19987067655E-01 0.  0.
         14    1    1    2    0    0 -0.84257381202E-03  0.67945033875E-02 -0.20671092967E-01  0.21775428614E-01  0.00000000000E+00 0.  1.
     999901    1    3    3    0    0  0.11380756219E+00 -0.10552249446E-01  0.83485405884E-01  0.89130989234E+00  0.88000000000E+00 0. -1.
        -11    1    4    4    0    0 -0.90490890969E-01  0.11011432592E-01 -0.49863249401E-01  0.10390600444E+00  0.51100000000E-03 0.  1.
         11    1    4    4    0    0 -0.22474097410E-01 -0.72536865338E-02 -0.12951063516E-01  0.26938674613E-01  0.51100000000E-03 0. -1.
</event>
<event>
 8    1  0.1091347E+005  0.1043930E+01  0.7957747E-01            NaN
         13   -1    0    0    0    0  0.00000000000E+00  0.00000000000E+00  0.74505805969E-08  0.10566000000E+00  0.10566000000E+00 0. -1.
     999900   -1    0    0    0    0 -0.00000000000E+00 -0.00000000000E+00 -0.74505805969E-08  0.93827000000E+00  0.93827000000E+00 0.  1.
     999902    2    1    2    0    0 -0.21975215805E-01 -0.58573053586E-02  0.64147312405E-02  0.10203002113E+01  0.10200265459E+01 0.  0.
     999903    2    3    3    0    0 -0.19068058157E-01  0.95967625499E-01  0.84712365845E-01  0.13097052685E+00  0.20092734768E-01 0.  0.
         14    1    1    2    0    0  0.21975215805E-01  0.58573053586E-02 -0.64147312405E-02  0.23629788671E-01  0.00000000000E+00 0.  1.
     999901    1    3    3    0    0 -0.29071576482E-02 -0.10182493086E+00 -0.78297634605E-01  0.88932968448E+00  0.88000000000E+00 0. -1.
        -11    1    4    4    0    0 -0.58458248670E-02  0.69460815105E-01  0.65551659446E-01  0.95688346629E-01  0.51100000000E-03 0. -1.
         11    1    4    4    0    0 -0.13222233290E-01  0.26506810394E-01  0.19160706399E-01  0.35282180221E-01  0.51100000000E-03 0.  1.
</event>
<event>
 8    1  0.1091347E+005  0.1043930E+01  0.7957747E-01            NaN
         13   -1    0    0    0    0  0.00000000000E+00  0.00000000000E+00  0.74505805969E-08  0.10566000000E+00  0.10566000000E+00 0.  1.
     999900   -1    0    0    0    0 -0.00000000000E+00 -0.00000000000E+00 -0.74505805969E-08  0.93827000000E+00  0.93827000000E+00 0.  1.
     999902    2    1    2    0    0 -0.89088787199E-02 -0.18842993641E-01  0.11193352748E-01  0.10202716468E+01  0.10199973116E+01 0.  0.
     999903    2    3    3    0    0 -0.64539108209E-01  0.10762378217E+00  0.24711439914E-01  0.12938932771E+00  0.19564454655E-01 0.  0.
         14    1    1    2    0    0  0.89088787199E-02  0.18842993641E-01 -0.11193352748E-01  0.23658353179E-01  0.00000000000E+00 0. -1.
     999901    1    3    3    0    0  0.55630229489E-01 -0.12646677581E+00 -0.13518087166E-01  0.89088231911E+00  0.88000000000E+00 0.  1.
        -11    1    4    4    0    0 -0.40896368937E-01  0.81994839501E-01  0.23016121488E-01  0.94475762323E-01  0.51100000000E-03 0.  1.
         11    1    4    4    0    0 -0.23642739272E-01  0.25628942672E-01  0.16953184256E-02  0.34913565391E-01  0.51100000000E-03 0. -1.
</event>
<event>
 8    1  0.1091347E+005  0.1043930E+01  0.7957747E-01            NaN
         13   -1    0    0    0    0  0.00000000000E+00  0.00000000000E+00  0.74505805969E-08  0.10566000000E+00  0.10566000000E+00 0.  1.
     999900   -1    0    0    0    0 -0.00000000000E+00 -0.00000000000E+00 -0.74505805969E-08  0.93827000000E+00  0.93827000000E+00 0.  1.
     999902    2    1    2    0    0 -0.22762129859E-01 -0.25253814337E-02 -0.10065123887E-01  0.10189140286E+01  0.10186068912E+01 0.  0.
     999903    2    3    3    0    0 -0.11066945095E+00  0.43970155900E-01  0.51037375131E-01  0.13120740617E+00  0.20723604646E-01 0.  0.
         14    1    1    2    0    0  0.22762129859E-01  0.25253814337E-02  0.10065123887E-01  0.25015971417E-01  0.00000000000E+00 0. -1.
     999901    1    3    3    0    0  0.87907321091E-01 -0.46495537334E-01 -0.61102499019E-01  0.88770662242E+00  0.88000000000E+00 0. -1.
        -11    1    4    4    0    0 -0.46264404391E-01  0.29285998138E-01  0.25146799470E-01  0.60255186044E-01  0.51100000000E-03 0.  1.
         11    1    4    4    0    0 -0.64405046559E-01  0.14684157763E-01  0.25890575661E-01  0.70952220124E-01  0.51100000000E-03 0. -1.
</event>
<event>
 8    1  0.1091347E+005  0.1043930E+01  0.7957747E-01            NaN
         13   -1    0    0    0    0  0.00000000000E+00  0.00000000000E+00  0.74505805969E-08  0.10566000000E+00  0.10566000000E+00 0. -1.
     999900   -1    0    0    0    0 -0.00000000000E+00 -0.00000000000E+00 -0.74505805969E-08  0.93827000000E+00  0.93827000000E+00 0.  1.
     999902    2    1    2    0    0  0.10198637109E-01  0.12696642064E-01 -0.17168617358E-01  0.10202661385E+01  0.10199916740E+01 0.  0.
     999903    2    3    3    0    0  0.99748857627E-01 -0.70419033370E-01 -0.43991900375E-01  0.13142028798E+00  0.20671960115E-01 0.  0.
         14    1    1    2    0    0 -0.10198637109E-01 -0.12696642064E-01  0.17168617358E-01  0.23663861489E-01  0.00000000000E+00 0. -1.
     999901    1    3    3    0    0 -0.89550220519E-01  0.83115675434E-01  0.26823283017E-01  0.88884585053E+00  0.88000000000E+00 0.  1.
        -11    1    4    4    0    0  0.61959496107E-01 -0.54344182356E-01 -0.33988423667E-01  0.89150117096E-01  0.51100000000E-03 0. -1.
         11    1    4    4    0    0  0.37789361520E-01 -0.16074851015E-01 -0.10003476708E-01  0.42270170883E-01  0.51100000000E-03 0.  1.
</event>
<event>
 8    1  0.1091347E+005  0.1043930E+01  0.7957747E-01            NaN
         13   -1    0    0    0    0  0.00000000000E+00  0.00000000000E+00  0.74505805969E-08  0.10566000000E+00  0.10566000000E+00 0.  1.
     999900   -1    0    0    0    0 -0.00000000000E+00 -0.00000000000E+00 -0.74505805969E-08  0.93827000000E+00  0.93827000000E+00 0.  1.
     999902    2    1    2    0    0 -0.10350514496E-01  0.50956694268E-02  0.17900646126E-01  0.10226337062E+01  0.10224119351E+01 0.  0.
     999903    2    3    3    0    0  0.82234953291E-01  0.48257102649E-01 -0.86901839231E-01  0.13054708536E+00  0.19981900226E-01 0.  0.
         14    1    1    2    0    0  0.10350514496E-01 -0.50956694268E-02 -0.17900646126E-01  0.21296293785E-01  0.00000000000E+00 0. -1.
     999901    1    3    3    0    0 -0.92585467787E-01 -0.43161433222E-01  0.10480248536E+00  0.89208662085E+00  0.88000000000E+00 0.  1.
        -11    1    4    4    0    0  0.66253312192E-01  0.39261242447E-01 -0.79721189420E-01  0.11084527820E+00  0.51100000000E-03 0. -1.
         11    1    4    4    0    0  0.15981641099E-01  0.89958602021E-02 -0.71806498112E-02  0.19701807169E-01  0.51100000000E-03 0.  1.
</event>
<event>
 8    1  0.1091347E+005  0.1043930E+01  0.7957747E-01            NaN
         13   -1    0    0    0    0  0.00000000000E+00  0.00000000000E+00  0.74505805969E-08  0.10566000000E+00  0.10566000000E+00 0.  1.
     999900   -1    0    0    0    0 -0.00000000000E+00 -0.00000000000E+00 -0.74505805969E-08  0.93827000000E+00  0.93827000000E+00 0. -1.
     999902    2    1    2    0    0  0.10539795534E-01  0.17974029230E-01  0.11535533975E-01  0.10201135863E+01  0.10198355296E+01 0.  0.
     999903    2    3    3    0    0  0.42292309926E-02  0.56462580487E-01 -0.11546707553E+00  0.13014119651E+00  0.19954350570E-01 0.  0.
         14    1    1    2    0    0 -0.10539795534E-01 -0.17974029230E-01 -0.11535533975E-01  0.23816413684E-01  0.00000000000E+00 0. -1.
     999901    1    3    3    0    0  0.63105645409E-02 -0.38488551257E-01  0.12700260950E+00  0.88997238981E+00  0.88000000000E+00 0.  1.
        -11    1    4    4    0    0  0.11514046997E-01  0.35157637909E-01 -0.79780008519E-01  0.87941706044E-01  0.51100000000E-03 0. -1.
         11    1    4    4    0    0 -0.72848160046E-02  0.21304942578E-01 -0.35687067011E-01  0.42199490463E-01  0.51100000000E-03 0.  1.
</event>
<event>
 8    1  0.1091347E+005  0.1043930E+01  0.7957747E-01            NaN
         13   -1    0    0    0    0  0.00000000000E+00  0.00000000000E+00  0.74505805969E-08  0.10566000000E+00  0.10566000000E+00 0.  1.
     999900   -1    0    0    0    0 -0.00000000000E+00 -0.00000000000E+00 -0.74505805969E-08  0.93827000000E+00  0.93827000000E+00 0. -1.
     999902    2    1    2    0    0 -0.15644575548E-01 -0.16398701093E-01 -0.40936837761E-02  0.10208989690E+01  0.10206391510E+01 0.  0.
     999903    2    3    3    0    0  0.43924651329E-01 -0.94357022153E-01  0.78010790376E-01  0.13164808355E+00  0.20320232867E-01 0.  0.
         14    1    1    2    0    0  0.15644575548E-01  0.16398701093E-01  0.40936837761E-02  0.23031030990E-01  0.00000000000E+00 0.  1.
     999901    1    3    3    0    0 -0.59569226877E-01  0.77958321060E-01 -0.82104474152E-01  0.88925088546E+00  0.88000000000E+00 0. -1.
        -11    1    4    4    0    0  0.59186400379E-02 -0.17688212594E-01  0.24214029007E-01  0.30569322636E-01  0.51100000000E-03 0.  1.
         11    1    4    4    0    0  0.38006011291E-01 -0.76668809559E-01  0.53796761369E-01  0.10107876092E+00  0.51100000000E-03 0. -1.
</event>
<event>
 8    1  0.1091347E+005  0.1043930E+01  0.7957747E-01            NaN
         13   -1    0    0    0    0  0.00000000000E+00  0.00000000000E+00  0.74505805969E-08  0.10566000000E+00  0.10566000000E+00 0.  1.
     999900   -1    0    0    0    0 -0.00000000000E+00 -0.00000000000E+00 -0.74505805969E-08  0.93827000000E+00  0.93827000000E+00 0.  1.
     999902    2    1    2    0    0  0.43786428919E-02 -0.10291644894E-01  0.19211317737E-01  0.10217001732E+01  0.10214583099E+01 0.  0.
     999903    2    3    3    0    0 -0.12650176541E+00  0.23751499312E-01  0.16851365993E-01  0.13136642329E+00  0.20157833728E-01 0.  0.
         14    1    1    2    0    0 -0.43786428919E-02  0.10291644894E-01 -0.19211317737E-01  0.22229826751E-01  0.00000000000E+00 0. -1.
     999901    1    3    3    0    0  0.13088040830E+00 -0.34043144207E-01  0.23599517437E-02  0.89033374996E+00  0.88000000000E+00 0. -1.
        -11    1    4    4    0    0 -0.88359447116E-01  0.16420627088E-01  0.23512945678E-02  0.89904497083E-01  0.51100000000E-03 0.  1.
         11    1    4    4    0    0 -0.38142318294E-01  0.73308722240E-02  0.14500071425E-01  0.41461926206E-01  0.51100000000E-03 0. -1.
</event>
<event>
 8    1  0.1091347E+005  0.1043930E+01  0.7957747E-01            NaN
         13   -1    0    0    0    0  0.00000000000E+00  0.00000000000E+00  0.74505805969E-08  0.10566000000E+00  0.10566000000E+00 0.  1.
     999900   -1    0    0    0    0 -0.00000000000E+00 -0.00000000000E+00 -0.74505805969E-08  0.93827000000E+00  0.93827000000E+00 0.  1.
     999902    2    1    2    0    0  0.33542298199E-02  0.91902929195E-02  0.21604289341E-01  0.10202138102E+01  0.10199381162E+01 0.  0.
     999903    2    3    3    0    0 -0.64263065916E-01 -0.10984360016E+00 -0.87615164703E-02  0.12911154414E+00  0.19941627856E-01 0.  0.
         14    1    1    2    0    0 -0.33542298199E-02 -0.91902929195E-02 -0.21604289341E-01  0.23716189819E-01  0.00000000000E+00 0. -1.
     999901    1    3    3    0    0  0.67617295736E-01  0.11903389308E+00  0.30365805811E-01  0.89110226604E+00  0.88000000000E+00 0.  1.
        -11    1    4    4    0    0 -0.52116310680E-01 -0.71866880150E-01 -0.30433847094E-02  0.88828382924E-01  0.51100000000E-03 0. -1.
         11    1    4    4    0    0 -0.12146755236E-01 -0.37976720011E-01 -0.57181317609E-02  0.40283161214E-01  0.51100000000E-03 0.  1.
</event>
<event>
 8    1  0.1091347E+005  0.1043930E+01  0.7957747E-01            NaN
         13   -1    0    0    0    0  0.00000000000E+00  0.00000000000E+00  0.74505805969E-08  0.10566000000E+00  0.10566000000E+00 0. -1.
     999900   -1    0    0    0    0 -0.00000000000E+00 -0.00000000000E+00 -0.74505805969E-08  0.93827000000E+00  0.93827000000E+00 0. -1.
     999902    2    1    2    0    0  0.17444098994E-01 -0.14127569073E-01 -0.63888171599E-02  0.10205911529E+01  0.10203242620E+01 0.  0.
     999903    2    3    3    0    0 -0.86380427559E-01 -0.71324928412E-01 -0.63392449718E-01  0.13081562824E+00  0.23351707240E-01 0.  0.
         14    1    1    2    0    0 -0.17444098994E-01  0.14127569073E-01  0.63888171599E-02  0.23338847065E-01  0.00000000000E+00 0.  1.
     999901    1    3    3    0    0  0.10382452655E+00  0.57197359339E-01  0.57003632558E-01  0.88977552470E+00  0.88000000000E+00 0. -1.
        -11    1    4    4    0    0 -0.27723200347E-01 -0.34459503968E-01 -0.32878688106E-01  0.55111727461E-01  0.51100000000E-03 0.  1.
         11    1    4    4    0    0 -0.58657227213E-01 -0.36865424445E-01 -0.30513761612E-01  0.75703900774E-01  0.51100000000E-03 0. -1.
</event>
<event>
 8    1  0.1091347E+005  0.1043930E+01  0.7957747E-01            NaN
         13   -1    0    0    0    0  0.00000000000E+00  0.00000000000E+00  0.74505805969E-08  0.10566000000E+00  0.10566000000E+00 0.  1.
     999900   -1    0    0    0    0 -0.00000000000E+00 -0.00000000000E+00 -0.74505805969E-08  0.93827000000E+00  0.93827000000E+00 0.  1.
     999902    2    1    2    0    0  0.20698873490E-01 -0.36139675503E-02  0.10814405385E-01  0.10202983372E+01  0.10200246278E+01 0.  0.
     999903    2    3    3    0    0 -0.11304197808E+00 -0.14812547339E-01  0.57629936151E-01  0.12889286404E+00  0.17154022625E-01 0.  0.
         14    1    1    2    0    0 -0.20698873490E-01  0.36139675503E-02 -0.10814405385E-01  0.23631662850E-01  0.00000000000E+00 0.  1.
     999901    1    3    3    0    0  0.13374085157E+00  0.11198579789E-01 -0.46815530767E-01  0.89140547311E+00  0.88000000000E+00 0.  1.
        -11    1    4    4    0    0 -0.41395369954E-01  0.25419267466E-02  0.23272799997E-01  0.47559671844E-01  0.51100000000E-03 0. -1.
         11    1    4    4    0    0 -0.71646608129E-01 -0.17354474086E-01  0.34357136155E-01  0.81333192197E-01  0.51100000000E-03 0.  1.
</event>
<event>
 8    1  0.1091347E+005  0.1043930E+01  0.7957747E-01            NaN
         13   -1    0    0    0    0  0.00000000000E+00  0.00000000000E+00  0.74505805969E-08  0.10566000000E+00  0.10566000000E+00 0.  1.
     999900   -1    0    0    0    0 -0.00000000000E+00 -0.00000000000E+00 -0.74505805969E-08  0.93827000000E+00  0.93827000000E+00 0. -1.
     999902    2    1    2    0    0 -0.83000493024E-02  0.14983994411E-01 -0.15569823698E-01  0.10207819911E+01  0.10205194966E+01 0.  0.
     999903    2    3    3    0    0 -0.91112612068E-01  0.64191540214E-02 -0.94819225841E-01  0.13330706480E+00  0.20913496107E-01 0.  0.
         14    1    1    2    0    0  0.83000493024E-02 -0.14983994411E-01  0.15569823698E-01  0.23148008919E-01  0.00000000000E+00 0.  1.
     999901    1    3    3    0    0  0.82812562766E-01  0.85648403899E-02  0.79249402143E-01  0.88747492628E+00  0.88000000000E+00 0.  1.
        -11    1    4    4    0    0 -0.83678918940E-01  0.56471224189E-02 -0.93664796646E-01  0.12572750979E+00  0.51100000000E-03 0. -1.
         11    1    4    4    0    0 -0.74336931279E-02  0.77203160244E-03 -0.11544291951E-02  0.75795550055E-02  0.51100000000E-03 0.  1.
</event>
<event>
 8    1  0.1091347E+005  0.1043930E+01  0.7957747E-01            NaN
         13   -1    0    0    0    0  0.00000000000E+00  0.00000000000E+00  0.74505805969E-08  0.10566000000E+00  0.10566000000E+00 0. -1.
     999900   -1    0    0    0    0 -0.00000000000E+00 -0.00000000000E+00 -0.74505805969E-08  0.93827000000E+00  0.93827000000E+00 0. -1.
     999902    2    1    2    0    0 -0.17258539425E-01 -0.11405243646E-01 -0.88643768572E-02  0.10214241354E+01  0.10211761603E+01 0.  0.
     999903    2    3    3    0    0  0.55934608323E-01  0.75497881122E-01  0.86238042397E-01  0.12903752626E+00  0.19623270994E-01 0.  0.
         14    1    1    2    0    0  0.17258539425E-01  0.11405243646E-01  0.88643768572E-02  0.22505864630E-01  0.00000000000E+00 0. -1.
     999901    1    3    3    0    0 -0.73193147748E-01 -0.86903124768E-01 -0.95102419254E-01  0.89238660911E+00  0.88000000000E+00 0. -1.
        -11    1    4    4    0    0  0.54944837031E-01  0.71488688867E-01  0.75777305406E-01  0.11777957755E+00  0.51100000000E-03 0. -1.
         11    1    4    4    0    0  0.98977129232E-03  0.40091922552E-02  0.10460736991E-01  0.11257948709E-01  0.51100000000E-03 0.  1.
</event>
<event>
 8    1  0.1091347E+005  0.1043930E+01  0.7957747E-01            NaN
         13   -1    0    0    0    0  0.00000000000E+00  0.00000000000E+00  0.74505805969E-08  0.10566000000E+00  0.10566000000E+00 0.  1.
     999900   -1    0    0    0    0 -0.00000000000E+00 -0.00000000000E+00 -0.74505805969E-08  0.93827000000E+00  0.93827000000E+00 0.  1.
     999902    2    1    2    0    0 -0.63999639076E-02 -0.17853990817E-02 -0.21586840917E-01  0.10213437456E+01  0.10210939760E+01 0.  0.
     999903    2    3    3    0    0 -0.79688497584E-01  0.66570878997E-01 -0.81777840712E-01  0.13361251014E+00  0.19563973445E-01 0.  0.
         14    1    1    2    0    0  0.63999639076E-02  0.17853990817E-02  0.21586840917E-01  0.22586254418E-01  0.00000000000E+00 0. -1.
     999901    1    3    3    0    0  0.73288533676E-01 -0.68356278079E-01  0.60190999795E-01  0.88773123544E+00  0.88000000000E+00 0.  1.
        -11    1    4    4    0    0 -0.64922536808E-02  0.98560470829E-03 -0.97348566775E-02  0.11753694314E-01  0.51100000000E-03 0. -1.
         11    1    4    4    0    0 -0.73196243903E-01  0.65585274289E-01 -0.72042984034E-01  0.12185881583E+00  0.51100000000E-03 0.  1.
</event>
<event>
 8    1  0.1091347E+005  0.1043930E+01  0.7957747E-01            NaN
         13   -1    0    0    0    0  0.00000000000E+00  0.00000000000E+00  0.74505805969E-08  0.10566000000E+00  0.10566000000E+00 0. -1.
     999900   -1    0    0    0    0 -0.00000000000E+00 -0.00000000000E+00 -0.74505805969E-08  0.93827000000E+00  0.93827000000E+00 0.  1.
     999902    2    1    2    0    0 -0.16745918319E-01  0.15950756743E-01  0.61244240765E-02  0.10200059328E+01  0.10197253267E+01 0.  0.
     999903    2    3    3    0    0 -0.10907392820E-01 -0.40155525019E-01  0.12185589583E+00  0.13063774314E+00  0.22043665189E-01 0.  0.
         14    1    1    2    0    0  0.16745918319E-01 -0.15950756743E-01 -0.61244240765E-02  0.23924067198E-01  0.00000000000E+00 0.  1.
     999901    1    3    3    0    0 -0.58385254985E-02  0.56106281762E-01 -0.11573147176E+00  0.88936818967E+00  0.88000000000E+00 0.  1.
        -11    1    4    4    0    0  0.16472888795E-02 -0.29158814849E-01  0.62693639419E-01  0.69164323091E-01  0.51100000000E-03 0. -1.
         11    1    4    4    0    0 -0.12554681700E-01 -0.10996710170E-01  0.59162256414E-01  0.61473420046E-01  0.51100000000E-03 0.  1.
</event>
<event>
 8    1  0.1091347E+005  0.1043930E+01  0.7957747E-01            NaN
         13   -1    0    0    0    0  0.00000000000E+00  0.00000000000E+00  0.74505805969E-08  0.10566000000E+00  0.10566000000E+00 0. -1.
     999900   -1    0    0    0    0 -0.00000000000E+00 -0.00000000000E+00 -0.74505805969E-08  0.93827000000E+00  0.93827000000E+00 0. -1.
     999902    2    1    2    0    0  0.14505775981E-01  0.57802643232E-02 -0.17402206847E-01  0.10205491147E+01  0.10202812503E+01 0.  0.
     999903    2    3    3    0    0 -0.79314489997E-01  0.82395910055E-01  0.58354139723E-01  0.12902725661E+00  0.12765304833E-01 0.  0.
         14    1    1    2    0    0 -0.14505775981E-01 -0.57802643232E-02  0.17402206847E-01  0.23380885262E-01  0.00000000000E+00 0. -1.
     999901    1    3    3    0    0  0.93820265979E-01 -0.76615645732E-01 -0.75756346570E-01  0.89152185813E+00  0.88000000000E+00 0. -1.
        -11    1    4    4    0    0 -0.72302417821E-01  0.69520475244E-01  0.49046493672E-01  0.11165373153E+00  0.51100000000E-03 0.  1.
         11    1    4    4    0    0 -0.70120721761E-02  0.12875434811E-01  0.93076460510E-02  0.17373525082E-01  0.51100000000E-03 0. -1.
</event>
<event>
 8    1  0.1091347E+005  0.1043930E+01  0.7957747E-01            NaN
         13   -1    0    0    0    0  0.00000000000E+00  0.00000000000E+00  0.74505805969E-08  0.10566000000E+00  0.10566000000E+00 0.  1.
     999900   -1    0    0    0    0 -0.00000000000E+00 -0.00000000000E+00 -0.74505805969E-08  0.93827000000E+00  0.93827000000E+00 0.  1.
     999902    2    1    2    0    0  0.27948551207E-02 -0.14876652173E-01  0.22603128879E-01  0.10167265548E+01  0.10163625632E+01 0.  0.
     999903    2    3    3    0    0 -0.23232628445E-01  0.70016964071E-01 -0.97359172440E-01  0.12415985718E+00  0.22242558196E-01 0.  0.
         14    1    1    2    0    0 -0.27948551207E-02  0.14876652173E-01 -0.22603128879E-01  0.27203445188E-01  0.00000000000E+00 0. -1.
     999901    1    3    3    0    0  0.26027483566E-01 -0.84893616244E-01  0.11996230132E+00  0.89256669763E+00  0.88000000000E+00 0.  1.
        -11    1    4    4    0    0 -0.13195235457E-01  0.13201375289E-01 -0.17140141992E-01  0.25346323930E-01  0.51100000000E-03 0. -1.
         11    1    4    4    0    0 -0.10037392988E-01  0.56815588782E-01 -0.80219030448E-01  0.98813533251E-01  0.51100000000E-03 0.  1.
</event>
<event>
 8    1  0.1091347E+005  0.1043930E+01  0.7957747E-01            NaN
         13   -1    0    0    0    0  0.00000000000E+00  0.00000000000E+00  0.74505805969E-08  0.10566000000E+00  0.10566000000E+00 0. -1.
     999900   -1    0    0    0    0 -0.00000000000E+00 -0.00000000000E+00 -0.74505805969E-08  0.93827000000E+00  0.93827000000E+00 0. -1.
     999902    2    1    2    0    0  0.15659645357E-02 -0.32504475889E-02  0.23700474915E-01  0.10199564695E+01  0.10196746881E+01 0.  0.
     999903    2    3    3    0    0 -0.67039416603E-01  0.10668718528E+00  0.27092385166E-01  0.13045970923E+00  0.20231152127E-01 0.  0.
         14    1    1    2    0    0 -0.15659645357E-02  0.32504475889E-02 -0.23700474915E-01  0.23973530521E-01  0.00000000000E+00 0.  1.
     999901    1    3    3    0    0  0.68605381139E-01 -0.10993763287E+00 -0.33919102513E-02  0.88949676025E+00  0.88000000000E+00 0.  1.
        -11    1    4    4    0    0 -0.38926821817E-01  0.51549332835E-01  0.51923349601E-02  0.64806270035E-01  0.51100000000E-03 0.  1.
         11    1    4    4    0    0 -0.28112594787E-01  0.55137852444E-01  0.21900050206E-01  0.65653439193E-01  0.51100000000E-03 0. -1.
</event>
<event>
 8    1  0.1091347E+005  0.1043930E+01  0.7957747E-01            NaN
         13   -1    0    0    0    0  0.00000000000E+00  0.00000000000E+00  0.74505805969E-08  0.10566000000E+00  0.10566000000E+00 0. -1.
     999900   -1    0    0    0    0 -0.00000000000E+00 -0.00000000000E+00 -0.74505805969E-08  0.93827000000E+00  0.93827000000E+00 0.  1.
     999902    2    1    2    0    0  0.11020291998E-01  0.18395749618E-01  0.93891450306E-02  0.10205204617E+01  0.10202519327E+01 0.  0.
     999903    2    3    3    0    0  0.27436050103E-01 -0.11260975157E+00 -0.52001355036E-01  0.12855593775E+00  0.19717890638E-01 0.  0.
         14    1    1    2    0    0 -0.11020291998E-01 -0.18395749618E-01 -0.93891450306E-02  0.23409538315E-01  0.00000000000E+00 0. -1.
     999901    1    3    3    0    0 -0.16415758105E-01  0.13100550119E+00  0.61390500067E-01  0.89196452393E+00  0.88000000000E+00 0. -1.
        -11    1    4    4    0    0  0.17734976222E-01 -0.39174803745E-01 -0.24806785946E-01  0.49647078263E-01  0.51100000000E-03 0. -1.
         11    1    4    4    0    0  0.97010738802E-02 -0.73434947827E-01 -0.27194569090E-01  0.78908859489E-01  0.51100000000E-03 0.  1.
</event>
<event>
 8    1  0.1091347E+005  0.1043930E+01  0.7957747E-01            NaN
         13   -1    0    0    0    0  0.00000000000E+00  0.00000000000E+00  0.74505805969E-08  0.10566000000E+00  0.10566000000E+00 0. -1.
     999900   -1    0    0    0    0 -0.00000000000E+00 -0.00000000000E+00 -0.74505805969E-08  0.93827000000E+00  0.93827000000E+00 0.  1.
     999902    2    1    2    0    0 -0.18661170815E-02  0.88461962516E-02  0.23050738754E-01  0.10191696660E+01  0.10188688503E+01 0.  0.
     999903    2    3    3    0    0  0.95036080430E-01  0.63447408727E-01 -0.55715449271E-01  0.12867798125E+00  0.19909327311E-01 0.  0.
         14    1    1    2    0    0  0.18661170815E-02 -0.88461962516E-02 -0.23050738754E-01  0.24760333968E-01  0.00000000000E+00 0.  1.
     999901    1    3    3    0    0 -0.96902197512E-01 -0.54601212475E-01  0.78766188025E-01  0.89049168478E+00  0.88000000000E+00 0. -1.
        -11    1    4    4    0    0  0.25477852034E-01  0.26388051267E-01 -0.23287658705E-01  0.43451425326E-01  0.51100000000E-03 0. -1.
         11    1    4    4    0    0  0.69558228397E-01  0.37059357459E-01 -0.32427790566E-01  0.85226555926E-01  0.51100000000E-03 0.  1.
</event>
<event>
 8    1  0.1091347E+005  0.1043930E+01  0.7957747E-01            NaN
         13   -1    0    0    0    0  0.00000000000E+00  0.00000000000E+00  0.74505805969E-08  0.10566000000E+00  0.10566000000E+00 0.  1.
     999900   -1    0    0    0    0 -0.00000000000E+00 -0.00000000000E+00 -0.74505805969E-08  0.93827000000E+00  0.93827000000E+00 0.  1.
     999902    2    1    2    0    0 -0.15379327100E-01  0.15290795489E-01  0.79317360099E-02  0.10208379112E+01  0.10205766979E+01 0.  0.
     999903    2    3    3    0    0  0.75267232577E-01 -0.95130030178E-01  0.38363074349E-01  0.12879776420E+00  0.20056411626E-01 0.  0.
         14    1    1    2    0    0  0.15379327100E-01 -0.15290795489E-01 -0.79317360099E-02  0.23092088794E-01  0.00000000000E+00 0. -1.
     999901    1    3    3    0    0 -0.90646559678E-01  0.11042082567E+00 -0.30431338339E-01  0.89204014701E+00  0.88000000000E+00 0. -1.
        -11    1    4    4    0    0  0.35004082977E-01 -0.45919679902E-01  0.78595085472E-02  0.58274658497E-01  0.51100000000E-03 0. -1.
         11    1    4    4    0    0  0.40263149601E-01 -0.49210350276E-01  0.30503565801E-01  0.70523105700E-01  0.51100000000E-03 0.  1.
</event>
<event>
 8    1  0.1091347E+005  0.1043930E+01  0.7957747E-01            NaN
         13   -1    0    0    0    0  0.00000000000E+00  0.00000000000E+00  0.74505805969E-08  0.10566000000E+00  0.10566000000E+00 0. -1.
     999900   -1    0    0    0    0 -0.00000000000E+00 -0.00000000000E+00 -0.74505805969E-08  0.93827000000E+00  0.93827000000E+00 0.  1.
     999902    2    1    2    0    0  0.18828819373E-02  0.12961019275E-01 -0.29748220933E-01  0.10114263092E+01  0.10109038971E+01 0.  0.
     999903    2    3    3    0    0 -0.98717055869E-03 -0.63470602111E-01  0.98360743242E-01  0.11886710299E+00  0.20616995973E-01 0.  0.
         14    1    1    2    0    0 -0.18828819373E-02 -0.12961019275E-01  0.29748220933E-01  0.32503690770E-01  0.00000000000E+00 0. -1.
     999901    1    3    3    0    0  0.28700524960E-02  0.76431621386E-01 -0.12810896418E+00  0.89255920624E+00  0.88000000000E+00 0.  1.
        -11    1    4    4    0    0  0.55114463261E-02 -0.54705867675E-01  0.74206685570E-01  0.92358006166E-01  0.51100000000E-03 0.  1.
         11    1    4    4    0    0 -0.64986168848E-02 -0.87647344364E-02  0.24154057673E-01  0.26509096820E-01  0.51100000000E-03 0. -1.
</event>
<event>
 8    1  0.1091347E+005  0.1043930E+01  0.7957747E-01            NaN
         13   -1    0    0    0    0  0.00000000000E+00  0.00000000000E+00  0.74505805969E-08  0.10566000000E+00  0.10566000000E+00 0. -1.
     999900   -1    0    0    0    0 -0.00000000000E+00 -0.00000000000E+00 -0.74505805969E-08  0.93827000000E+00  0.93827000000E+00 0.  1.
     999902    2    1    2    0    0 -0.22793518722E-01  0.60418292263E-03  0.10999752401E-01  0.10186139165E+01  0.10182992717E+01 0.  0.
     999903    2    3    3    0    0  0.58438940733E-01  0.55905344528E-01 -0.95283014475E-01  0.12678828470E+00  0.21351790271E-01 0.  0.
         14    1    1    2    0    0  0.22793518722E-01 -0.60418292263E-03 -0.10999752401E-01  0.25316083536E-01  0.00000000000E+00 0.  1.
     999901    1    3    3    0    0 -0.81232459455E-01 -0.55301161605E-01  0.10628276688E+00  0.89182563177E+00  0.88000000000E+00 0. -1.
        -11    1    4    4    0    0  0.10200239827E-01  0.17532645368E-01 -0.13477593481E-01  0.24358677985E-01  0.51100000000E-03 0. -1.
         11    1    4    4    0    0  0.48238700906E-01  0.38372699160E-01 -0.81805420994E-01  0.10242960671E+00  0.51100000000E-03 0.  1.
</event>
<event>
 8    1  0.1091347E+005  0.1043930E+01  0.7957747E-01            NaN
         13   -1    0    0    0    0  0.00000000000E+00  0.00000000000E+00  0.74505805969E-08  0.10566000000E+00  0.10566000000E+00 0.  1.
     999900   -1    0    0    0    0 -0.00000000000E+00 -0.00000000000E+00 -0.74505805969E-08  0.93827000000E+00  0.93827000000E+00 0. -1.
     999902    2    1    2    0    0  0.14159591246E-01 -0.24814549265E-02  0.19043916567E-01  0.10200695222E+01  0.10197904234E+01 0.  0.
     999903    2    3    3    0    0 -0.18288957888E-01  0.27467793574E-01 -0.12189193298E+00  0.12776196338E+00  0.19403873275E-01 0.  0.
         14    1    1    2    0    0 -0.14159591246E-01  0.24814549265E-02 -0.19043916567E-01  0.23860477803E-01  0.00000000000E+00 0.  1.
     999901    1    3    3    0    0  0.32448549134E-01 -0.29949248501E-01  0.14093584955E+00  0.89230755881E+00  0.88000000000E+00 0.  1.
        -11    1    4    4    0    0 -0.12467866335E-01  0.15077971433E-01 -0.10029611369E+00  0.10218788801E+00  0.51100000000E-03 0. -1.
         11    1    4    4    0    0 -0.58210915532E-02  0.12389822141E-01 -0.21595819292E-01  0.25574075378E-01  0.51100000000E-03 0.  1.
</event>
<event>
 8    1  0.1091347E+005  0.1043930E+01  0.7957747E-01            NaN
         13   -1    0    0    0    0  0.00000000000E+00  0.00000000000E+00  0.74505805969E-08  0.10566000000E+00  0.10566000000E+00 0. -1.
     999900   -1    0    0    0    0 -0.00000000000E+00 -0.00000000000E+00 -0.74505805969E-08  0.93827000000E+00  0.93827000000E+00 0.  1.
     999902    2    1    2    0    0  0.19971638346E-01  0.27688644276E-04 -0.11627744255E-01  0.10208200121E+01  0.10205583891E+01 0.  0.
     999903    2    3    3    0    0  0.12639853895E+00 -0.28146438561E-01  0.23173318337E-01  0.13327757334E+00  0.21379808684E-01 0.  0.
         14    1    1    2    0    0 -0.19971638346E-01 -0.27688644276E-04  0.11627744255E-01  0.23109987913E-01  0.00000000000E+00 0.  1.
     999901    1    3    3    0    0 -0.10642690061E+00  0.28174127205E-01 -0.34801062592E-01  0.88754243875E+00  0.88000000000E+00 0.  1.
        -11    1    4    4    0    0  0.28812107036E-01 -0.10882679553E-01  0.13733554394E-01  0.33725982023E-01  0.51100000000E-03 0. -1.
         11    1    4    4    0    0  0.97586431919E-01 -0.17263759008E-01  0.94397639435E-02  0.99551591318E-01  0.51100000000E-03 0.  1.
</event>
<event>
 8    1  0.1091347E+005  0.1043930E+01  0.7957747E-01            NaN
         13   -1    0    0    0    0  0.00000000000E+00  0.00000000000E+00  0.74505805969E-08  0.10566000000E+00  0.10566000000E+00 0.  1.
     999900   -1    0    0    0    0 -0.00000000000E+00 -0.00000000000E+00 -0.74505805969E-08  0.93827000000E+00  0.93827000000E+00 0.  1.
     999902    2    1    2    0    0 -0.12731766320E-02 -0.24054521494E-01  0.13080914839E-01  0.10165192117E+01  0.10161495738E+01 0.  0.
     999903    2    3    3    0    0  0.89380993139E-01  0.82500368577E-01  0.23383443583E-01  0.12540851980E+00  0.19627497410E-01 0.  0.
         14    1    1    2    0    0  0.12731766320E-02  0.24054521494E-01 -0.13080914839E-01  0.27410788315E-01  0.00000000000E+00 0. -1.
     999901    1    3    3    0    0 -0.90654169771E-01 -0.10655489007E+00 -0.10302528744E-01  0.89111069189E+00  0.88000000000E+00 0.  1.
        -11    1    4    4    0    0  0.31475447860E-01  0.17046053444E-01  0.77550396269E-02  0.36628861797E-01  0.51100000000E-03 0.  1.
         11    1    4    4    0    0  0.57905545279E-01  0.65454315133E-01  0.15628403956E-01  0.88779658001E-01  0.51100000000E-03 0. -1.
</event>
<event>
 8    1  0.1091347E+005  0.1043930E+01  0.7957747E-01            NaN
         13   -1    0    0    0    0  0.00000000000E+00  0.00000000000E+00  0.74505805969E-08  0.10566000000E+00  0.10566000000E+00 0. -1.
     999900   -1    0    0    0    0 -0.00000000000E+00 -0.00000000000E+00 -0.74505805969E-08  0.93827000000E+00  0.93827000000E+00 0. -1.
     999902    2    1    2    0    0  0.90668472452E-02  0.21216549247E-01  0.81573055674E-02  0.10194577440E+01  0.10191639713E+01 0.  0.
     999903    2    3    3    0    0 -0.93404352898E-01  0.79086451227E-01 -0.40339132698E-01  0.13030017811E+00  0.19283435369E-01 0.  0.
         14    1    1    2    0    0 -0.90668472452E-02 -0.21216549247E-01 -0.81573055674E-02  0.24472256027E-01  0.00000000000E+00 0.  1.
     999901    1    3    3    0    0  0.10247120014E+00 -0.57869901980E-01  0.48496438265E-01  0.88915756587E+00  0.88000000000E+00 0.  1.
        -11    1    4    4    0    0 -0.68340718003E-01  0.48353050371E-01 -0.21740675136E-01  0.86495024676E-01  0.51100000000E-03 0. -1.
         11    1    4    4    0    0 -0.25063634895E-01  0.30733400856E-01 -0.18598457562E-01  0.43805153430E-01  0.51100000000E-03 0.  1.
</event>
<event>
 7    1  0.1091347E+005  0.1043930E+01  0.7957747E-01            NaN
         13   -1    0    0    0    0  0.00000000000E+00  0.00000000000E+00  0.74505805969E-08  0.10566000000E+00  0.10566000000E+00 0.  1.
     999900   -1    0    0    0    0 -0.00000000000E+00 -0.00000000000E+00 -0.74505805969E-08  0.93827000000E+00  0.93827000000E+00 0. -1.
     999903    2    1    2    0    0  0.10272408261E+00 -0.20576773207E-01 -0.19949670018E-01  0.10884467316E+00  0.21760808737E-01 0.  0.
         14    1    1    2    0    0 -0.31494017149E-01 -0.36914635321E-01  0.13295362710E-01  0.50312325395E-01  0.00000000000E+00 0. -1.
     999901    1    1    2    0    0 -0.71230065465E-01  0.57491408528E-01  0.66543073076E-02  0.88477300145E+00  0.88000000000E+00 0. -1.
        -11    1    3    3    0    0  0.77152056805E-01 -0.19866661357E-01 -0.23376605309E-01  0.83029217144E-01  0.51100000000E-03 0. -1.
         11    1    3    3    0    0  0.25572025809E-01 -0.71011185037E-03  0.34269352913E-02  0.25815456016E-01  0.51100000000E-03 0.  1.
</event>
<event>
 8    1  0.1091347E+005  0.1043930E+01  0.7957747E-01            NaN
         13   -1    0    0    0    0  0.00000000000E+00  0.00000000000E+00  0.74505805969E-08  0.10566000000E+00  0.10566000000E+00 0. -1.
     999900   -1    0    0    0    0 -0.00000000000E+00 -0.00000000000E+00 -0.74505805969E-08  0.93827000000E+00  0.93827000000E+00 0. -1.
     999902    2    1    2    0    0  0.80105576309E-02  0.18826913755E-01  0.99105537803E-02  0.10211958673E+01  0.10209427793E+01 0.  0.
     999903    2    3    3    0    0 -0.11463435993E+00 -0.39054677072E-01 -0.40733732625E-01  0.12936802619E+00  0.20261908821E-01 0.  0.
         14    1    1    2    0    0 -0.80105576309E-02 -0.18826913755E-01 -0.99105537803E-02  0.22734132737E-01  0.00000000000E+00 0.  1.
     999901    1    3    3    0    0  0.12264491756E+00  0.57881590827E-01  0.50644286405E-01  0.89182784107E+00  0.88000000000E+00 0. -1.
        -11    1    4    4    0    0 -0.10211845024E+00 -0.32643471785E-01 -0.42207438998E-01  0.11521936972E+00  0.51100000000E-03 0. -1.
         11    1    4    4    0    0 -0.12515909691E-01 -0.64112052872E-02  0.14737063734E-02  0.14148656477E-01  0.51100000000E-03 0.  1.
</event>
<event>
 8    1  0.1091347E+005  0.1043930E+01  0.7957747E-01            NaN
         13   -1    0    0    0    0  0.00000000000E+00  0.00000000000E+00  0.74505805969E-08  0.10566000000E+00  0.10566000000E+00 0. -1.
     999900   -1    0    0    0    0 -0.00000000000E+00 -0.00000000000E+00 -0.74505805969E-08  0.93827000000E+00  0.93827000000E+00 0.  1.
     999902    2    1    2    0    0 -0.14428882154E-01 -0.15382404104E-01  0.10764419684E-01  0.10202512389E+01  0.10199764246E+01 0.  0.
     999903    2    3    3    0    0 -0.96899986083E-02 -0.33970381654E-01  0.12607786094E+00  0.13252089715E+00  0.20451852211E-01 0.  0.
         14    1    1    2    0    0  0.14428882154E-01  0.15382404104E-01 -0.10764419684E-01  0.23678761103E-01  0.00000000000E+00 0.  1.
     999901    1    3    3    0    0 -0.47388835455E-02  0.18587977550E-01 -0.11531344126E+00  0.88773034175E+00  0.88000000000E+00 0.  1.
        -11    1    4    4    0    0 -0.64901250642E-02 -0.15244073828E-01  0.92185173312E-01  0.93663604510E-01  0.51100000000E-03 0.  1.
         11    1    4    4    0    0 -0.31998735441E-02 -0.18726307826E-01  0.33892687629E-01  0.38857292639E-01  0.51100000000E-03 0. -1.
</event>
<event>
 8    1  0.1091347E+005  0.1043930E+01  0.7957747E-01            NaN
         13   -1    0    0    0    0  0.00000000000E+00  0.00000000000E+00  0.74505805969E-08  0.10566000000E+00  0.10566000000E+00 0. -1.
     999900   -1    0    0    0    0 -0.00000000000E+00 -0.00000000000E+00 -0.74505805969E-08  0.93827000000E+00  0.93827000000E+00 0. -1.
     999902    2    1    2    0    0 -0.10742618656E-01 -0.19044785501E-01 -0.85724410458E-02  0.10204439519E+01  0.10201736443E+01 0.  0.
     999903    2    3    3    0    0 -0.19491159319E-01 -0.12816610048E+00  0.22568928640E-01  0.13311437205E+00  0.20090418214E-01 0.  0.
         14    1    1    2    0    0  0.10742618656E-01  0.19044785501E-01  0.85724410458E-02  0.23486048110E-01  0.00000000000E+00 0. -1.
     999901    1    3    3    0    0  0.87485406632E-02  0.10912131498E+00 -0.31141369686E-01  0.88732957984E+00  0.88000000000E+00 0. -1.
        -11    1    4    4    0    0  0.17945492249E-02 -0.49212339688E-01  0.52554806882E-02  0.49527325617E-01  0.51100000000E-03 0. -1.
         11    1    4    4    0    0 -0.21285708544E-01 -0.78953760790E-01  0.17313447952E-01  0.83587046437E-01  0.51100000000E-03 0.  1.
</event>
<event>
 8    1  0.1091347E+005  0.1043930E+01  0.7957747E-01            NaN
         13   -1    0    0    0    0  0.00000000000E+00  0.00000000000E+00  0.74505805969E-08  0.10566000000E+00  0.10566000000E+00 0.  1.
     999900   -1    0    0    0    0 -0.00000000000E+00 -0.00000000000E+00 -0.74505805969E-08  0.93827000000E+00  0.93827000000E+00 0. -1.
     999902    2    1    2    0    0  0.75463781780E-02 -0.21218057017E-01 -0.10816752795E-01  0.10189468875E+01  0.10186405665E+01 0.  0.
     999903    2    3    3    0    0 -0.14050900165E-01 -0.31868219585E-01  0.12215537492E+00  0.12863151918E+00  0.20276116244E-01 0.  0.
         14    1    1    2    0    0 -0.75463781780E-02  0.21218057017E-01  0.10816752795E-01  0.24983112461E-01  0.00000000000E+00 0.  1.
     999901    1    3    3    0    0  0.21597278343E-01  0.10650162568E-01 -0.13297212771E+00  0.89031536836E+00  0.88000000000E+00 0. -1.
        -11    1    4    4    0    0  0.50055337103E-02 -0.63914317838E-02  0.32302328460E-01  0.33310768723E-01  0.51100000000E-03 0.  1.
         11    1    4    4    0    0 -0.19056433875E-01 -0.25476787802E-01  0.89853046455E-01  0.95320750453E-01  0.51100000000E-03 0. -1.
</event>
<event>
 8    1  0.1091347E+005  0.1043930E+01  0.7957747E-01            NaN
         13   -1    0    0    0    0  0.00000000000E+00  0.00000000000E+00  0.74505805969E-08  0.10566000000E+00  0.10566000000E+00 0. -1.
     999900   -1    0    0    0    0 -0.00000000000E+00 -0.00000000000E+00 -0.74505805969E-08  0.93827000000E+00  0.93827000000E+00 0.  1.
     999902    2    1    2    0    0  0.77231987301E-02  0.18153669755E-01 -0.13462090251E-01  0.10200462943E+01  0.10197666454E+01 0.  0.
     999903    2    3    3    0    0 -0.42908188457E-01 -0.69047968578E-01  0.97001440064E-01  0.12742663586E+00  0.14816664635E-01 0.  0.
         14    1    1    2    0    0 -0.77231987301E-02 -0.18153669755E-01  0.13462090251E-01  0.23883705703E-01  0.00000000000E+00 0.  1.
     999901    1    3    3    0    0  0.50631387187E-01  0.87201638333E-01 -0.11046353032E+00  0.89261965844E+00  0.88000000000E+00 0.  1.
        -11    1    4    4    0    0 -0.29411766791E-01 -0.52376243106E-01  0.80046719058E-01  0.10008027388E+00  0.51100000000E-03 0.  1.
         11    1    4    4    0    0 -0.13496421666E-01 -0.16671725472E-01  0.16954721006E-01  0.27346361977E-01  0.51100000000E-03 0. -1.
</event>
<event>
 8    1  0.1091347E+005  0.1043930E+01  0.7957747E-01            NaN
         13   -1    0    0    0    0  0.00000000000E+00  0.00000000000E+00  0.74505805969E-08  0.10566000000E+00  0.10566000000E+00 0.  1.
     999900   -1    0    0    0    0 -0.00000000000E+00 -0.00000000000E+00 -0.74505805969E-08  0.93827000000E+00  0.93827000000E+00 0. -1.
     999902    2    1    2    0    0  0.21790026013E-01 -0.95274479936E-03  0.29704575694E-02  0.10219178085E+01  0.10216807088E+01 0.  0.
     999903    2    3    3    0    0  0.85725447067E-01 -0.77086243734E-01  0.66047289131E-01  0.13407619290E+00  0.17973309438E-01 0.  0.
         14    1    1    2    0    0 -0.21790026013E-01  0.95274479936E-03 -0.29704575694E-02  0.22012191496E-01  0.00000000000E+00 0. -1.
     999901    1    3    3    0    0 -0.63935421055E-01  0.76133498934E-01 -0.63076831561E-01  0.88784161561E+00  0.88000000000E+00 0. -1.
        -11    1    4    4    0    0  0.82934189297E-02 -0.16075669599E-01  0.10557740552E-01  0.20950774620E-01  0.51100000000E-03 0. -1.
         11    1    4    4    0    0  0.77432028138E-01 -0.61010574135E-01  0.55489548579E-01  0.11312541828E+00  0.51100000000E-03 0.  1.
</event>
<event>
 8    1  0.1091347E+005  0.1043930E+01  0.7957747E-01            NaN
         13   -1    0    0    0    0  0.00000000000E+00  0.00000000000E+00  0.74505805969E-08  0.10566000000E+00  0.10566000000E+00 0.  1.
     999900   -1    0    0    0    0 -0.00000000000E+00 -0.00000000000E+00 -0.74505805969E-08  0.93827000000E+00  0.93827000000E+00 0. -1.
     999902    2    1    2    0    0  0.91818079432E-03 -0.22986964426E-01  0.12507340363E-02  0.10208907308E+01  0.10206307248E+01 0.  0.
     999903    2    3    3    0    0  0.11180599900E+00 -0.19556696142E-01 -0.64056467245E-01  0.13152415537E+00  0.17672766376E-01 0.  0.
         14    1    1    2    0    0 -0.91818079432E-03  0.22986964426E-01 -0.12507340363E-02  0.23039269196E-01  0.00000000000E+00 0. -1.
     999901    1    3    3    0    0 -0.11088781821E+00 -0.34302682837E-02  0.65307201282E-01  0.88936657544E+00  0.88000000000E+00 0.  1.
        -11    1    4    4    0    0  0.70230346175E-01 -0.19863145518E-01 -0.36161771925E-01  0.81454164678E-01  0.51100000000E-03 0. -1.
         11    1    4    4    0    0  0.41575652829E-01  0.30644937581E-03 -0.27894695320E-01  0.50069990687E-01  0.51100000000E-03 0.  1.
</event>
<event>
 8    1  0.1091347E+005  0.1043930E+01  0.7957747E-01            NaN
         13   -1    0    0    0    0  0.00000000000E+00  0.00000000000E+00  0.74505805969E-08  0.10566000000E+00  0.10566000000E+00 0.  1.
     999900   -1    0    0    0    0 -0.00000000000E+00 -0.00000000000E+00 -0.74505805969E-08  0.93827000000E+00  0.93827000000E+00 0. -1.
     999902    2    1    2    0    0 -0.15938934550E-01  0.86635273337E-02 -0.14629475767E-01  0.10206248954E+01  0.10203587845E+01 0.  0.
     999903    2    3    3    0    0 -0.27372110092E-01 -0.11832839956E+00 -0.44782549268E-01  0.13092445430E+00  0.19618701823E-01 0.  0.
         14    1    1    2    0    0  0.15938934550E-01 -0.86635273337E-02  0.14629475767E-01  0.23305104627E-01  0.00000000000E+00 0. -1.
     999901    1    3    3    0    0  0.11433175543E-01  0.12699192690E+00  0.30153073501E-01  0.88970044107E+00  0.88000000000E+00 0.  1.
        -11    1    4    4    0    0 -0.14465803212E-01 -0.85242965786E-01 -0.23827952757E-01  0.89686426689E-01  0.51100000000E-03 0.  1.
         11    1    4    4    0    0 -0.12906306880E-01 -0.33085433777E-01 -0.20954596511E-01  0.41238027613E-01  0.51100000000E-03 0. -1.
</event>
<event>
 8    1  0.1091347E+005  0.1043930E+01  0.7957747E-01            NaN
         13   -1    0    0    0    0  0.00000000000E+00  0.00000000000E+00  0.74505805969E-08  0.10566000000E+00  0.10566000000E+00 0.  1.
     999900   -1    0    0    0    0 -0.00000000000E+00 -0.00000000000E+00 -0.74505805969E-08  0.93827000000E+00  0.93827000000E+00 0. -1.
     999902    2    1    2    0    0  0.11418966921E-01  0.14609589272E-01 -0.92878981528E-02  0.10231911968E+01  0.10229810005E+01 0.  0.
     999903    2    3    3    0    0 -0.94409370654E-01 -0.31396329179E-01  0.82849779129E-01  0.13088769851E+00  0.19200129325E-01 0.  0.
         14    1    1    2    0    0 -0.11418966921E-01 -0.14609589272E-01  0.92878981528E-02  0.20738803156E-01  0.00000000000E+00 0.  1.
     999901    1    3    3    0    0  0.10582833757E+00  0.46005918451E-01 -0.92137677282E-01  0.89230349834E+00  0.88000000000E+00 0. -1.
        -11    1    4    4    0    0 -0.55090060046E-01 -0.16867360008E-01  0.35625605499E-01  0.67741179777E-01  0.51100000000E-03 0. -1.
         11    1    4    4    0    0 -0.39319310608E-01 -0.14528969171E-01  0.47224173630E-01  0.63146518732E-01  0.51100000000E-03 0.  1.
</event>
<event>
 8    1  0.1091347E+005  0.1043930E+01  0.7957747E-01            NaN
         13   -1    0    0    0    0  0.00000000000E+00  0.00000000000E+00  0.74505805969E-08  0.10566000000E+00  0.10566000000E+00 0.  1.
     999900   -1    0    0    0    0 -0.00000000000E+00 -0.00000000000E+00 -0.74505805969E-08  0.93827000000E+00  0.93827000000E+00 0.  1.
     999902    2    1    2    0    0  0.52263435583E-02  0.80068242132E-02  0.21947252638E-01  0.10199903718E+01  0.10197093962E+01 0.  0.
     999903    2    3    3    0    0 -0.29953946220E-01 -0.36817498826E-01  0.12209100737E+00  0.13247944546E+00  0.19794501160E-01 0.  0.
         14    1    1    2    0    0 -0.52263435583E-02 -0.80068242132E-02 -0.21947252638E-01  0.23939628220E-01  0.00000000000E+00 0. -1.
     999901    1    3    3    0    0  0.35180289778E-01  0.44824323039E-01 -0.10014375473E+00  0.88751092632E+00  0.88000000000E+00 0.  1.
        -11    1    4    4    0    0 -0.50696093863E-02 -0.16137895119E-01  0.25435459268E-01  0.30550880631E-01  0.51100000000E-03 0.  1.
         11    1    4    4    0    0 -0.24884336834E-01 -0.20679603708E-01  0.96655548098E-01  0.10192856483E+00  0.51100000000E-03 0. -1.
</event>
<event>
 8    1  0.1091347E+005  0.1043930E+01  0.7957747E-01            NaN
         13   -1    0    0    0    0  0.00000000000E+00  0.00000000000E+00  0.74505805969E-08  0.10566000000E+00  0.10566000000E+00 0. -1.
     999900   -1    0    0    0    0 -0.00000000000E+00 -0.00000000000E+00 -0.74505805969E-08  0.93827000000E+00  0.93827000000E+00 0. -1.
     999902    2    1    2    0    0 -0.12326621402E-01 -0.13685887404E-01 -0.14217892822E-01  0.10206620481E+01  0.10203967948E+01 0.  0.
     999903    2    3    3    0    0 -0.47553373037E-01 -0.11657101092E+00 -0.39978314938E-01  0.13359391542E+00  0.19973600031E-01 0.  0.
         14    1    1    2    0    0  0.12326621402E-01  0.13685887404E-01  0.14217892822E-01  0.23267951898E-01  0.00000000000E+00 0. -1.
     999901    1    3    3    0    0  0.35226751635E-01  0.10288512352E+00  0.25760422115E-01  0.88706813268E+00  0.88000000000E+00 0. -1.
        -11    1    4    4    0    0 -0.29542076974E-01 -0.71996623764E-01 -0.34758111772E-01  0.85232831704E-01  0.51100000000E-03 0.  1.
         11    1    4    4    0    0 -0.18011296063E-01 -0.44574387155E-01 -0.52202031658E-02  0.48361083716E-01  0.51100000000E-03 0. -1.
</event>
<event>
 8    1  0.1091347E+005  0.1043930E+01  0.7957747E-01            NaN
         13   -1    0    0    0    0  0.00000000000E+00  0.00000000000E+00  0.74505805969E-08  0.10566000000E+00  0.10566000000E+00 0.  1.
     999900   -1    0    0    0    0 -0.00000000000E+00 -0.00000000000E+00 -0.74505805969E-08  0.93827000000E+00  0.93827000000E+00 0. -1.
     999902    2    1    2    0    0 -0.11474489191E-01  0.17738385771E-01 -0.11296633913E-01  0.10199732020E+01  0.10196918185E+01 0.  0.
     999903    2    3    3    0    0  0.54173207316E-01 -0.10891688251E+00  0.32693811277E-01  0.12740032751E+00  0.19087547432E-01 0.  0.
         14    1    1    2    0    0  0.11474489191E-01 -0.17738385771E-01  0.11296633913E-01  0.23956797985E-01  0.00000000000E+00 0.  1.
     999901    1    3    3    0    0 -0.65647696507E-01  0.12665526828E+00 -0.43990445190E-01  0.89257287451E+00  0.88000000000E+00 0. -1.
        -11    1    4    4    0    0  0.17889404439E-01 -0.53745564273E-01  0.20540650824E-01  0.60256086227E-01  0.51100000000E-03 0. -1.
         11    1    4    4    0    0  0.36283802877E-01 -0.55171318235E-01  0.12153160453E-01  0.67144241280E-01  0.51100000000E-03 0.  1.
</event>
<event>
 8    1  0.1091347E+005  0.1043930E+01  0.7957747E-01            NaN
         13   -1    0    0    0    0  0.00000000000E+00  0.00000000000E+00  0.74505805969E-08  0.10566000000E+00  0.10566000000E+00 0.  1.
     999900   -1    0    0    0    0 -0.00000000000E+00 -0.00000000000E+00 -0.74505805969E-08  0.93827000000E+00  0.93827000000E+00 0. -1.
     999902    2    1    2    0    0  0.32668143980E-02  0.58035458190E-02  0.22075541376E-01  0.10208717532E+01  0.10206113137E+01 0.  0.
     999903    2    3    3    0    0 -0.47922808138E-01  0.97960330462E-01  0.73290241061E-01  0.13310140229E+00  0.21253281474E-01 0.  0.
         14    1    1    2    0    0 -0.32668143980E-02 -0.58035458190E-02 -0.22075541376E-01  0.23058246842E-01  0.00000000000E+00 0. -1.
     999901    1    3    3    0    0  0.51189622536E-01 -0.92156784643E-01 -0.51214699685E-01  0.88777035086E+00  0.88000000000E+00 0. -1.
        -11    1    4    4    0    0 -0.15299824430E-01  0.27026956901E-01  0.10115806512E-01  0.32666981637E-01  0.51100000000E-03 0. -1.
         11    1    4    4    0    0 -0.32622983708E-01  0.70933373561E-01  0.63174434549E-01  0.10043442066E+00  0.51100000000E-03 0.  1.
</event>
<event>
 8    1  0.1091347E+005  0.1043930E+01  0.7957747E-01            NaN
         13   -1    0    0    0    0  0.00000000000E+00  0.00000000000E+00  0.74505805969E-08  0.10566000000E+00  0.10566000000E+00 0.  1.
     999900   -1    0    0    0    0 -0.00000000000E+00 -0.00000000000E+00 -0.74505805969E-08  0.93827000000E+00  0.93827000000E+00 0. -1.
     999902    2    1    2    0    0 -0.15516626767E-01 -0.16568632482E-01  0.57296179511E-02  0.10205181694E+01  0.10202495873E+01 0.  0.
     999903    2    3    3    0    0  0.12288344552E+00  0.15170357759E-01 -0.27742035316E-01  0.12850791440E+00  0.20351476652E-01 0.  0.
         14    1    1    2    0    0  0.15516626767E-01  0.16568632482E-01 -0.57296179511E-02  0.23411830565E-01  0.00000000000E+00 0.  1.
     999901    1    3    3    0    0 -0.13840007229E+00 -0.31738990240E-01  0.33471653267E-01  0.89201025503E+00  0.88000000000E+00 0.  1.
        -11    1    4    4    0    0  0.49506305932E-01 -0.38959848432E-02 -0.11101450662E-01  0.50887683703E-01  0.51100000000E-03 0.  1.
         11    1    4    4    0    0  0.73377139593E-01  0.19066342602E-01 -0.16640584654E-01  0.77620230699E-01  0.51100000000E-03 0. -1.
</event>
<event>
 8    1  0.1091347E+005  0.1043930E+01  0.7957747E-01            NaN
         13   -1    0    0    0    0  0.00000000000E+00  0.00000000000E+00  0.74505805969E-08  0.10566000000E+00  0.10566000000E+00 0. -1.
     999900   -1    0    0    0    0 -0.00000000000E+00 -0.00000000000E+00 -0.74505805969E-08  0.93827000000E+00  0.93827000000E+00 0. -1.
     999902    2    1    2    0    0  0.59316200749E-02 -0.30012050318E-01  0.91864739990E-02  0.10119878870E+01  0.10114836552E+01 0.  0.
     999903    2    3    3    0    0 -0.96363813607E-01  0.21991208887E-01 -0.67633172378E-01  0.12121858305E+00  0.18710986858E-01 0.  0.
         14    1    1    2    0    0 -0.59316200749E-02  0.30012050318E-01 -0.91864739990E-02  0.31942113041E-01  0.00000000000E+00 0.  1.
     999901    1    3    3    0    0  0.10229543368E+00 -0.52003259204E-01  0.76819646377E-01  0.89076930391E+00  0.88000000000E+00 0.  1.
        -11    1    4    4    0    0 -0.44446112476E-01  0.16708237021E-01 -0.40431934555E-01  0.62366854590E-01  0.51100000000E-03 0.  1.
         11    1    4    4    0    0 -0.51917701131E-01  0.52829718654E-02 -0.27201237823E-01  0.58851728458E-01  0.51100000000E-03 0. -1.
</event>
<event>
 8    1  0.1091347E+005  0.1043930E+01  0.7957747E-01            NaN
         13   -1    0    0    0    0  0.00000000000E+00  0.00000000000E+00  0.74505805969E-08  0.10566000000E+00  0.10566000000E+00 0. -1.
     999900   -1    0    0    0    0 -0.00000000000E+00 -0.00000000000E+00 -0.74505805969E-08  0.93827000000E+00  0.93827000000E+00 0. -1.
     999902    2    1    2    0    0 -0.22348665102E-01 -0.36915818004E-02 -0.15013367789E-02  0.10212287969E+01  0.10209764498E+01 0.  0.
     999903    2    3    3    0    0 -0.59222626563E-01 -0.98430021312E-01 -0.64648338602E-01  0.13312823688E+00  0.18652913377E-01 0.  0.
         14    1    1    2    0    0  0.22348665102E-01  0.36915818004E-02  0.15013367789E-02  0.22701203055E-01  0.00000000000E+00 0.  1.
     999901    1    3    3    0    0  0.36873961462E-01  0.94738439511E-01  0.63147001823E-01  0.88810056007E+00  0.88000000000E+00 0.  1.
        -11    1    4    4    0    0 -0.14943449152E-01 -0.32044745146E-01 -0.28983622962E-01  0.45721809731E-01  0.51100000000E-03 0.  1.
         11    1    4    4    0    0 -0.44279177411E-01 -0.66385276165E-01 -0.35664715640E-01  0.87406427146E-01  0.51100000000E-03 0. -1.
</event>
<event>
 8    1  0.1091347E+005  0.1043930E+01  0.7957747E-01            NaN
         13   -1    0    0    0    0  0.00000000000E+00  0.00000000000E+00  0.74505805969E-08  0.10566000000E+00  0.10566000000E+00 0.  1.
     999900   -1    0    0    0    0 -0.00000000000E+00 -0.00000000000E+00 -0.74505805969E-08  0.93827000000E+00  0.93827000000E+00 0.  1.
     999902    2    1    2    0    0 -0.96007634177E-02  0.23299030354E-02  0.77113565769E-02  0.10313973177E+01  0.10313211715E+01 0.  0.
     999903    2    3    3    0    0  0.14394764174E-01 -0.23135285818E-01 -0.13474290716E+00  0.13925524464E+00  0.22224343506E-01 0.  0.
         14    1    1    2    0    0  0.96007634177E-02 -0.23299030354E-02 -0.77113565769E-02  0.12532682339E-01  0.00000000000E+00 0.  1.
     999901    1    3    3    0    0 -0.23995527592E-01  0.25465188853E-01  0.14245426374E+00  0.89214207302E+00  0.88000000000E+00 0. -1.
        -11    1    4    4    0    0  0.16384040313E-01 -0.15633064317E-01 -0.60420961938E-01  0.64527383640E-01  0.51100000000E-03 0.  1.
         11    1    4    4    0    0 -0.19892761393E-02 -0.75022215014E-02 -0.74321945226E-01  0.74727861004E-01  0.51100000000E-03 0. -1.
</event>
<event>
 8    1  0.1091347E+005  0.1043930E+01  0.7957747E-01            NaN
         13   -1    0    0    0    0  0.00000000000E+00  0.00000000000E+00  0.74505805969E-08  0.10566000000E+00  0.10566000000E+00 0.  1.
     999900   -1    0    0    0    0 -0.00000000000E+00 -0.00000000000E+00 -0.74505805969E-08  0.93827000000E+00  0.93827000000E+00 0.  1.
     999902    2    1    2    0    0 -0.60535179075E-02 -0.16758932470E-01  0.14322156724E-01  0.10210688743E+01  0.10208129187E+01 0.  0.
     999903    2    3    3    0    0  0.70721909474E-02  0.67524250309E-02 -0.12729363342E+00  0.12934015981E+00  0.20726714725E-01 0.  0.
         14    1    1    2    0    0  0.60535179075E-02  0.16758932470E-01 -0.14322156724E-01  0.22861125733E-01  0.00000000000E+00 0. -1.
     999901    1    3    3    0    0 -0.13125708855E-01 -0.23511357500E-01  0.14161579014E+00  0.89172871445E+00  0.88000000000E+00 0. -1.
        -11    1    4    4    0    0 -0.70681108933E-02  0.80088156026E-03 -0.29542902567E-01  0.30391508945E-01  0.51100000000E-03 0.  1.
         11    1    4    4    0    0  0.14140301841E-01  0.59515434706E-02 -0.97750730850E-01  0.98948650867E-01  0.51100000000E-03 0. -1.
</event>
<event>
 8    1  0.1091347E+005  0.1043930E+01  0.7957747E-01            NaN
         13   -1    0    0    0    0  0.00000000000E+00  0.00000000000E+00  0.74505805969E-08  0.10566000000E+00  0.10566000000E+00 0. -1.
     999900   -1    0    0    0    0 -0.00000000000E+00 -0.00000000000E+00 -0.74505805969E-08  0.93827000000E+00  0.93827000000E+00 0. -1.
     999902    2    1    2    0    0  0.32379008022E-02 -0.24205471788E-01 -0.10577693891E-01  0.10173165358E+01  0.10169683661E+01 0.  0.
     999903    2    3    3    0    0  0.51453423712E-01  0.11249140498E+00 -0.14748892041E-02  0.12541203770E+00  0.20596914696E-01 0.  0.
         14    1    1    2    0    0 -0.32379008022E-02  0.24205471788E-01  0.10577693891E-01  0.26613464151E-01  0.00000000000E+00 0. -1.
     999901    1    3    3    0    0 -0.48215522910E-01 -0.13669687677E+00 -0.91028046869E-02  0.89190449815E+00  0.88000000000E+00 0. -1.
        -11    1    4    4    0    0  0.49870046820E-01  0.10436051772E+00  0.35327052324E-02  0.11571897146E+00  0.51100000000E-03 0. -1.
         11    1    4    4    0    0  0.15833768919E-02  0.81308872590E-02 -0.50075944365E-02  0.96930662353E-02  0.51100000000E-03 0.  1.
</event>
<event>
 8    1  0.1091347E+005  0.1043930E+01  0.7957747E-01            NaN
         13   -1    0    0    0    0  0.00000000000E+00  0.00000000000E+00  0.74505805969E-08  0.10566000000E+00  0.10566000000E+00 0. -1.
     999900   -1    0    0    0    0 -0.00000000000E+00 -0.00000000000E+00 -0.74505805969E-08  0.93827000000E+00  0.93827000000E+00 0. -1.
     999902    2    1    2    0    0 -0.68548272916E-02  0.81985678975E-02 -0.35262864456E-02  0.10326765619E+01  0.10326152438E+01 0.  0.
     999903    2    3    3    0    0  0.71134523285E-01  0.92072239353E-01  0.78096166503E-01  0.14150914981E+00  0.19708135232E-01 0.  0.
         14    1    1    2    0    0  0.68548272916E-02 -0.81985678975E-02  0.35262864456E-02  0.11253438091E-01  0.00000000000E+00 0. -1.
     999901    1    3    3    0    0 -0.77989350576E-01 -0.83873671456E-01 -0.81622452948E-01  0.89116741210E+00  0.88000000000E+00 0.  1.
        -11    1    4    4    0    0  0.52294953865E-01  0.56364983541E-01  0.58588933852E-01  0.96667977429E-01  0.51100000000E-03 0. -1.
         11    1    4    4    0    0  0.18839569420E-01  0.35707255813E-01  0.19507232650E-01  0.44841172378E-01  0.51100000000E-03 0.  1.
</event>
<event>
 8    1  0.1091347E+005  0.1043930E+01  0.7957747E-01            NaN
         13   -1    0    0    0    0  0.00000000000E+00  0.00000000000E+00  0.74505805969E-08  0.10566000000E+00  0.10566000000E+00 0.  1.
     999900   -1    0    0    0    0 -0.00000000000E+00 -0.00000000000E+00 -0.74505805969E-08  0.93827000000E+00  0.93827000000E+00 0. -1.
     999902    2    1    2    0    0  0.82990723550E-02  0.22415727700E-01  0.27823641452E-05  0.10200272918E+01  0.10197471925E+01 0.  0.
     999903    2    3    3    0    0  0.67728133419E-01  0.10536417769E+00 -0.41568491091E-01  0.13315614593E+00  0.17717498366E-01 0.  0.
         14    1    1    2    0    0 -0.82990723550E-02 -0.22415727700E-01 -0.27823641452E-05  0.23902708173E-01  0.00000000000E+00 0. -1.
     999901    1    3    3    0    0 -0.59429061064E-01 -0.82948449994E-01  0.41571273455E-01  0.88687114590E+00  0.88000000000E+00 0.  1.
        -11    1    4    4    0    0  0.44626427292E-01  0.80730340481E-01 -0.25211012572E-01  0.95628249816E-01  0.51100000000E-03 0.  1.
         11    1    4    4    0    0  0.23101706127E-01  0.24633837213E-01 -0.16357478519E-01  0.37527896109E-01  0.51100000000E-03 0. -1.
</event>
<event>
 8    1  0.1091347E+005  0.1043930E+01  0.7957747E-01            NaN
         13   -1    0    0    0    0  0.00000000000E+00  0.00000000000E+00  0.74505805969E-08  0.10566000000E+00  0.10566000000E+00 0.  1.
     999900   -1    0    0    0    0 -0.00000000000E+00 -0.00000000000E+00 -0.74505805969E-08  0.93827000000E+00  0.93827000000E+00 0. -1.
     999902    2    1    2    0    0 -0.60855499736E-02 -0.10413864129E-02 -0.22163083903E-01  0.10209230295E+01  0.10206637602E+01 0.  0.
     999903    2    3    3    0    0  0.10614547387E+00  0.73095053943E-02 -0.75696224352E-01  0.13214221442E+00  0.20281912061E-01 0.  0.
         14    1    1    2    0    0  0.60855499736E-02  0.10413864129E-02  0.22163083903E-01  0.23006970514E-01  0.00000000000E+00 0. -1.
     999901    1    3    3    0    0 -0.11223102385E+00 -0.83508918071E-02  0.53533140450E-01  0.88878081507E+00  0.88000000000E+00 0.  1.
        -11    1    4    4    0    0  0.42390527322E-01  0.12818718703E-01 -0.29463495883E-01  0.53194314231E-01  0.51100000000E-03 0.  1.
         11    1    4    4    0    0  0.63754946552E-01 -0.55092133092E-02 -0.46232728469E-01  0.78947900186E-01  0.51100000000E-03 0. -1.
</event>
<event>
 8    1  0.1091347E+005  0.1043930E+01  0.7957747E-01            NaN
         13   -1    0    0    0    0  0.00000000000E+00  0.00000000000E+00  0.74505805969E-08  0.10566000000E+00  0.10566000000E+00 0. -1.
     999900   -1    0    0    0    0 -0.00000000000E+00 -0.00000000000E+00 -0.74505805969E-08  0.93827000000E+00  0.93827000000E+00 0.  1.
     999902    2    1    2    0    0 -0.92539633483E-03 -0.16424257666E-02 -0.22770499763E-01  0.10210815957E+01  0.10208259281E+01 0.  0.
     999903    2    3    3    0    0 -0.31341825859E-01 -0.75132008461E-01  0.97817637153E-01  0.12930394586E+00  0.22893045501E-01 0.  0.
         14    1    1    2    0    0  0.92539633483E-03  0.16424257666E-02  0.22770499763E-01  0.22848404326E-01  0.00000000000E+00 0. -1.
     999901    1    3    3    0    0  0.30416429524E-01  0.73489582694E-01 -0.12058813692E+00  0.89177764982E+00  0.88000000000E+00 0.  1.
        -11    1    4    4    0    0 -0.10855746235E-01 -0.64178046919E-02  0.18307360003E-01  0.22236366490E-01  0.51100000000E-03 0.  1.
         11    1    4    4    0    0 -0.20486079623E-01 -0.68714203769E-01  0.79510277150E-01  0.10706757937E+00  0.51100000000E-03 0. -1.
</event>
<event>
 8    1  0.1091347E+005  0.1043930E+01  0.7957747E-01            NaN
         13   -1    0    0    0    0  0.00000000000E+00  0.00000000000E+00  0.74505805969E-08  0.10566000000E+00  0.10566000000E+00 0.  1.
     999900   -1    0    0    0    0 -0.00000000000E+00 -0.00000000000E+00 -0.74505805969E-08  0.93827000000E+00  0.93827000000E+00 0.  1.
     999902    2    1    2    0    0 -0.13409616020E-01  0.17677814420E-01 -0.52843528050E-02  0.10211210695E+01  0.10208662945E+01 0.  0.
     999903    2    3    3    0    0  0.10070992696E+00  0.42312780272E-01  0.68322811953E-01  0.13036399472E+00  0.19847007887E-01 0.  0.
         14    1    1    2    0    0  0.13409616020E-01 -0.17677814420E-01  0.52843528050E-02  0.22808930467E-01  0.00000000000E+00 0. -1.
     999901    1    3    3    0    0 -0.11411954298E+00 -0.24634965852E-01 -0.73607164758E-01  0.89075707482E+00  0.88000000000E+00 0. -1.
        -11    1    4    4    0    0  0.28165113434E-01  0.20460158641E-01  0.16201425320E-01  0.38401028760E-01  0.51100000000E-03 0.  1.
         11    1    4    4    0    0  0.72544813528E-01  0.21852621630E-01  0.52121386633E-01  0.91962965957E-01  0.51100000000E-03 0. -1.
</event>
<event>
 8    1  0.1091347E+005  0.1043930E+01  0.7957747E-01            NaN
         13   -1    0    0    0    0  0.00000000000E+00  0.00000000000E+00  0.74505805969E-08  0.10566000000E+00  0.10566000000E+00 0.  1.
     999900   -1    0    0    0    0 -0.00000000000E+00 -0.00000000000E+00 -0.74505805969E-08  0.93827000000E+00  0.93827000000E+00 0.  1.
     999902    2    1    2    0    0  0.11838677113E-01 -0.19648875151E-01  0.42863467157E-02  0.10205932192E+01  0.10203263761E+01 0.  0.
     999903    2    3    3    0    0  0.69851442302E-02  0.17420084241E-01 -0.12705763079E+00  0.13006028608E+00  0.20488652897E-01 0.  0.
         14    1    1    2    0    0 -0.11838677113E-01  0.19648875151E-01 -0.42863467157E-02  0.23336780812E-01  0.00000000000E+00 0.  1.
     999901    1    3    3    0    0  0.48535328828E-02 -0.37068959392E-01  0.13134397750E+00  0.89053293311E+00  0.88000000000E+00 0. -1.
        -11    1    4    4    0    0 -0.26529182065E-02  0.17915244148E-01 -0.81879654764E-01  0.83860198742E-01  0.51100000000E-03 0. -1.
         11    1    4    4    0    0  0.96380624367E-02 -0.49515990740E-03 -0.45177976025E-01  0.46200087333E-01  0.51100000000E-03 0.  1.
</event>
<event>
 8    1  0.1091347E+005  0.1043930E+01  0.7957747E-01            NaN
         13   -1    0    0    0    0  0.00000000000E+00  0.00000000000E+00  0.74505805969E-08  0.10566000000E+00  0.10566000000E+00 0.  1.
     999900   -1    0    0    0    0 -0.00000000000E+00 -0.00000000000E+00 -0.74505805969E-08  0.93827000000E+00  0.93827000000E+00 0.  1.
     999902    2    1    2    0    0 -0.63659290622E-02  0.20599465917E-01 -0.96653424819E-02  0.10203020104E+01  0.10200283871E+01 0.  0.
     999903    2    3    3    0    0  0.84769602349E-01  0.37607847246E-02 -0.97904846386E-01  0.13104645861E+00  0.19692292537E-01 0.  0.
         14    1    1    2    0    0  0.63659290622E-02 -0.20599465917E-01  0.96653424819E-02  0.23627989635E-01  0.00000000000E+00 0.  1.
     999901    1    3    3    0    0 -0.91135531411E-01  0.16838681193E-01  0.88239503904E-01  0.88925555175E+00  0.88000000000E+00 0. -1.
        -11    1    4    4    0    0  0.46027662435E-01  0.42252139295E-02 -0.67418588063E-01  0.81743044226E-01  0.51100000000E-03 0.  1.
         11    1    4    4    0    0  0.38741939914E-01 -0.46442920486E-03 -0.30486258323E-01  0.49303414388E-01  0.51100000000E-03 0. -1.
</event>
<event>
 8    1  0.1091347E+005  0.1043930E+01  0.7957747E-01            NaN
         13   -1    0    0    0    0  0.00000000000E+00  0.00000000000E+00  0.74505805969E-08  0.10566000000E+00  0.10566000000E+00 0. -1.
     999900   -1    0    0    0    0 -0.00000000000E+00 -0.00000000000E+00 -0.74505805969E-08  0.93827000000E+00  0.93827000000E+00 0. -1.
     999902    2    1    2    0    0 -0.58933119804E-02 -0.23197113316E-01  0.59878918439E-02  0.10192583150E+01  0.10189596757E+01 0.  0.
     999903    2    3    3    0    0  0.97604628142E-01 -0.64965419304E-01 -0.52818762498E-01  0.13026189341E+00  0.20764634907E-01 0.  0.
         14    1    1    2    0    0  0.58933119804E-02  0.23197113316E-01 -0.59878918439E-02  0.24671685006E-01  0.00000000000E+00 0.  1.
     999901    1    3    3    0    0 -0.10349794012E+00  0.41768305987E-01  0.58806654342E-01  0.88899642158E+00  0.88000000000E+00 0.  1.
        -11    1    4    4    0    0  0.33818692974E-01 -0.33665286088E-01 -0.16731236081E-01  0.50569267976E-01  0.51100000000E-03 0. -1.
         11    1    4    4    0    0  0.63785935168E-01 -0.31300133216E-01 -0.36087526418E-01  0.79692625434E-01  0.51100000000E-03 0.  1.
</event>
<event>
 8    1  0.1091347E+005  0.1043930E+01  0.7957747E-01            NaN
         13   -1    0    0    0    0  0.00000000000E+00  0.00000000000E+00  0.74505805969E-08  0.10566000000E+00  0.10566000000E+00 0. -1.
     999900   -1    0    0    0    0 -0.00000000000E+00 -0.00000000000E+00 -0.74505805969E-08  0.93827000000E+00  0.93827000000E+00 0.  1.
     999902    2    1    2    0    0  0.23094454393E-01  0.63539127667E-02 -0.31023052995E-03  0.10199754123E+01  0.10196940812E+01 0.  0.
     999903    2    3    3    0    0 -0.51240858302E-01  0.18950403484E-01  0.11456469661E+00  0.12931236756E+00  0.24736114178E-01 0.  0.
         14    1    1    2    0    0 -0.23094454393E-01 -0.63539127667E-02  0.31023052995E-03  0.23954587747E-01  0.00000000000E+00 0. -1.
     999901    1    3    3    0    0  0.74335312694E-01 -0.12596490717E-01 -0.11487492714E+00  0.89066304469E+00  0.88000000000E+00 0.  1.
        -11    1    4    4    0    0 -0.16487433772E-01  0.50951247022E-02  0.64739932414E-01  0.67002356213E-01  0.51100000000E-03 0.  1.
         11    1    4    4    0    0 -0.34753424530E-01  0.13855278782E-01  0.49824764192E-01  0.62310011350E-01  0.51100000000E-03 0. -1.
</event>
<event>
 8    1  0.1091347E+005  0.1043930E+01  0.7957747E-01            NaN
         13   -1    0    0    0    0  0.00000000000E+00  0.00000000000E+00  0.74505805969E-08  0.10566000000E+00  0.10566000000E+00 0.  1.
     999900   -1    0    0    0    0 -0.00000000000E+00 -0.00000000000E+00 -0.74505805969E-08  0.93827000000E+00  0.93827000000E+00 0. -1.
     999902    2    1    2    0    0 -0.21364034551E-01  0.50534722852E-02 -0.84894908117E-02  0.10203921367E+01  0.10201206211E+01 0.  0.
     999903    2    3    3    0    0 -0.12475314469E+00  0.35291095848E-01 -0.25567732510E-01  0.13365920717E+00  0.20056574004E-01 0.  0.
         14    1    1    2    0    0  0.21364034551E-01 -0.50534722852E-02  0.84894908117E-02  0.23537863299E-01  0.00000000000E+00 0. -1.
     999901    1    3    3    0    0  0.10338911013E+00 -0.30237623562E-01  0.17078241699E-01  0.88673292953E+00  0.88000000000E+00 0. -1.
        -11    1    4    4    0    0 -0.13218637743E-02  0.70040100361E-03  0.19914284973E-02  0.25425958907E-02  0.51100000000E-03 0. -1.
         11    1    4    4    0    0 -0.12343128091E+00  0.34590694844E-01 -0.27559161007E-01  0.13111661128E+00  0.51100000000E-03 0.  1.
</event>
<event>
 8    1  0.1091347E+005  0.1043930E+01  0.7957747E-01            NaN
         13   -1    0    0    0    0  0.00000000000E+00  0.00000000000E+00  0.74505805969E-08  0.10566000000E+00  0.10566000000E+00 0. -1.
     999900   -1    0    0    0    0 -0.00000000000E+00 -0.00000000000E+00 -0.74505805969E-08  0.93827000000E+00  0.93827000000E+00 0.  1.
     999902    2    1    2    0    0  0.20057910992E-01  0.49661616714E-02 -0.11810060804E-01  0.10201295779E+01  0.10198518989E+01 0.  0.
     999903    2    3    3    0    0  0.11247861836E-01 -0.22231941098E-01  0.12525108653E+00  0.12906105537E+00  0.18658717417E-01 0.  0.
         14    1    1    2    0    0 -0.20057910992E-01 -0.49661616714E-02  0.11810060804E-01  0.23800422083E-01  0.00000000000E+00 0. -1.
     999901    1    3    3    0    0  0.88100491561E-02  0.27198102769E-01 -0.13706114734E+00  0.89106852254E+00  0.88000000000E+00 0.  1.
        -11    1    4    4    0    0  0.48290584193E-02 -0.22048934960E-01  0.72925731792E-01  0.76340676029E-01  0.51100000000E-03 0.  1.
         11    1    4    4    0    0  0.64188034165E-02 -0.18300613757E-03  0.52325354740E-01  0.52720379344E-01  0.51100000000E-03 0. -1.
</event>
<event>
 8    1  0.1091347E+005  0.1043930E+01  0.7957747E-01            NaN
         13   -1    0    0    0    0  0.00000000000E+00  0.00000000000E+00  0.74505805969E-08  0.10566000000E+00  0.10566000000E+00 0.  1.
     999900   -1    0    0    0    0 -0.00000000000E+00 -0.00000000000E+00 -0.74505805969E-08  0.93827000000E+00  0.93827000000E+00 0. -1.
     999902    2    1    2    0    0  0.17043845409E-01 -0.74475764456E-02  0.82228681639E-02  0.10235934658E+01  0.10233914250E+01 0.  0.
     999903    2    3    3    0    0  0.21263621529E-01 -0.70802617163E-01 -0.10944961326E+00  0.13349320149E+00  0.19392390365E-01 0.  0.
         14    1    1    2    0    0 -0.17043845409E-01  0.74475764456E-02 -0.82228681639E-02  0.20336534170E-01  0.00000000000E+00 0. -1.
     999901    1    3    3    0    0 -0.42197761202E-02  0.63355040718E-01  0.11767248142E+00  0.89010026434E+00  0.88000000000E+00 0.  1.
        -11    1    4    4    0    0  0.13217982906E-01 -0.51106789617E-01 -0.91570462596E-01  0.10569782286E+00  0.51100000000E-03 0. -1.
         11    1    4    4    0    0  0.80456386229E-02 -0.19695827546E-01 -0.17879150661E-01  0.27795378625E-01  0.51100000000E-03 0.  1.
</event>
<event>
 8    1  0.1091347E+005  0.1043930E+01  0.7957747E-01            NaN
         13   -1    0    0    0    0  0.00000000000E+00  0.00000000000E+00  0.74505805969E-08  0.10566000000E+00  0.10566000000E+00 0. -1.
     999900   -1    0    0    0    0 -0.00000000000E+00 -0.00000000000E+00 -0.74505805969E-08  0.93827000000E+00  0.93827000000E+00 0.  1.
     999902    2    1    2    0    0  0.13741284494E-01  0.17278904671E-01  0.66801548863E-02  0.10208647032E+01  0.10206041027E+01 0.  0.
     999903    2    3    3    0    0  0.10455074691E+00 -0.26346273335E-01  0.74426753684E-01  0.13252967843E+00  0.19994729371E-01 0.  0.
         14    1    1    2    0    0 -0.13741284494E-01 -0.17278904671E-01 -0.66801548863E-02  0.23065296779E-01  0.00000000000E+00 0.  1.
     999901    1    3    3    0    0 -0.90809462417E-01  0.43625178006E-01 -0.67746598798E-01  0.88833502479E+00  0.88000000000E+00 0.  1.
        -11    1    4    4    0    0  0.35204898464E-01  0.22612234736E-03  0.20398259035E-01  0.40691351659E-01  0.51100000000E-03 0. -1.
         11    1    4    4    0    0  0.69345848447E-01 -0.26572395682E-01  0.54028494649E-01  0.91838326772E-01  0.51100000000E-03 0.  1.
</event>
<event>
 8    1  0.1091347E+005  0.1043930E+01  0.7957747E-01            NaN
         13   -1    0    0    0    0  0.00000000000E+00  0.00000000000E+00  0.74505805969E-08  0.10566000000E+00  0.10566000000E+00 0. -1.
     999900   -1    0    0    0    0 -0.00000000000E+00 -0.00000000000E+00 -0.74505805969E-08  0.93827000000E+00  0.93827000000E+00 0. -1.
     999902    2    1    2    0    0 -0.92618476092E-03  0.11507332229E-01  0.20615020285E-01  0.10203025673E+01  0.10200289571E+01 0.  0.
     999903    2    3    3    0    0  0.91299162537E-01  0.56750047734E-01  0.75252659555E-01  0.13264402396E+00  0.19374450309E-01 0.  0.
         14    1    1    2    0    0  0.92618476092E-03 -0.11507332229E-01 -0.20615020285E-01  0.23627432671E-01  0.00000000000E+00 0.  1.
     999901    1    3    3    0    0 -0.92225347298E-01 -0.45242715505E-01 -0.54637639269E-01  0.88765854337E+00  0.88000000000E+00 0. -1.
        -11    1    4    4    0    0  0.80413042187E-01  0.48865451939E-01  0.57157363937E-01  0.11009684428E+00  0.51100000000E-03 0. -1.
         11    1    4    4    0    0  0.10886120350E-01  0.78845957951E-02  0.18095295618E-01  0.22547179682E-01  0.51100000000E-03 0.  1.
</event>
<event>
 8    1  0.1091347E+005  0.1043930E+01  0.7957747E-01            NaN
         13   -1    0    0    0    0  0.00000000000E+00  0.00000000000E+00  0.74505805969E-08  0.10566000000E+00  0.10566000000E+00 0. -1.
     999900   -1    0    0    0    0 -0.00000000000E+00 -0.00000000000E+00 -0.74505805969E-08  0.93827000000E+00  0.93827000000E+00 0. -1.
     999902    2    1    2    0    0 -0.93895189362E-02  0.50984275394E-02 -0.21222734967E-01  0.10201694969E+01  0.10198927595E+01 0.  0.
     999903    2    3    3    0    0  0.10377077459E+00 -0.68002704354E-01 -0.32582992445E-01  0.12984479040E+00  0.20131486233E-01 0.  0.
         14    1    1    2    0    0  0.93895189362E-02 -0.50984275394E-02  0.21222734967E-01  0.23760503124E-01  0.00000000000E+00 0. -1.
     999901    1    3    3    0    0 -0.11316029353E+00  0.73101131894E-01  0.11360257479E-01  0.89032470648E+00  0.88000000000E+00 0.  1.
        -11    1    4    4    0    0  0.25532608681E-01 -0.17716632530E-01 -0.17360180976E-01  0.35600985644E-01  0.51100000000E-03 0. -1.
         11    1    4    4    0    0  0.78238165911E-01 -0.50286071824E-01 -0.15222811469E-01  0.94243804754E-01  0.51100000000E-03 0.  1.
</event>
<event>
 8    1  0.1091347E+005  0.1043930E+01  0.7957747E-01            NaN
         13   -1    0    0    0    0  0.00000000000E+00  0.00000000000E+00  0.74505805969E-08  0.10566000000E+00  0.10566000000E+00 0. -1.
     999900   -1    0    0    0    0 -0.00000000000E+00 -0.00000000000E+00 -0.74505805969E-08  0.93827000000E+00  0.93827000000E+00 0.  1.
     999902    2    1    2    0    0 -0.67557237527E-03 -0.23926911382E-02 -0.27207925280E-01  0.10166087159E+01  0.10162415208E+01 0.  0.
     999903    2    3    3    0    0  0.49837025396E-01 -0.16469783740E-02  0.11202674070E+00  0.12423078537E+00  0.19921238974E-01 0.  0.
         14    1    1    2    0    0  0.67557237527E-03  0.23926911382E-02  0.27207925280E-01  0.27321284138E-01  0.00000000000E+00 0. -1.
     999901    1    3    3    0    0 -0.50512597771E-01 -0.74571276414E-03 -0.13923466598E+00  0.89237793049E+00  0.88000000000E+00 0.  1.
        -11    1    4    4    0    0  0.26403106239E-01 -0.10710615721E-01  0.56399740497E-01  0.63190451473E-01  0.51100000000E-03 0.  1.
         11    1    4    4    0    0  0.23433919157E-01  0.90636373468E-02  0.55627000207E-01  0.61040333896E-01  0.51100000000E-03 0. -1.
</event>
<event>
 8    1  0.1091347E+005  0.1043930E+01  0.7957747E-01            NaN
         13   -1    0    0    0    0  0.00000000000E+00  0.00000000000E+00  0.74505805969E-08  0.10566000000E+00  0.10566000000E+00 0. -1.
     999900   -1    0    0    0    0 -0.00000000000E+00 -0.00000000000E+00 -0.74505805969E-08  0.93827000000E+00  0.93827000000E+00 0. -1.
     999902    2    1    2    0    0 -0.11138716599E-01 -0.18653926486E-01 -0.75126324359E-02  0.10209413152E+01  0.10206824626E+01 0.  0.
     999903    2    3    3    0    0 -0.10122919821E+00  0.71643488056E-01 -0.37851201594E-01  0.13122768337E+00  0.20195332900E-01 0.  0.
         14    1    1    2    0    0  0.11138716599E-01  0.18653926486E-01  0.75126324359E-02  0.22988684759E-01  0.00000000000E+00 0. -1.
     999901    1    3    3    0    0  0.90090481610E-01 -0.90297414543E-01  0.30338569159E-01  0.88971363187E+00  0.88000000000E+00 0. -1.
        -11    1    4    4    0    0 -0.74996147460E-01  0.60680412144E-01 -0.23125622391E-01  0.99204788613E-01  0.51100000000E-03 0.  1.
         11    1    4    4    0    0 -0.26233050749E-01  0.10963075912E-01 -0.14725579203E-01  0.32022894761E-01  0.51100000000E-03 0. -1.
</event>
<event>
 8    1  0.1091347E+005  0.1043930E+01  0.7957747E-01            NaN
         13   -1    0    0    0    0  0.00000000000E+00  0.00000000000E+00  0.74505805969E-08  0.10566000000E+00  0.10566000000E+00 0. -1.
     999900   -1    0    0    0    0 -0.00000000000E+00 -0.00000000000E+00 -0.74505805969E-08  0.93827000000E+00  0.93827000000E+00 0.  1.
     999902    2    1    2    0    0  0.21591883060E-01  0.54181515022E-02 -0.52406317439E-02  0.10210601508E+01  0.10208039977E+01 0.  0.
     999903    2    3    3    0    0 -0.34672841338E-01  0.73550313687E-01  0.99776231535E-01  0.13042203560E+00  0.21041777988E-01 0.  0.
         14    1    1    2    0    0 -0.21591883060E-01 -0.54181515022E-02  0.52406317439E-02  0.22869849165E-01  0.00000000000E+00 0. -1.
     999901    1    3    3    0    0  0.56264724397E-01 -0.68132162185E-01 -0.10501686328E+00  0.89063811523E+00  0.88000000000E+00 0.  1.
        -11    1    4    4    0    0 -0.37363198981E-02  0.17029108336E-01  0.10627332144E-01  0.20424297456E-01  0.51100000000E-03 0.  1.
         11    1    4    4    0    0 -0.30936521440E-01  0.56521205352E-01  0.89148899391E-01  0.10999773814E+00  0.51100000000E-03 0. -1.
</event>
<event>
 8    1  0.1091347E+005  0.1043930E+01  0.7957747E-01            NaN
         13   -1    0    0    0    0  0.00000000000E+00  0.00000000000E+00  0.74505805969E-08  0.10566000000E+00  0.10566000000E+00 0. -1.
     999900   -1    0    0    0    0 -0.00000000000E+00 -0.00000000000E+00 -0.74505805969E-08  0.93827000000E+00  0.93827000000E+00 0. -1.
     999902    2    1    2    0    0 -0.13039502868E-01  0.18086215186E-01  0.50070774382E-02  0.10210780714E+01  0.10208223241E+01 0.  0.
     999903    2    3    3    0    0  0.62986124708E-01  0.64565074912E-01  0.94324459097E-01  0.13207988520E+00  0.20300041563E-01 0.  0.
         14    1    1    2    0    0  0.13039502868E-01 -0.18086215186E-01 -0.50070774382E-02  0.22851928568E-01  0.00000000000E+00 0.  1.
     999901    1    3    3    0    0 -0.76025627576E-01 -0.46478859726E-01 -0.89317381659E-01  0.88899818623E+00  0.88000000000E+00 0. -1.
        -11    1    4    4    0    0  0.58132208378E-01  0.49305654701E-01  0.81154808833E-01  0.11134076232E+00  0.51100000000E-03 0.  1.
         11    1    4    4    0    0  0.48539163308E-02  0.15259420211E-01  0.13169650265E-01  0.20739122885E-01  0.51100000000E-03 0. -1.
</event>
<event>
 8    1  0.1091347E+005  0.1043930E+01  0.7957747E-01            NaN
         13   -1    0    0    0    0  0.00000000000E+00  0.00000000000E+00  0.74505805969E-08  0.10566000000E+00  0.10566000000E+00 0.  1.
     999900   -1    0    0    0    0 -0.00000000000E+00 -0.00000000000E+00 -0.74505805969E-08  0.93827000000E+00  0.93827000000E+00 0.  1.
     999902    2    1    2    0    0 -0.43918740384E-02 -0.91707271662E-02  0.21033633073E-01  0.10205675405E+01  0.10203001030E+01 0.  0.
     999903    2    3    3    0    0 -0.10849186885E+00 -0.37488454082E-01  0.63919063130E-01  0.13294269705E+00  0.20303799399E-01 0.  0.
         14    1    1    2    0    0  0.43918740384E-02  0.91707271662E-02 -0.21033633073E-01  0.23362459514E-01  0.00000000000E+00 0. -1.
     999901    1    3    3    0    0  0.10409999481E+00  0.28317726916E-01 -0.42885430058E-01  0.88762484344E+00  0.88000000000E+00 0.  1.
        -11    1    4    4    0    0 -0.54442518213E-01 -0.20353770837E-01  0.43786082997E-01  0.72771876174E-01  0.51100000000E-03 0.  1.
         11    1    4    4    0    0 -0.54049350640E-01 -0.17134683245E-01  0.20132980133E-01  0.60170820873E-01  0.51100000000E-03 0. -1.
</event>
<event>
 8    1  0.1091347E+005  0.1043930E+01  0.7957747E-01            NaN
         13   -1    0    0    0    0  0.00000000000E+00  0.00000000000E+00  0.74505805969E-08  0.10566000000E+00  0.10566000000E+00 0. -1.
     999900   -1    0    0    0    0 -0.00000000000E+00 -0.00000000000E+00 -0.74505805969E-08  0.93827000000E+00  0.93827000000E+00 0.  1.
     999902    2    1    2    0    0 -0.12933448135E-01 -0.10411606949E-01 -0.17299716980E-01  0.10199517630E+01  0.10196698697E+01 0.  0.
     999903    2    3    3    0    0 -0.66495557777E-02 -0.87347472298E-01 -0.96679464945E-01  0.13301334406E+00  0.25919746282E-01 0.  0.
         14    1    1    2    0    0  0.12933448135E-01  0.10411606949E-01  0.17299716980E-01  0.23978236956E-01  0.00000000000E+00 0. -1.
     999901    1    3    3    0    0 -0.62838923578E-02  0.76935865350E-01  0.79379747965E-01  0.88693841898E+00  0.88000000000E+00 0. -1.
        -11    1    4    4    0    0  0.49627849306E-02 -0.52971225210E-01 -0.70232350340E-01  0.88110295027E-01  0.51100000000E-03 0. -1.
         11    1    4    4    0    0 -0.11612340708E-01 -0.34376247088E-01 -0.26447114605E-01  0.44903049034E-01  0.51100000000E-03 0.  1.
</event>
<event>
 8    1  0.1091347E+005  0.1043930E+01  0.7957747E-01            NaN
         13   -1    0    0    0    0  0.00000000000E+00  0.00000000000E+00  0.74505805969E-08  0.10566000000E+00  0.10566000000E+00 0. -1.
     999900   -1    0    0    0    0 -0.00000000000E+00 -0.00000000000E+00 -0.74505805969E-08  0.93827000000E+00  0.93827000000E+00 0.  1.
     999902    2    1    2    0    0  0.16615488546E-02  0.46076685266E-02  0.23321937365E-01  0.10200992611E+01  0.10198208658E+01 0.  0.
     999903    2    3    3    0    0 -0.11027631240E+00 -0.62449743712E-01 -0.16472140439E-01  0.12958797541E+00  0.21468031920E-01 0.  0.
         14    1    1    2    0    0 -0.16615488546E-02 -0.46076685266E-02 -0.23321937365E-01  0.23830738896E-01  0.00000000000E+00 0.  1.
     999901    1    3    3    0    0  0.11193786125E+00  0.67057412238E-01  0.39794077804E-01  0.89051128569E+00  0.88000000000E+00 0. -1.
        -11    1    4    4    0    0 -0.53880201728E-01 -0.23123803341E-01 -0.16201346843E-01  0.60831991417E-01  0.51100000000E-03 0.  1.
         11    1    4    4    0    0 -0.56396110671E-01 -0.39325940371E-01 -0.27079359570E-03  0.68755983994E-01  0.51100000000E-03 0. -1.
</event>
<event>
 8    1  0.1091347E+005  0.1043930E+01  0.7957747E-01            NaN
         13   -1    0    0    0    0  0.00000000000E+00  0.00000000000E+00  0.74505805969E-08  0.10566000000E+00  0.10566000000E+00 0. -1.
     999900   -1    0    0    0    0 -0.00000000000E+00 -0.00000000000E+00 -0.74505805969E-08  0.93827000000E+00  0.93827000000E+00 0.  1.
     999902    2    1    2    0    0  0.15664643174E-01  0.13977557130E-01 -0.95506341067E-02  0.10208655737E+01  0.10206049930E+01 0.  0.
     999903    2    3    3    0    0 -0.91052601185E-01 -0.10785932370E-01  0.88864065502E-01  0.12862835537E+00  0.15540886355E-01 0.  0.
         14    1    1    2    0    0 -0.15664643174E-01 -0.13977557130E-01  0.95506341067E-02  0.23064426308E-01  0.00000000000E+00 0. -1.
     999901    1    3    3    0    0  0.10671724436E+00  0.24763489500E-01 -0.98414699608E-01  0.89223721832E+00  0.88000000000E+00 0.  1.
        -11    1    4    4    0    0 -0.52425506343E-01 -0.99038212806E-02  0.42093556749E-01  0.67960635901E-01  0.51100000000E-03 0.  1.
         11    1    4    4    0    0 -0.38627094842E-01 -0.88211108964E-03  0.46770508752E-01  0.60667719472E-01  0.51100000000E-03 0. -1.
</event>
<event>
 8    1  0.1091347E+005  0.1043930E+01  0.7957747E-01            NaN
         13   -1    0    0    0    0  0.00000000000E+00  0.00000000000E+00  0.74505805969E-08  0.10566000000E+00  0.10566000000E+00 0.  1.
     999900   -1    0    0    0    0 -0.00000000000E+00 -0.00000000000E+00 -0.74505805969E-08  0.93827000000E+00  0.93827000000E+00 0.  1.
     999902    2    1    2    0    0 -0.14648859017E-01 -0.17647080602E-01  0.18316602671E-02  0.10209220991E+01  0.10206628086E+01 0.  0.
     999903    2    3    3    0    0  0.58741084780E-01 -0.96402939467E-01 -0.65022511860E-01  0.13184502174E+00  0.20276610449E-01 0.  0.
         14    1    1    2    0    0  0.14648859017E-01  0.17647080602E-01 -0.18316602671E-02  0.23007900895E-01  0.00000000000E+00 0. -1.
     999901    1    3    3    0    0 -0.73389943797E-01  0.78755858865E-01  0.66854172127E-01  0.88907707736E+00  0.88000000000E+00 0. -1.
        -11    1    4    4    0    0  0.11463332011E-01 -0.31432550299E-01 -0.26766456017E-01  0.42849941515E-01  0.51100000000E-03 0. -1.
         11    1    4    4    0    0  0.47277752769E-01 -0.64970389168E-01 -0.38256055843E-01  0.88995080230E-01  0.51100000000E-03 0.  1.
</event>
<event>
 8    1  0.1091347E+005  0.1043930E+01  0.7957747E-01            NaN
         13   -1    0    0    0    0  0.00000000000E+00  0.00000000000E+00  0.74505805969E-08  0.10566000000E+00  0.10566000000E+00 0.  1.
     999900   -1    0    0    0    0 -0.00000000000E+00 -0.00000000000E+00 -0.74505805969E-08  0.93827000000E+00  0.93827000000E+00 0.  1.
     999902    2    1    2    0    0  0.66579216235E-02  0.14839756068E-01 -0.17306798322E-01  0.10201798095E+01  0.10199033151E+01 0.  0.
     999903    2    3    3    0    0 -0.32395246765E-01 -0.52298649449E-01  0.10997985943E+00  0.12763591215E+00  0.20267112361E-01 0.  0.
         14    1    1    2    0    0 -0.66579216235E-02 -0.14839756068E-01  0.17306798322E-01  0.23750190497E-01  0.00000000000E+00 0.  1.
     999901    1    3    3    0    0  0.39053168389E-01  0.67138405516E-01 -0.12728665775E+00  0.89254389735E+00  0.88000000000E+00 0.  1.
        -11    1    4    4    0    0 -0.21058036140E-01 -0.22564963762E-01  0.38173808332E-01  0.49092965272E-01  0.51100000000E-03 0. -1.
         11    1    4    4    0    0 -0.11337210625E-01 -0.29733685687E-01  0.71806051098E-01  0.78542946880E-01  0.51100000000E-03 0.  1.
</event>
<event>
 8    1  0.1091347E+005  0.1043930E+01  0.7957747E-01            NaN
         13   -1    0    0    0    0  0.00000000000E+00  0.00000000000E+00  0.74505805969E-08  0.10566000000E+00  0.10566000000E+00 0. -1.
     999900   -1    0    0    0    0 -0.00000000000E+00 -0.00000000000E+00 -0.74505805969E-08  0.93827000000E+00  0.93827000000E+00 0.  1.
     999902    2    1    2    0    0  0.54302871426E-02 -0.24431019550E-01 -0.91583199891E-03  0.10188860090E+01  0.10185781747E+01 0.  0.
     999903    2    3    3    0    0  0.81886402433E-01 -0.98644963206E-01 -0.23566322484E-01  0.13216942991E+00  0.21844335136E-01 0.  0.
         14    1    1    2    0    0 -0.54302871426E-02  0.24431019550E-01  0.91583199891E-03  0.25043990955E-01  0.00000000000E+00 0. -1.
     999901    1    3    3    0    0 -0.76456115290E-01  0.74213943656E-01  0.22650490485E-01  0.88671657914E+00  0.88000000000E+00 0. -1.
        -11    1    4    4    0    0  0.75612279673E-01 -0.89656325175E-01 -0.27581392478E-01  0.12048430526E+00  0.51100000000E-03 0.  1.
         11    1    4    4    0    0  0.62741227595E-02 -0.89886380309E-02  0.40150699940E-02  0.11685124651E-01  0.51100000000E-03 0. -1.
</event>
<event>
 8    1  0.1091347E+005  0.1043930E+01  0.7957747E-01            NaN
         13   -1    0    0    0    0  0.00000000000E+00  0.00000000000E+00  0.74505805969E-08  0.10566000000E+00  0.10566000000E+00 0.  1.
     999900   -1    0    0    0    0 -0.00000000000E+00 -0.00000000000E+00 -0.74505805969E-08  0.93827000000E+00  0.93827000000E+00 0.  1.
     999902    2    1    2    0    0  0.43827309020E-02  0.18354092361E-01 -0.13538679070E-01  0.10207055115E+01  0.10204412596E+01 0.  0.
     999903    2    3    3    0    0 -0.70526306915E-01 -0.84764962002E-01 -0.65820238639E-01  0.12998767467E+00  0.20135366933E-01 0.  0.
         14    1    1    2    0    0 -0.43827309020E-02 -0.18354092361E-01  0.13538679070E-01  0.23224488531E-01  0.00000000000E+00 0. -1.
     999901    1    3    3    0    0  0.74909037817E-01  0.10311905436E+00  0.52281559569E-01  0.89071783680E+00  0.88000000000E+00 0.  1.
        -11    1    4    4    0    0 -0.53108189124E-01 -0.52423701069E-01 -0.50925733063E-01  0.90346087878E-01  0.51100000000E-03 0.  1.
         11    1    4    4    0    0 -0.17418117792E-01 -0.32341260933E-01 -0.14894505576E-01  0.39641586793E-01  0.51100000000E-03 0. -1.
</event>
<event>
 8    1  0.1091347E+005  0.1043930E+01  0.7957747E-01            NaN
         13   -1    0    0    0    0  0.00000000000E+00  0.00000000000E+00  0.74505805969E-08  0.10566000000E+00  0.10566000000E+00 0.  1.
     999900   -1    0    0    0    0 -0.00000000000E+00 -0.00000000000E+00 -0.74505805969E-08  0.93827000000E+00  0.93827000000E+00 0. -1.
     999902    2    1    2    0    0  0.19868785458E-01  0.55361189179E-02 -0.11750856388E-01  0.10201918477E+01  0.10199156368E+01 0.  0.
     999903    2    3    3    0    0  0.11743505522E+00  0.22436735697E-01 -0.56028993900E-01  0.13353218284E+00  0.19929786591E-01 0.  0.
         14    1    1    2    0    0 -0.19868785458E-01 -0.55361189179E-02  0.11750856388E-01  0.23738152289E-01  0.00000000000E+00 0. -1.
     999901    1    3    3    0    0 -0.97566269765E-01 -0.16900616779E-01  0.44278137512E-01  0.88665966487E+00  0.88000000000E+00 0.  1.
        -11    1    4    4    0    0  0.31311153378E-01  0.12931922565E-01 -0.95282718510E-02  0.35194772802E-01  0.51100000000E-03 0.  1.
         11    1    4    4    0    0  0.86123901844E-01  0.95048131319E-02 -0.46500722049E-01  0.98337410041E-01  0.51100000000E-03 0. -1.
</event>
<event>
 8    1  0.1091347E+005  0.1043930E+01  0.7957747E-01            NaN
         13   -1    0    0    0    0  0.00000000000E+00  0.00000000000E+00  0.74505805969E-08  0.10566000000E+00  0.10566000000E+00 0. -1.
     999900   -1    0    0    0    0 -0.00000000000E+00 -0.00000000000E+00 -0.74505805969E-08  0.93827000000E+00  0.93827000000E+00 0. -1.
     999902    2    1    2    0    0 -0.15311567946E-02  0.15775635519E-01  0.17422563884E-01  0.10203766383E+01  0.10201047608E+01 0.  0.
     999903    2    3    3    0    0  0.29643593612E-01  0.10911895490E+00 -0.62915468063E-01  0.13125401470E+00  0.21990254481E-01 0.  0.
         14    1    1    2    0    0  0.15311567946E-02 -0.15775635519E-01 -0.17422563884E-01  0.23553361744E-01  0.00000000000E+00 0.  1.
     999901    1    3    3    0    0 -0.31174750406E-01 -0.93343319386E-01  0.80338031948E-01  0.88912262355E+00  0.88000000000E+00 0.  1.
        -11    1    4    4    0    0  0.22010697520E-01  0.78096989991E-01 -0.33366683486E-01  0.87733729767E-01  0.51100000000E-03 0.  1.
         11    1    4    4    0    0  0.76328960911E-02  0.31021964914E-01 -0.29548784578E-01  0.43520284936E-01  0.51100000000E-03 0. -1.
</event>
<event>
 8    1  0.1091347E+005  0.1043930E+01  0.7957747E-01            NaN
         13   -1    0    0    0    0  0.00000000000E+00  0.00000000000E+00  0.74505805969E-08  0.10566000000E+00  0.10566000000E+00 0. -1.
     999900   -1    0    0    0    0 -0.00000000000E+00 -0.00000000000E+00 -0.74505805969E-08  0.93827000000E+00  0.93827000000E+00 0. -1.
     999902    2    1    2    0    0 -0.33304358875E-01 -0.13138716161E-01 -0.23389019544E-02  0.10080513623E+01  0.10074126624E+01 0.  0.
     999903    2    3    3    0    0 -0.12155793586E+00 -0.78927472683E-02  0.56841754044E-02  0.12358509169E+00  0.20058360023E-01 0.  0.
         14    1    1    2    0    0  0.33304358875E-01  0.13138716161E-01  0.23389019544E-02  0.35878637722E-01  0.00000000000E+00 0. -1.
     999901    1    3    3    0    0  0.88253576988E-01 -0.52459688931E-02 -0.80230773588E-02  0.88446627059E+00  0.88000000000E+00 0.  1.
        -11    1    4    4    0    0 -0.49335893244E-01 -0.66250578633E-03 -0.72002520214E-02  0.49865559520E-01  0.51100000000E-03 0. -1.
         11    1    4    4    0    0 -0.72222042619E-01 -0.72302414820E-02  0.12884427426E-01  0.73719532168E-01  0.51100000000E-03 0.  1.
</event>
<event>
 8    1  0.1091347E+005  0.1043930E+01  0.7957747E-01            NaN
         13   -1    0    0    0    0  0.00000000000E+00  0.00000000000E+00  0.74505805969E-08  0.10566000000E+00  0.10566000000E+00 0.  1.
     999900   -1    0    0    0    0 -0.00000000000E+00 -0.00000000000E+00 -0.74505805969E-08  0.93827000000E+00  0.93827000000E+00 0.  1.
     999902    2    1    2    0    0 -0.20817071161E-01  0.53948723605E-02  0.92519360879E-02  0.10205194592E+01  0.10202509070E+01 0.  0.
     999903    2    3    3    0    0  0.12413364483E+00  0.30520808141E-01  0.68804754784E-02  0.12830443660E+00  0.86026739857E-02 0.  0.
         14    1    1    2    0    0  0.20817071161E-01 -0.53948723605E-02 -0.92519360879E-02  0.23410540807E-01  0.00000000000E+00 0. -1.
     999901    1    3    3    0    0 -0.14495071599E+00 -0.25125935780E-01  0.23714606095E-02  0.89221502259E+00  0.88000000000E+00 0. -1.
        -11    1    4    4    0    0  0.57859790115E-01  0.10437591164E-01  0.10158231526E-02  0.58804690622E-01  0.51100000000E-03 0.  1.
         11    1    4    4    0    0  0.66273854717E-01  0.20083216976E-01  0.58646523258E-02  0.69499745978E-01  0.51100000000E-03 0. -1.
</event>
<event>
 8    1  0.1091347E+005  0.1043930E+01  0.7957747E-01            NaN
         13   -1    0    0    0    0  0.00000000000E+00  0.00000000000E+00  0.74505805969E-08  0.10566000000E+00  0.10566000000E+00 0. -1.
     999900   -1    0    0    0    0 -0.00000000000E+00 -0.00000000000E+00 -0.74505805969E-08  0.93827000000E+00  0.93827000000E+00 0. -1.
     999902    2    1    2    0    0 -0.51967698566E-03 -0.13729882962E-01 -0.18715090237E-01  0.10207128866E+01  0.10204488045E+01 0.  0.
     999903    2    3    3    0    0 -0.58773229058E-01 -0.46706259332E-01 -0.10867694813E+00  0.13359730589E+00  0.20044799097E-01 0.  0.
         14    1    1    2    0    0  0.51967698566E-03  0.13729882962E-01  0.18715090237E-01  0.23217113362E-01  0.00000000000E+00 0. -1.
     999901    1    3    3    0    0  0.58253552073E-01  0.32976376370E-01  0.89961857897E-01  0.88711558075E+00  0.88000000000E+00 0.  1.
        -11    1    4    4    0    0 -0.37967498762E-01 -0.39134441336E-01 -0.86524885551E-01  0.10227341982E+00  0.51100000000E-03 0. -1.
         11    1    4    4    0    0 -0.20805730296E-01 -0.75718179951E-02 -0.22152062583E-01  0.31323886071E-01  0.51100000000E-03 0.  1.
</event>
<event>
 8    1  0.1091347E+005  0.1043930E+01  0.7957747E-01            NaN
         13   -1    0    0    0    0  0.00000000000E+00  0.00000000000E+00  0.74505805969E-08  0.10566000000E+00  0.10566000000E+00 0. -1.
     999900   -1    0    0    0    0 -0.00000000000E+00 -0.00000000000E+00 -0.74505805969E-08  0.93827000000E+00  0.93827000000E+00 0.  1.
     999902    2    1    2    0    0 -0.19802786280E-01 -0.53202616123E-02 -0.12270966377E-01  0.10200337211E+01  0.10197537742E+01 0.  0.
     999903    2    3    3    0    0 -0.90602402644E-01 -0.25378963841E-02  0.92464869843E-01  0.13099495784E+00  0.19866820139E-01 0.  0.
         14    1    1    2    0    0  0.19802786280E-01  0.53202616123E-02  0.12270966377E-01  0.23896278871E-01  0.00000000000E+00 0. -1.
     999901    1    3    3    0    0  0.70799616364E-01 -0.27823652282E-02 -0.10473583622E+00  0.88903876328E+00  0.88000000000E+00 0.  1.
        -11    1    4    4    0    0 -0.76558259600E-01  0.50593438369E-02  0.74327270748E-01  0.10682494264E+00  0.51100000000E-03 0. -1.
         11    1    4    4    0    0 -0.14044143044E-01 -0.75972402211E-02  0.18137599096E-01  0.24170015200E-01  0.51100000000E-03 0.  1.
</event>
<event>
 8    1  0.1091347E+005  0.1043930E+01  0.7957747E-01            NaN
         13   -1    0    0    0    0  0.00000000000E+00  0.00000000000E+00  0.74505805969E-08  0.10566000000E+00  0.10566000000E+00 0.  1.
     999900   -1    0    0    0    0 -0.00000000000E+00 -0.00000000000E+00 -0.74505805969E-08  0.93827000000E+00  0.93827000000E+00 0.  1.
     999902    2    1    2    0    0 -0.11031889235E-02 -0.30799264724E-03 -0.23377263468E-01  0.10205246944E+01  0.10202562636E+01 0.  0.
     999903    2    3    3    0    0  0.87260516525E-01 -0.94237841153E-01  0.11114572637E-01  0.13045691736E+00  0.20007626361E-01 0.  0.
         14    1    1    2    0    0  0.11031889235E-02  0.30799264724E-03  0.23377263468E-01  0.23405305649E-01  0.00000000000E+00 0.  1.
     999901    1    3    3    0    0 -0.88363705449E-01  0.93929848505E-01 -0.34491836105E-01  0.89006777699E+00  0.88000000000E+00 0.  1.
        -11    1    4    4    0    0  0.43746372455E-01 -0.57816249802E-01  0.13088245688E-01  0.73675146015E-01  0.51100000000E-03 0. -1.
         11    1    4    4    0    0  0.43514144070E-01 -0.36421591351E-01 -0.19736730513E-02  0.56781771344E-01  0.51100000000E-03 0.  1.
</event>
<event>
 8    1  0.1091347E+005  0.1043930E+01  0.7957747E-01            NaN
         13   -1    0    0    0    0  0.00000000000E+00  0.00000000000E+00  0.74505805969E-08  0.10566000000E+00  0.10566000000E+00 0.  1.
     999900   -1    0    0    0    0 -0.00000000000E+00 -0.00000000000E+00 -0.74505805969E-08  0.93827000000E+00  0.93827000000E+00 0.  1.
     999902    2    1    2    0    0 -0.76661248446E-03  0.18430604782E-01  0.15113682571E-01  0.10200826042E+01  0.10198038150E+01 0.  0.
     999903    2    3    3    0    0 -0.71980669458E-01 -0.64713567163E-01  0.85297721283E-01  0.13052642576E+00  0.19808685366E-01 0.  0.
         14    1    1    2    0    0  0.76661248446E-03 -0.18430604782E-01 -0.15113682571E-01  0.23847395837E-01  0.00000000000E+00 0. -1.
     999901    1    3    3    0    0  0.71214056973E-01  0.83144171945E-01 -0.70184038712E-01  0.88955617840E+00  0.88000000000E+00 0.  1.
        -11    1    4    4    0    0 -0.39719374700E-01 -0.25613306749E-01  0.49675866201E-01  0.68568382021E-01  0.51100000000E-03 0. -1.
         11    1    4    4    0    0 -0.32261294758E-01 -0.39100260414E-01  0.35621855082E-01  0.61958043742E-01  0.51100000000E-03 0.  1.
</event>
<event>
 7    1  0.1091347E+005  0.1043930E+01  0.7957747E-01            NaN
         13   -1    0    0    0    0  0.00000000000E+00  0.00000000000E+00  0.74505805969E-08  0.10566000000E+00  0.10566000000E+00 0. -1.
     999900   -1    0    0    0    0 -0.00000000000E+00 -0.00000000000E+00 -0.74505805969E-08  0.93827000000E+00  0.93827000000E+00 0. -1.
     999902    2    1    2    0    0 -0.22899339426E-01  0.13653880774E-03 -0.50150095072E-02  0.10204875447E+01  0.10202182513E+01 0.  0.
         14    1    1    2    0    0  0.22899339426E-01 -0.13653880774E-03  0.50150095072E-02  0.23442455276E-01  0.00000000000E+00 0. -1.
     999901    1    3    3    0    0 -0.12419711286E+00 -0.66868114067E-01 -0.46452799689E-02  0.89124511003E+00  0.88000000000E+00 0.  1.
        -11    1    3    3    0    0  0.89076496574E-01  0.48376025046E-01 -0.15162633714E-01  0.10249404189E+00  0.51100000000E-03 0.  1.
         11    1    3    3    0    0  0.12221276855E-01  0.18628627829E-01  0.14792904176E-01  0.26748392806E-01  0.51100000000E-03 0. -1.
</event>
<event>
 8    1  0.1091347E+005  0.1043930E+01  0.7957747E-01            NaN
         13   -1    0    0    0    0  0.00000000000E+00  0.00000000000E+00  0.74505805969E-08  0.10566000000E+00  0.10566000000E+00 0.  1.
     999900   -1    0    0    0    0 -0.00000000000E+00 -0.00000000000E+00 -0.74505805969E-08  0.93827000000E+00  0.93827000000E+00 0.  1.
     999902    2    1    2    0    0  0.27217874621E-03 -0.88860472803E-02  0.21533956987E-01  0.10206330641E+01  0.10203671419E+01 0.  0.
     999903    2    3    3    0    0 -0.28822552251E-01 -0.26308754216E-02 -0.12330240202E+00  0.12829725209E+00  0.20470503812E-01 0.  0.
         14    1    1    2    0    0 -0.27217874621E-03  0.88860472803E-02 -0.21533956987E-01  0.23296935873E-01  0.00000000000E+00 0. -1.
     999901    1    3    3    0    0  0.29094730997E-01 -0.62551718587E-02  0.14483635901E+00  0.89233581203E+00  0.88000000000E+00 0. -1.
        -11    1    4    4    0    0  0.60324593793E-03 -0.31815044897E-02 -0.36353054532E-01  0.36500569465E-01  0.51100000000E-03 0. -1.
         11    1    4    4    0    0 -0.29425798189E-01  0.55062906814E-03 -0.86949347491E-01  0.91796682628E-01  0.51100000000E-03 0.  1.
</event>
<event>
 8    1  0.1091347E+005  0.1043930E+01  0.7957747E-01            NaN
         13   -1    0    0    0    0  0.00000000000E+00  0.00000000000E+00  0.74505805969E-08  0.10566000000E+00  0.10566000000E+00 0. -1.
     999900   -1    0    0    0    0 -0.00000000000E+00 -0.00000000000E+00 -0.74505805969E-08  0.93827000000E+00  0.93827000000E+00 0. -1.
     999902    2    1    2    0    0  0.59500600013E-02 -0.22512475465E-01  0.49771991383E-02  0.10201185054E+01  0.10198405648E+01 0.  0.
     999903    2    3    3    0    0 -0.11465921455E+00 -0.55643527732E-01  0.24367750914E-01  0.13106268190E+00  0.18458105049E-01 0.  0.
         14    1    1    2    0    0 -0.59500600013E-02  0.22512475465E-01 -0.49771991383E-02  0.23811494636E-01  0.00000000000E+00 0. -1.
     999901    1    3    3    0    0  0.12060927456E+00  0.33131052268E-01 -0.19390551776E-01  0.88905582346E+00  0.88000000000E+00 0.  1.
        -11    1    4    4    0    0 -0.51824228782E-01 -0.19679314232E-01  0.27596823883E-02  0.55505883160E-01  0.51100000000E-03 0.  1.
         11    1    4    4    0    0 -0.62834985772E-01 -0.35964213500E-01  0.21608068526E-01  0.75556798741E-01  0.51100000000E-03 0. -1.
</event>
<event>
 8    1  0.1091347E+005  0.1043930E+01  0.7957747E-01            NaN
         13   -1    0    0    0    0  0.00000000000E+00  0.00000000000E+00  0.74505805969E-08  0.10566000000E+00  0.10566000000E+00 0. -1.
     999900   -1    0    0    0    0 -0.00000000000E+00 -0.00000000000E+00 -0.74505805969E-08  0.93827000000E+00  0.93827000000E+00 0. -1.
     999902    2    1    2    0    0  0.11831260914E-01  0.16330475184E-01 -0.14587560479E-01  0.10190410451E+01  0.10187370571E+01 0.  0.
     999903    2    3    3    0    0 -0.31617125266E-01  0.91631772841E-01  0.83062057724E-01  0.12938184316E+00  0.21079172227E-01 0.  0.
         14    1    1    2    0    0 -0.11831260914E-01 -0.16330475184E-01  0.14587560479E-01  0.24888954885E-01  0.00000000000E+00 0. -1.
     999901    1    3    3    0    0  0.43448386179E-01 -0.75301297657E-01 -0.97649618203E-01  0.88965920196E+00  0.88000000000E+00 0. -1.
        -11    1    4    4    0    0 -0.32225691087E-02  0.16480556541E-01  0.54106587412E-02  0.17650213726E-01  0.51100000000E-03 0.  1.
         11    1    4    4    0    0 -0.28394556157E-01  0.75151216300E-01  0.77651398983E-01  0.11173162943E+00  0.51100000000E-03 0. -1.
</event>
<event>
 8    1  0.1091347E+005  0.1043930E+01  0.7957747E-01            NaN
         13   -1    0    0    0    0  0.00000000000E+00  0.00000000000E+00  0.74505805969E-08  0.10566000000E+00  0.10566000000E+00 0.  1.
     999900   -1    0    0    0    0 -0.00000000000E+00 -0.00000000000E+00 -0.74505805969E-08  0.93827000000E+00  0.93827000000E+00 0.  1.
     999902    2    1    2    0    0 -0.11656570763E-01  0.53460472582E-02  0.19674700935E-01  0.10204449043E+01  0.10201746189E+01 0.  0.
     999903    2    3    3    0    0  0.46444836022E-01  0.77974846154E-01 -0.88898839027E-01  0.12890750773E+00  0.21839014241E-01 0.  0.
         14    1    1    2    0    0  0.11656570763E-01 -0.53460472582E-02 -0.19674700935E-01  0.23485095702E-01  0.00000000000E+00 0. -1.
     999901    1    3    3    0    0 -0.58101406785E-01 -0.72628798896E-01  0.10857353996E+00  0.89153739657E+00  0.88000000000E+00 0. -1.
        -11    1    4    4    0    0  0.19603415245E-01  0.36879560423E-01 -0.55809596585E-01  0.69709167677E-01  0.51100000000E-03 0.  1.
         11    1    4    4    0    0  0.26841420778E-01  0.41095285731E-01 -0.33089242442E-01  0.59198340053E-01  0.51100000000E-03 0. -1.
</event>
<event>
 8    1  0.1091347E+005  0.1043930E+01  0.7957747E-01            NaN
         13   -1    0    0    0    0  0.00000000000E+00  0.00000000000E+00  0.74505805969E-08  0.10566000000E+00  0.10566000000E+00 0.  1.
     999900   -1    0    0    0    0 -0.00000000000E+00 -0.00000000000E+00 -0.74505805969E-08  0.93827000000E+00  0.93827000000E+00 0.  1.
     999902    2    1    2    0    0 -0.18967239739E-02 -0.12213071770E-01  0.21299322908E-01  0.10193044474E+01  0.10190069375E+01 0.  0.
     999903    2    3    3    0    0  0.44095976038E-01 -0.11273667091E+00 -0.42768235809E-01  0.13007726917E+00  0.20903633416E-01 0.  0.
         14    1    1    2    0    0  0.18967239739E-02  0.12213071770E-01 -0.21299322908E-01  0.24625552587E-01  0.00000000000E+00 0. -1.
     999901    1    3    3    0    0 -0.45992700012E-01  0.10052359914E+00  0.64067558717E-01  0.88922717824E+00  0.88000000000E+00 0. -1.
        -11    1    4    4    0    0  0.93966106377E-02 -0.16308359858E-01  0.49892287936E-03  0.18835310928E-01  0.51100000000E-03 0.  1.
         11    1    4    4    0    0  0.34699365401E-01 -0.96428311056E-01 -0.43267158688E-01  0.11124195825E+00  0.51100000000E-03 0. -1.
</event>
<event>
 8    1  0.1091347E+005  0.1043930E+01  0.7957747E-01            NaN
         13   -1    0    0    0    0  0.00000000000E+00  0.00000000000E+00  0.74505805969E-08  0.10566000000E+00  0.10566000000E+00 0. -1.
     999900   -1    0    0    0    0 -0.00000000000E+00 -0.00000000000E+00 -0.74505805969E-08  0.93827000000E+00  0.93827000000E+00 0. -1.
     999902    2    1    2    0    0  0.14903963255E-01 -0.42051159575E-02 -0.15877663833E-01  0.10217509259E+01  0.10215101777E+01 0.  0.
     999903    2    3    3    0    0 -0.30380438234E-01  0.12413380862E+00  0.18240879183E-01  0.13063610074E+00  0.20022179517E-01 0.  0.
         14    1    1    2    0    0 -0.14903963255E-01  0.42051159575E-02  0.15877663833E-01  0.22179074140E-01  0.00000000000E+00 0. -1.
     999901    1    3    3    0    0  0.45284401489E-01 -0.12833892458E+00 -0.34118543015E-01  0.89111482512E+00  0.88000000000E+00 0. -1.
        -11    1    4    4    0    0 -0.18306253048E-01  0.48371197729E-01  0.14975459923E-01  0.53846236556E-01  0.51100000000E-03 0. -1.
         11    1    4    4    0    0 -0.12074185186E-01  0.75762610890E-01  0.32654192601E-02  0.76789864179E-01  0.51100000000E-03 0.  1.
</event>
<event>
 8    1  0.1091347E+005  0.1043930E+01  0.7957747E-01            NaN
         13   -1    0    0    0    0  0.00000000000E+00  0.00000000000E+00  0.74505805969E-08  0.10566000000E+00  0.10566000000E+00 0. -1.
     999900   -1    0    0    0    0 -0.00000000000E+00 -0.00000000000E+00 -0.74505805969E-08  0.93827000000E+00  0.93827000000E+00 0.  1.
     999902    2    1    2    0    0 -0.27380463303E-02  0.38764172882E-02  0.22991491506E-01  0.10204537952E+01  0.10201837168E+01 0.  0.
     999903    2    3    3    0    0 -0.12167935596E+00  0.66661500436E-02 -0.41534479428E-01  0.13010643680E+00  0.18768822358E-01 0.  0.
         14    1    1    2    0    0  0.27380463303E-02 -0.38764172882E-02 -0.22991491506E-01  0.23476204769E-01  0.00000000000E+00 0.  1.
     999901    1    3    3    0    0  0.11894130963E+00 -0.27897327553E-02  0.64525970934E-01  0.89034735843E+00  0.88000000000E+00 0. -1.
        -11    1    4    4    0    0 -0.32798041425E-01  0.66678499709E-02 -0.18679810584E-01  0.38332338684E-01  0.51100000000E-03 0. -1.
         11    1    4    4    0    0 -0.88881314531E-01 -0.16999273127E-05 -0.22854668844E-01  0.91774098114E-01  0.51100000000E-03 0.  1.
</event>
<event>
 8    1  0.1091347E+005  0.1043930E+01  0.7957747E-01            NaN
         13   -1    0    0    0    0  0.00000000000E+00  0.00000000000E+00  0.74505805969E-08  0.10566000000E+00  0.10566000000E+00 0. -1.
     999900   -1    0    0    0    0 -0.00000000000E+00 -0.00000000000E+00 -0.74505805969E-08  0.93827000000E+00  0.93827000000E+00 0.  1.
     999902    2    1    2    0    0 -0.15524238053E-01  0.12754275166E-01 -0.15464899206E-01  0.10185757773E+01  0.10182601718E+01 0.  0.
     999903    2    3    3    0    0  0.11233751168E+00  0.56695269319E-01  0.11455171658E-01  0.12784342229E+00  0.19458920141E-01 0.  0.
         14    1    1    2    0    0  0.15524238053E-01 -0.12754275166E-01  0.15464899206E-01  0.25354222717E-01  0.00000000000E+00 0. -1.
     999901    1    3    3    0    0 -0.12786174973E+00 -0.43940994153E-01 -0.26920070864E-01  0.89073235499E+00  0.88000000000E+00 0. -1.
        -11    1    4    4    0    0  0.10162994159E-01  0.65453617086E-02 -0.45042274241E-02  0.12910360021E-01  0.51100000000E-03 0. -1.
         11    1    4    4    0    0  0.10217451752E+00  0.50149907610E-01  0.15959399082E-01  0.11493306227E+00  0.51100000000E-03 0.  1.
</event>
<event>
 8    1  0.1091347E+005  0.1043930E+01  0.7957747E-01            NaN
         13   -1    0    0    0    0  0.00000000000E+00  0.00000000000E+00  0.74505805969E-08  0.10566000000E+00  0.10566000000E+00 0.  1.
     999900   -1    0    0    0    0 -0.00000000000E+00 -0.00000000000E+00 -0.74505805969E-08  0.93827000000E+00  0.93827000000E+00 0.  1.
     999902    2    1    2    0    0  0.11659455515E-01 -0.15984587550E-01 -0.11254626038E-01  0.10211678263E+01  0.10209141066E+01 0.  0.
     999903    2    3    3    0    0 -0.95700587380E-01  0.65621698492E-01  0.51803714599E-01  0.12866453837E+00  0.20152638771E-01 0.  0.
         14    1    1    2    0    0 -0.11659455515E-01  0.15984587550E-01  0.11254626038E-01  0.22762173651E-01  0.00000000000E+00 0. -1.
     999901    1    3    3    0    0  0.10736004290E+00 -0.81606286042E-01 -0.63058340638E-01  0.89250328798E+00  0.88000000000E+00 0.  1.
        -11    1    4    4    0    0 -0.41229616411E-01  0.28467752118E-01  0.11578824282E-01  0.51425912465E-01  0.51100000000E-03 0.  1.
         11    1    4    4    0    0 -0.54470970969E-01  0.37153946374E-01  0.40224890318E-01  0.77238625904E-01  0.51100000000E-03 0. -1.
</event>
<event>
 7    1  0.1091347E+005  0.1043930E+01  0.7957747E-01            NaN
         13   -1    0    0    0    0  0.00000000000E+00  0.00000000000E+00  0.74505805969E-08  0.10566000000E+00  0.10566000000E+00 0. -1.
     999900   -1    0    0    0    0 -0.00000000000E+00 -0.00000000000E+00 -0.74505805969E-08  0.93827000000E+00  0.93827000000E+00 0. -1.
     999902    2    1    2    0    0 -0.10609971336E-01  0.20681528842E-01  0.63810547192E-02  0.10198257475E+01  0.10195408478E+01 0.  0.
         14    1    1    2    0    0  0.10609971336E-01 -0.20681528842E-01 -0.63810547192E-02  0.24104252453E-01  0.00000000000E+00 0.  1.
     999901    1    3    3    0    0 -0.58719966346E-01 -0.91220577137E-01 -0.32202423305E-01  0.88724642812E+00  0.88000000000E+00 0.  1.
        -11    1    3    3    0    0  0.12209641717E-01  0.69434559403E-01  0.28586673922E-01  0.76076885039E-01  0.51100000000E-03 0. -1.
         11    1    3    3    0    0  0.35900353292E-01  0.42467546576E-01  0.99968041015E-02  0.56502434390E-01  0.51100000000E-03 0.  1.
</event>
<event>
 8    1  0.1091347E+005  0.1043930E+01  0.7957747E-01            NaN
         13   -1    0    0    0    0  0.00000000000E+00  0.00000000000E+00  0.74505805969E-08  0.10566000000E+00  0.10566000000E+00 0.  1.
     999900   -1    0    0    0    0 -0.00000000000E+00 -0.00000000000E+00 -0.74505805969E-08  0.93827000000E+00  0.93827000000E+00 0.  1.
     999902    2    1    2    0    0 -0.18611436591E-01  0.99475690596E-02 -0.96225392448E-02  0.10207366181E+01  0.10204730818E+01 0.  0.
     999903    2    3    3    0    0 -0.66556188810E-01 -0.35670454601E-01  0.10491385753E+00  0.13084994581E+00  0.20314605990E-01 0.  0.
         14    1    1    2    0    0  0.18611436591E-01 -0.99475690596E-02  0.96225392448E-02  0.23193381894E-01  0.00000000000E+00 0.  1.
     999901    1    3    3    0    0  0.47944752219E-01  0.45618023661E-01 -0.11453639677E+00  0.88988667230E+00  0.88000000000E+00 0.  1.
        -11    1    4    4    0    0 -0.51219043811E-01 -0.21596849635E-01  0.87702125325E-01  0.10383514949E+00  0.51100000000E-03 0. -1.
         11    1    4    4    0    0 -0.15337144999E-01 -0.14073604967E-01  0.17211732201E-01  0.27014796313E-01  0.51100000000E-03 0.  1.
</event>
<event>
 8    1  0.1091347E+005  0.1043930E+01  0.7957747E-01            NaN
         13   -1    0    0    0    0  0.00000000000E+00  0.00000000000E+00  0.74505805969E-08  0.10566000000E+00  0.10566000000E+00 0.  1.
     999900   -1    0    0    0    0 -0.00000000000E+00 -0.00000000000E+00 -0.74505805969E-08  0.93827000000E+00  0.93827000000E+00 0.  1.
     999902    2    1    2    0    0 -0.32435004484E-02  0.23324828732E-01  0.27106777699E-02  0.10202252388E+01  0.10199498135E+01 0.  0.
     999903    2    3    3    0    0  0.62894011339E-01  0.54066124923E-01 -0.99720604377E-01  0.13128690272E+00  0.20328535650E-01 0.  0.
         14    1    1    2    0    0  0.32435004484E-02 -0.23324828732E-01 -0.27106777699E-02  0.23704761220E-01  0.00000000000E+00 0. -1.
     999901    1    3    3    0    0 -0.66137511787E-01 -0.30741296191E-01  0.10243128215E+00  0.88893833606E+00  0.88000000000E+00 0. -1.
        -11    1    4    4    0    0  0.38924220717E-01  0.23367185162E-01 -0.63762330211E-01  0.78275259027E-01  0.51100000000E-03 0.  1.
         11    1    4    4    0    0  0.23969790622E-01  0.30698939761E-01 -0.35958274166E-01  0.53011643692E-01  0.51100000000E-03 0. -1.
</event>
<event>
 8    1  0.1091347E+005  0.1043930E+01  0.7957747E-01            NaN
         13   -1    0    0    0    0  0.00000000000E+00  0.00000000000E+00  0.74505805969E-08  0.10566000000E+00  0.10566000000E+00 0.  1.
     999900   -1    0    0    0    0 -0.00000000000E+00 -0.00000000000E+00 -0.74505805969E-08  0.93827000000E+00  0.93827000000E+00 0.  1.
     999902    2    1    2    0    0 -0.17543631758E-01 -0.15310444314E-01 -0.12164584547E-03  0.10206447360E+01  0.10203790833E+01 0.  0.
     999903    2    3    3    0    0 -0.11875694198E+00 -0.39082837652E-01 -0.42367951449E-01  0.13351790677E+00  0.20032689577E-01 0.  0.
         14    1    1    2    0    0  0.17543631758E-01  0.15310444314E-01  0.12164584547E-03  0.23285263968E-01  0.00000000000E+00 0.  1.
     999901    1    3    3    0    0  0.10121331022E+00  0.23772393338E-01  0.42246305604E-01  0.88712682926E+00  0.88000000000E+00 0.  1.
        -11    1    4    4    0    0 -0.86116307713E-01 -0.28933969245E-01 -0.21134274463E-01  0.93274389349E-01  0.51100000000E-03 0.  1.
         11    1    4    4    0    0 -0.32640634269E-01 -0.10148868407E-01 -0.21233676986E-01  0.40243517425E-01  0.51100000000E-03 0. -1.
</event>
<event>
 8    1  0.1092583E+005  0.1043930E+01  0.7957747E-01            NaN
         13   -1    0    0    0    0  0.00000000000E+00  0.00000000000E+00  0.74505805969E-08  0.10566000000E+00  0.10566000000E+00 0. -1.
     999900   -1    0    0    0    0 -0.00000000000E+00 -0.00000000000E+00 -0.74505805969E-08  0.93827000000E+00  0.93827000000E+00 0.  1.
     999902    2    1    2    0    0 -0.83034367497E-02  0.17879573981E-02  0.22677070051E-01  0.10197144397E+01  0.10194268710E+01 0.  0.
     999903    2    3    3    0    0 -0.28050664457E-01 -0.21025517819E-01 -0.12095651846E+00  0.12755917554E+00  0.20296594088E-01 0.  0.
         14    1    1    2    0    0  0.83034367497E-02 -0.17879573981E-02 -0.22677070051E-01  0.24215560279E-01  0.00000000000E+00 0.  1.
     999901    1    3    3    0    0  0.19747227707E-01  0.22813475217E-01  0.14363358851E+00  0.89215526418E+00  0.88000000000E+00 0. -1.
        -11    1    4    4    0    0 -0.64911394538E-02 -0.32981756795E-02 -0.60848490895E-01  0.61284686664E-01  0.51100000000E-03 0. -1.
         11    1    4    4    0    0 -0.21559525003E-01 -0.17727342139E-01 -0.60108027563E-01  0.66274488879E-01  0.51100000000E-03 0.  1.
</event>
<event>
 8    1  0.1091347E+005  0.1043930E+01  0.7957747E-01            NaN
         13   -1    0    0    0    0  0.00000000000E+00  0.00000000000E+00  0.74505805969E-08  0.10566000000E+00  0.10566000000E+00 0.  1.
     999900   -1    0    0    0    0 -0.00000000000E+00 -0.00000000000E+00 -0.74505805969E-08  0.93827000000E+00  0.93827000000E+00 0.  1.
     999902    2    1    2    0    0  0.18956841550E-01 -0.85669779116E-02 -0.14649966119E-01  0.10184864063E+01  0.10181685437E+01 0.  0.
     999903    2    3    3    0    0  0.39769974009E-01  0.79951836868E-01  0.89115923632E-01  0.12773608949E+00  0.20022828535E-01 0.  0.
         14    1    1    2    0    0 -0.18956841550E-01  0.85669779116E-02  0.14649966119E-01  0.25443593681E-01  0.00000000000E+00 0.  1.
     999901    1    3    3    0    0 -0.20813132459E-01 -0.88518814779E-01 -0.10376588975E+00  0.89075031683E+00  0.88000000000E+00 0.  1.
        -11    1    4    4    0    0  0.75831321276E-02  0.36025596463E-01  0.31485667639E-01  0.48445390710E-01  0.51100000000E-03 0. -1.
         11    1    4    4    0    0  0.32186841881E-01  0.43926240404E-01  0.57630255993E-01  0.79290698781E-01  0.51100000000E-03 0.  1.
</event>
<event>
 8    1  0.1091347E+005  0.1043930E+01  0.7957747E-01            NaN
         13   -1    0    0    0    0  0.00000000000E+00  0.00000000000E+00  0.74505805969E-08  0.10566000000E+00  0.10566000000E+00 0. -1.
     999900   -1    0    0    0    0 -0.00000000000E+00 -0.00000000000E+00 -0.74505805969E-08  0.93827000000E+00  0.93827000000E+00 0. -1.
     999902    2    1    2    0    0  0.13090639952E-01 -0.64254112297E-02  0.20765834702E-01  0.10185553935E+01  0.10182392739E+01 0.  0.
     999903    2    3    3    0    0  0.12649867622E+00 -0.24763903416E-01 -0.24156806857E-02  0.13078567920E+00  0.21997553765E-01 0.  0.
         14    1    1    2    0    0 -0.13090639952E-01  0.64254112297E-02 -0.20765834702E-01  0.25374606493E-01  0.00000000000E+00 0.  1.
     999901    1    3    3    0    0 -0.11340803627E+00  0.18338492186E-01  0.23181515387E-01  0.88776971431E+00  0.88000000000E+00 0. -1.
        -11    1    4    4    0    0  0.37167291314E-01 -0.17646492406E-01 -0.93430532649E-03  0.41157505820E-01  0.51100000000E-03 0.  1.
         11    1    4    4    0    0  0.89331384910E-01 -0.71174110099E-02 -0.14813753592E-02  0.89628173380E-01  0.51100000000E-03 0. -1.
</event>
<event>
 8    1  0.1091347E+005  0.1043930E+01  0.7957747E-01            NaN
         13   -1    0    0    0    0  0.00000000000E+00  0.00000000000E+00  0.74505805969E-08  0.10566000000E+00  0.10566000000E+00 0.  1.
     999900   -1    0    0    0    0 -0.00000000000E+00 -0.00000000000E+00 -0.74505805969E-08  0.93827000000E+00  0.93827000000E+00 0. -1.
     999902    2    1    2    0    0 -0.36525352938E-03 -0.22976553383E-01 -0.41671376997E-02  0.10205757616E+01  0.10203085145E+01 0.  0.
     999903    2    3    3    0    0 -0.18681682282E-01  0.41439894783E-01  0.11965832352E+00  0.12938682808E+00  0.18882975386E-01 0.  0.
         14    1    1    2    0    0  0.36525352938E-03  0.22976553383E-01  0.41671376997E-02  0.23354238418E-01  0.00000000000E+00 0. -1.
     999901    1    3    3    0    0  0.18316428753E-01 -0.64416448166E-01 -0.12382546122E+00  0.89118893351E+00  0.88000000000E+00 0. -1.
        -11    1    4    4    0    0 -0.19493476402E-01  0.41673158791E-01  0.10430666492E+00  0.11400346159E+00  0.51100000000E-03 0.  1.
         11    1    4    4    0    0  0.81179412018E-03 -0.23326400864E-03  0.15351658598E-01  0.15383366488E-01  0.51100000000E-03 0. -1.
</event>
<event>
 8    1  0.1091347E+005  0.1043930E+01  0.7957747E-01            NaN
         13   -1    0    0    0    0  0.00000000000E+00  0.00000000000E+00  0.74505805969E-08  0.10566000000E+00  0.10566000000E+00 0. -1.
     999900   -1    0    0    0    0 -0.00000000000E+00 -0.00000000000E+00 -0.74505805969E-08  0.93827000000E+00  0.93827000000E+00 0.  1.
     999902    2    1    2    0    0  0.20745374649E-01 -0.46343303448E-02 -0.86370642617E-02  0.10209855788E+01  0.10207277333E+01 0.  0.
     999903    2    3    3    0    0 -0.38414128118E-01  0.48198503149E-01  0.11176694262E+00  0.12925227786E+00  0.20385311483E-01 0.  0.
         14    1    1    2    0    0 -0.20745374649E-01  0.46343303448E-02  0.86370642617E-02  0.22944421242E-01  0.00000000000E+00 0. -1.
     999901    1    3    3    0    0  0.59159502767E-01 -0.52832833494E-01 -0.12040400688E+00  0.89173330090E+00  0.88000000000E+00 0.  1.
        -11    1    4    4    0    0 -0.95921379644E-02  0.20625576572E-02  0.24759544210E-01  0.26637556293E-01  0.51100000000E-03 0.  1.
         11    1    4    4    0    0 -0.28821990154E-01  0.46135945492E-01  0.87007398408E-01  0.10261472156E+00  0.51100000000E-03 0. -1.
</event>
<event>
 8    1  0.1091347E+005  0.1043930E+01  0.7957747E-01            NaN
         13   -1    0    0    0    0  0.00000000000E+00  0.00000000000E+00  0.74505805969E-08  0.10566000000E+00  0.10566000000E+00 0.  1.
     999900   -1    0    0    0    0 -0.00000000000E+00 -0.00000000000E+00 -0.74505805969E-08  0.93827000000E+00  0.93827000000E+00 0. -1.
     999902    2    1    2    0    0 -0.18518433623E-01 -0.79928535124E-02 -0.13903946977E-01  0.10194322892E+01  0.10191378977E+01 0.  0.
     999903    2    3    3    0    0  0.36142790103E-01  0.21601749938E-01 -0.12198639159E+00  0.13064350400E+00  0.20349656669E-01 0.  0.
         14    1    1    2    0    0  0.18518433623E-01  0.79928535124E-02  0.13903946977E-01  0.24497710763E-01  0.00000000000E+00 0.  1.
     999901    1    3    3    0    0 -0.54661223726E-01 -0.29594603450E-01  0.10808244461E+00  0.88878878524E+00  0.88000000000E+00 0.  1.
        -11    1    4    4    0    0  0.19261227796E-01  0.18449760789E-01 -0.50404432260E-01  0.57028558476E-01  0.51100000000E-03 0.  1.
         11    1    4    4    0    0  0.16881562308E-01  0.31519891492E-02 -0.71581959331E-01  0.73614945522E-01  0.51100000000E-03 0. -1.
</event>
<event>
 8    1  0.1091347E+005  0.1043930E+01  0.7957747E-01            NaN
         13   -1    0    0    0    0  0.00000000000E+00  0.00000000000E+00  0.74505805969E-08  0.10566000000E+00  0.10566000000E+00 0. -1.
     999900   -1    0    0    0    0 -0.00000000000E+00 -0.00000000000E+00 -0.74505805969E-08  0.93827000000E+00  0.93827000000E+00 0.  1.
     999902    2    1    2    0    0  0.23949607794E-01 -0.15702862778E-02  0.33930503418E-03  0.10199265702E+01  0.10196440771E+01 0.  0.
     999903    2    3    3    0    0  0.46944049288E-01 -0.76692425294E-01  0.93638875374E-01  0.13151400282E+00  0.21029077405E-01 0.  0.
         14    1    1    2    0    0 -0.23949607794E-01  0.15702862778E-02 -0.33930503418E-03  0.24003429763E-01  0.00000000000E+00 0.  1.
     999901    1    3    3    0    0 -0.22994441494E-01  0.75122139016E-01 -0.93299570340E-01  0.88841256741E+00  0.88000000000E+00 0.  1.
        -11    1    4    4    0    0  0.33472750904E-01 -0.43635957381E-01  0.44335450472E-01  0.70642870264E-01  0.51100000000E-03 0.  1.
         11    1    4    4    0    0  0.13471298384E-01 -0.33056467914E-01  0.49303424902E-01  0.60871132560E-01  0.51100000000E-03 0. -1.
</event>
<event>
 8    1  0.1091347E+005  0.1043930E+01  0.7957747E-01            NaN
         13   -1    0    0    0    0  0.00000000000E+00  0.00000000000E+00  0.74505805969E-08  0.10566000000E+00  0.10566000000E+00 0.  1.
     999900   -1    0    0    0    0 -0.00000000000E+00 -0.00000000000E+00 -0.74505805969E-08  0.93827000000E+00  0.93827000000E+00 0.  1.
     999902    2    1    2    0    0 -0.16321285170E-01 -0.10814422374E-01  0.14085735341E-01  0.10198106298E+01  0.10195253683E+01 0.  0.
     999903    2    3    3    0    0 -0.12891761974E+00 -0.15510282220E-01  0.18444413327E-01  0.13261336661E+00  0.19641463435E-01 0.  0.
         14    1    1    2    0    0  0.16321285170E-01  0.10814422374E-01 -0.14085735341E-01  0.24119370244E-01  0.00000000000E+00 0.  1.
     999901    1    3    3    0    0  0.11259633457E+00  0.46958598461E-02 -0.43586779867E-02  0.88719726315E+00  0.88000000000E+00 0. -1.
        -11    1    4    4    0    0 -0.60386363559E-01 -0.12560425001E-01  0.17084508212E-01  0.64003271182E-01  0.51100000000E-03 0. -1.
         11    1    4    4    0    0 -0.68531256184E-01 -0.29498572195E-02  0.13599051152E-02  0.68610095429E-01  0.51100000000E-03 0.  1.
</event>
<event>
 8    1  0.1091347E+005  0.1043930E+01  0.7957747E-01            NaN
         13   -1    0    0    0    0  0.00000000000E+00  0.00000000000E+00  0.74505805969E-08  0.10566000000E+00  0.10566000000E+00 0. -1.
     999900   -1    0    0    0    0 -0.00000000000E+00 -0.00000000000E+00 -0.74505805969E-08  0.93827000000E+00  0.93827000000E+00 0.  1.
     999902    2    1    2    0    0  0.49019835375E-02 -0.21748508899E-01  0.57784973353E-02  0.10208991921E+01  0.10206393792E+01 0.  0.
     999903    2    3    3    0    0 -0.56905083780E-01 -0.10976525024E+00  0.46167443910E-01  0.13343182517E+00  0.19647401098E-01 0.  0.
         14    1    1    2    0    0 -0.49019835375E-02  0.21748508899E-01 -0.57784973353E-02  0.23030807919E-01  0.00000000000E+00 0.  1.
     999901    1    3    3    0    0  0.61807067317E-01  0.88016741345E-01 -0.40388946575E-01  0.88746736691E+00  0.88000000000E+00 0.  1.
        -11    1    4    4    0    0 -0.16953464512E-01 -0.23186646744E-01  0.18409112996E-01  0.34120332772E-01  0.51100000000E-03 0.  1.
         11    1    4    4    0    0 -0.39951619268E-01 -0.86578603500E-01  0.27758330914E-01  0.99311492398E-01  0.51100000000E-03 0. -1.
</event>
<event>
 8    1  0.1091347E+005  0.1043930E+01  0.7957747E-01            NaN
         13   -1    0    0    0    0  0.00000000000E+00  0.00000000000E+00  0.74505805969E-08  0.10566000000E+00  0.10566000000E+00 0.  1.
     999900   -1    0    0    0    0 -0.00000000000E+00 -0.00000000000E+00 -0.74505805969E-08  0.93827000000E+00  0.93827000000E+00 0.  1.
     999902    2    1    2    0    0  0.92945136211E-02  0.41958737083E-02  0.20205892221E-01  0.10212965862E+01  0.10210457608E+01 0.  0.
     999903    2    3    3    0    0  0.60362838537E-01 -0.35706707669E-02  0.11731776754E+00  0.13444879241E+00  0.25624153371E-01 0.  0.
         14    1    1    2    0    0 -0.92945136211E-02 -0.41958737083E-02 -0.20205892221E-01  0.22633413796E-01  0.00000000000E+00 0. -1.
     999901    1    3    3    0    0 -0.51068324916E-01  0.77665444751E-02 -0.97111875316E-01  0.88684779379E+00  0.88000000000E+00 0.  1.
        -11    1    4    4    0    0  0.50613026567E-01  0.71945052421E-02  0.92573140153E-01  0.10575200595E+00  0.51100000000E-03 0. -1.
         11    1    4    4    0    0  0.97498119701E-02 -0.10765176009E-01  0.24744627383E-01  0.28696786463E-01  0.51100000000E-03 0.  1.
</event>
<event>
 8    1  0.1091347E+005  0.1043930E+01  0.7957747E-01            NaN
         13   -1    0    0    0    0  0.00000000000E+00  0.00000000000E+00  0.74505805969E-08  0.10566000000E+00  0.10566000000E+00 0. -1.
     999900   -1    0    0    0    0 -0.00000000000E+00 -0.00000000000E+00 -0.74505805969E-08  0.93827000000E+00  0.93827000000E+00 0. -1.
     999902    2    1    2    0    0  0.83977913653E-02  0.21577481451E-01  0.39909997283E-02  0.10204344965E+01  0.10201639687E+01 0.  0.
     999903    2    3    3    0    0 -0.12734023877E-01  0.87042418161E-01 -0.96431635814E-01  0.13205568244E+00  0.20027604835E-01 0.  0.
         14    1    1    2    0    0 -0.83977913653E-02 -0.21577481451E-01 -0.39909997283E-02  0.23495503494E-01  0.00000000000E+00 0. -1.
     999901    1    3    3    0    0  0.21131815243E-01 -0.65464936709E-01  0.10042263554E+00  0.88837881407E+00  0.88000000000E+00 0.  1.
        -11    1    4    4    0    0 -0.57405459393E-03  0.55417025554E-01 -0.68698632797E-01  0.88267431872E-01  0.51100000000E-03 0. -1.
         11    1    4    4    0    0 -0.12159969284E-01  0.31625392606E-01 -0.27733003016E-01  0.43788250568E-01  0.51100000000E-03 0.  1.
</event>
<event>
 8    1  0.1091347E+005  0.1043930E+01  0.7957747E-01            NaN
         13   -1    0    0    0    0  0.00000000000E+00  0.00000000000E+00  0.74505805969E-08  0.10566000000E+00  0.10566000000E+00 0.  1.
     999900   -1    0    0    0    0 -0.00000000000E+00 -0.00000000000E+00 -0.74505805969E-08  0.93827000000E+00  0.93827000000E+00 0.  1.
     999902    2    1    2    0    0  0.53860410264E-02  0.20280059656E-01  0.15759291150E-01  0.10176879438E+01  0.10173495493E+01 0.  0.
     999903    2    3    3    0    0 -0.10009395322E+00  0.79242757827E-01  0.48671075088E-02  0.12936296460E+00  0.20319294633E-01 0.  0.
         14    1    1    2    0    0 -0.53860410264E-02 -0.20280059656E-01 -0.15759291150E-01  0.26242056229E-01  0.00000000000E+00 0. -1.
     999901    1    3    3    0    0  0.10547999425E+00 -0.58962698171E-01  0.10892183642E-01  0.88832497917E+00  0.88000000000E+00 0. -1.
        -11    1    4    4    0    0 -0.49680028289E-01  0.35664181748E-01 -0.73968142909E-02  0.61603677270E-01  0.51100000000E-03 0. -1.
         11    1    4    4    0    0 -0.50413924931E-01  0.43578576078E-01  0.12263921800E-01  0.67759287325E-01  0.51100000000E-03 0.  1.
</event>
<event>
 8    1  0.1091347E+005  0.1043930E+01  0.7957747E-01            NaN
         13   -1    0    0    0    0  0.00000000000E+00  0.00000000000E+00  0.74505805969E-08  0.10566000000E+00  0.10566000000E+00 0.  1.
     999900   -1    0    0    0    0 -0.00000000000E+00 -0.00000000000E+00 -0.74505805969E-08  0.93827000000E+00  0.93827000000E+00 0.  1.
     999902    2    1    2    0    0  0.12035069503E-01  0.18782507809E-01 -0.84558713219E-02  0.10200736118E+01  0.10197946098E+01 0.  0.
     999903    2    3    3    0    0 -0.10996796368E+00  0.63426687976E-01  0.20808647850E-01  0.13005436763E+00  0.19111277625E-01 0.  0.
         14    1    1    2    0    0 -0.12035069503E-01 -0.18782507809E-01  0.84558713219E-02  0.23856388187E-01  0.00000000000E+00 0.  1.
     999901    1    3    3    0    0  0.12200303318E+00 -0.44644180167E-01 -0.29264519172E-01  0.89001924418E+00  0.88000000000E+00 0. -1.
        -11    1    4    4    0    0 -0.76997554116E-01  0.35672762509E-01  0.18735173881E-01  0.86904759284E-01  0.51100000000E-03 0. -1.
         11    1    4    4    0    0 -0.32970409560E-01  0.27753925467E-01  0.20734739693E-02  0.43149608349E-01  0.51100000000E-03 0.  1.
</event>
<event>
 8    1  0.1091347E+005  0.1043930E+01  0.7957747E-01            NaN
         13   -1    0    0    0    0  0.00000000000E+00  0.00000000000E+00  0.74505805969E-08  0.10566000000E+00  0.10566000000E+00 0. -1.
     999900   -1    0    0    0    0 -0.00000000000E+00 -0.00000000000E+00 -0.74505805969E-08  0.93827000000E+00  0.93827000000E+00 0. -1.
     999902    2    1    2    0    0 -0.22446060638E-01 -0.96770117244E-02  0.92387976274E-03  0.10194693429E+01  0.10191758520E+01 0.  0.
     999903    2    3    3    0    0  0.12263927921E+00  0.22940759330E-01  0.12284256346E-01  0.12692089432E+00  0.19782295540E-01 0.  0.
         14    1    1    2    0    0  0.22446060638E-01  0.96770117244E-02 -0.92387976274E-03  0.24460657143E-01  0.00000000000E+00 0.  1.
     999901    1    3    3    0    0 -0.14508533985E+00 -0.32617771054E-01 -0.11360376583E-01  0.89254844854E+00  0.88000000000E+00 0.  1.
        -11    1    4    4    0    0  0.83689749464E-01  0.21893972721E-01  0.15248673336E-01  0.87841353395E-01  0.51100000000E-03 0.  1.
         11    1    4    4    0    0  0.38949529748E-01  0.10467866090E-02 -0.29644169901E-02  0.39079540925E-01  0.51100000000E-03 0. -1.
</event>
<event>
 8    1  0.1091347E+005  0.1043930E+01  0.7957747E-01            NaN
         13   -1    0    0    0    0  0.00000000000E+00  0.00000000000E+00  0.74505805969E-08  0.10566000000E+00  0.10566000000E+00 0. -1.
     999900   -1    0    0    0    0 -0.00000000000E+00 -0.00000000000E+00 -0.74505805969E-08  0.93827000000E+00  0.93827000000E+00 0.  1.
     999902    2    1    2    0    0  0.60488438507E-03  0.12804452705E-01 -0.19138257618E-01  0.10208954000E+01  0.10206355005E+01 0.  0.
     999903    2    3    3    0    0 -0.20715690561E-01 -0.95037783707E-01  0.81397042926E-01  0.12837544975E+00  0.19835758984E-01 0.  0.
         14    1    1    2    0    0 -0.60488438507E-03 -0.12804452705E-01  0.19138257618E-01  0.23034600037E-01  0.00000000000E+00 0. -1.
     999901    1    3    3    0    0  0.21320574946E-01  0.10784223641E+00 -0.10053530054E+00  0.89251995021E+00  0.88000000000E+00 0. -1.
        -11    1    4    4    0    0 -0.14194228996E-01 -0.41005247436E-01  0.47099974266E-01  0.64043541056E-01  0.51100000000E-03 0. -1.
         11    1    4    4    0    0 -0.65214615650E-02 -0.54032536271E-01  0.34297068660E-01  0.64331908696E-01  0.51100000000E-03 0.  1.
</event>
<event>
 8    1  0.1091347E+005  0.1043930E+01  0.7957747E-01            NaN
         13   -1    0    0    0    0  0.00000000000E+00  0.00000000000E+00  0.74505805969E-08  0.10566000000E+00  0.10566000000E+00 0.  1.
     999900   -1    0    0    0    0 -0.00000000000E+00 -0.00000000000E+00 -0.74505805969E-08  0.93827000000E+00  0.93827000000E+00 0. -1.
     999902    2    1    2    0    0  0.93134127273E-02  0.13899247234E-01  0.79457162159E-03  0.10271800724E+01  0.10270434952E+01 0.  0.
     999903    2    3    3    0    0  0.62141650305E-01 -0.63089392566E-01  0.10174025100E+00  0.13650162115E+00  0.20970401669E-01 0.  0.
         14    1    1    2    0    0 -0.93134127273E-02 -0.13899247234E-01 -0.79457162159E-03  0.16749927593E-01  0.00000000000E+00 0. -1.
     999901    1    3    3    0    0 -0.52828237578E-01  0.76988639800E-01 -0.10094567938E+00  0.89067845125E+00  0.88000000000E+00 0. -1.
        -11    1    4    4    0    0  0.11542312830E-01 -0.14261830179E-01  0.99677341278E-02  0.20886398210E-01  0.51100000000E-03 0. -1.
         11    1    4    4    0    0  0.50599337475E-01 -0.48827562387E-01  0.91772516875E-01  0.11561522294E+00  0.51100000000E-03 0.  1.
</event>
<event>
 8    1  0.1091347E+005  0.1043930E+01  0.7957747E-01            NaN
         13   -1    0    0    0    0  0.00000000000E+00  0.00000000000E+00  0.74505805969E-08  0.10566000000E+00  0.10566000000E+00 0.  1.
     999900   -1    0    0    0    0 -0.00000000000E+00 -0.00000000000E+00 -0.74505805969E-08  0.93827000000E+00  0.93827000000E+00 0.  1.
     999902    2    1    2    0    0  0.24521581086E-03  0.19224877944E-01  0.11987987288E-01  0.10212723765E+01  0.10210210082E+01 0.  0.
     999903    2    3    3    0    0 -0.57933662382E-01 -0.87605929568E-01 -0.72151424127E-01  0.12892880823E+00  0.19639283500E-01 0.  0.
         14    1    1    2    0    0 -0.24521581086E-03 -0.19224877944E-01 -0.11987987288E-01  0.22657623485E-01  0.00000000000E+00 0. -1.
     999901    1    3    3    0    0  0.58178878193E-01  0.10683080751E+00  0.84139411415E-01  0.89234356828E+00  0.88000000000E+00 0. -1.
        -11    1    4    4    0    0 -0.15239351236E-01 -0.40296323070E-01 -0.30766086386E-01  0.52941899017E-01  0.51100000000E-03 0. -1.
         11    1    4    4    0    0 -0.42694311146E-01 -0.47309606499E-01 -0.41385337741E-01  0.75986909216E-01  0.51100000000E-03 0.  1.
</event>
<event>
 8    1  0.1091347E+005  0.1043930E+01  0.7957747E-01            NaN
         13   -1    0    0    0    0  0.00000000000E+00  0.00000000000E+00  0.74505805969E-08  0.10566000000E+00  0.10566000000E+00 0.  1.
     999900   -1    0    0    0    0 -0.00000000000E+00 -0.00000000000E+00 -0.74505805969E-08  0.93827000000E+00  0.93827000000E+00 0.  1.
     999902    2    1    2    0    0  0.95275050190E-02 -0.57412873968E-02 -0.21486151793E-01  0.10197351565E+01  0.10194480855E+01 0.  0.
     999903    2    3    3    0    0  0.85359216616E-01  0.32593561614E-01 -0.93947515503E-01  0.13267785376E+00  0.20706064039E-01 0.  0.
         14    1    1    2    0    0 -0.95275050190E-02  0.57412873968E-02  0.21486151793E-01  0.24194843494E-01  0.00000000000E+00 0.  1.
     999901    1    3    3    0    0 -0.75831711597E-01 -0.38334849011E-01  0.72461363710E-01  0.88705730275E+00  0.88000000000E+00 0. -1.
        -11    1    4    4    0    0  0.64604275653E-01  0.16022717974E-01 -0.73459061336E-01  0.99130896986E-01  0.51100000000E-03 0.  1.
         11    1    4    4    0    0  0.20754940963E-01  0.16570843640E-01 -0.20488454167E-01  0.33546956769E-01  0.51100000000E-03 0. -1.
</event>
<event>
 8    1  0.1183165E+005  0.1043930E+01  0.7957747E-01            NaN
         13   -1    0    0    0    0  0.00000000000E+00  0.00000000000E+00  0.74505805969E-08  0.10566000000E+00  0.10566000000E+00 0.  1.
     999900   -1    0    0    0    0 -0.00000000000E+00 -0.00000000000E+00 -0.74505805969E-08  0.93827000000E+00  0.93827000000E+00 0. -1.
     999902    2    1    2    0    0 -0.66804681662E-02  0.21985387977E-01 -0.50308516821E-02  0.10204077678E+01  0.10201366169E+01 0.  0.
     999903    2    3    3    0    0 -0.11386342134E+00  0.43592191133E-01 -0.48077933043E-01  0.13259692611E+00  0.20132047095E-01 0.  0.
         14    1    1    2    0    0  0.66804681662E-02 -0.21985387977E-01  0.50308516821E-02  0.23522232208E-01  0.00000000000E+00 0.  1.
     999901    1    3    3    0    0  0.10718295318E+00 -0.21606803156E-01  0.43047081361E-01  0.88781084168E+00  0.88000000000E+00 0.  1.
        -11    1    4    4    0    0 -0.57929688103E-01  0.32055183788E-01 -0.21591526295E-01  0.69640783311E-01  0.51100000000E-03 0.  1.
         11    1    4    4    0    0 -0.55933733241E-01  0.11537007345E-01 -0.26486406748E-01  0.62956142799E-01  0.51100000000E-03 0. -1.
</event>
<event>
 8    1  0.1091347E+005  0.1043930E+01  0.7957747E-01            NaN
         13   -1    0    0    0    0  0.00000000000E+00  0.00000000000E+00  0.74505805969E-08  0.10566000000E+00  0.10566000000E+00 0. -1.
     999900   -1    0    0    0    0 -0.00000000000E+00 -0.00000000000E+00 -0.74505805969E-08  0.93827000000E+00  0.93827000000E+00 0.  1.
     999902    2    1    2    0    0 -0.73041569120E-02  0.14245905218E-01 -0.17063453175E-01  0.10205321805E+01  0.10202639234E+01 0.  0.
     999903    2    3    3    0    0 -0.49803649277E-01 -0.42371978517E-01 -0.11425133119E+00  0.13235580429E+00  0.13744242612E-01 0.  0.
         14    1    1    2    0    0  0.73041569120E-02 -0.14245905218E-01  0.17063453175E-01  0.23397819512E-01  0.00000000000E+00 0. -1.
     999901    1    3    3    0    0  0.42499492365E-01  0.56617883735E-01  0.97187878014E-01  0.88817637620E+00  0.88000000000E+00 0. -1.
        -11    1    4    4    0    0 -0.30175248643E-01 -0.19403262512E-01 -0.71580758072E-01  0.80069334167E-01  0.51100000000E-03 0.  1.
         11    1    4    4    0    0 -0.19628400634E-01 -0.22968716005E-01 -0.42670573117E-01  0.52286470119E-01  0.51100000000E-03 0. -1.
</event>
<event>
 8    1  0.1091347E+005  0.1043930E+01  0.7957747E-01            NaN
         13   -1    0    0    0    0  0.00000000000E+00  0.00000000000E+00  0.74505805969E-08  0.10566000000E+00  0.10566000000E+00 0. -1.
     999900   -1    0    0    0    0 -0.00000000000E+00 -0.00000000000E+00 -0.74505805969E-08  0.93827000000E+00  0.93827000000E+00 0.  1.
     999902    2    1    2    0    0  0.21265270338E-01  0.88061690876E-02  0.27582942086E-02  0.10207487894E+01  0.10204855328E+01 0.  0.
     999903    2    3    3    0    0  0.36399983109E-01  0.70907957759E-01  0.10416500609E+00  0.13262210201E+00  0.19631001094E-01 0.  0.
         14    1    1    2    0    0 -0.21265270338E-01 -0.88061690876E-02 -0.27582942086E-02  0.23181210570E-01  0.00000000000E+00 0. -1.
     999901    1    3    3    0    0 -0.15134712771E-01 -0.62101788671E-01 -0.10140671189E+00  0.88812668742E+00  0.88000000000E+00 0.  1.
        -11    1    4    4    0    0  0.31406931655E-01  0.67931534044E-01  0.88487671156E-01  0.11589399355E+00  0.51100000000E-03 0. -1.
         11    1    4    4    0    0  0.49930514535E-02  0.29764237141E-02  0.15677334939E-01  0.16728108462E-01  0.51100000000E-03 0.  1.
</event>
<event>
 7    1  0.1692463E+005  0.1043930E+01  0.7957747E-01            NaN
         13   -1    0    0    0    0  0.00000000000E+00  0.00000000000E+00  0.74505805969E-08  0.10566000000E+00  0.10566000000E+00 0.  1.
     999900   -1    0    0    0    0 -0.00000000000E+00 -0.00000000000E+00 -0.74505805969E-08  0.93827000000E+00  0.93827000000E+00 0. -1.
     999903    2    1    2    0    0 -0.60811502715E-01 -0.90557890947E-01 -0.33919005142E-01  0.11603192169E+00  0.20350367684E-01 0.  0.
         14    1    1    2    0    0 -0.43439113499E-02  0.36353604558E-01 -0.20847030819E-01  0.42131375768E-01  0.00000000000E+00 0. -1.
     999901    1    1    2    0    0  0.65155414065E-01  0.54204286389E-01  0.54766035961E-01  0.88576670255E+00  0.88000000000E+00 0. -1.
        -11    1    3    3    0    0 -0.28557308640E-01 -0.53746715824E-01 -0.10466753373E-01  0.61757941885E-01  0.51100000000E-03 0. -1.
         11    1    3    3    0    0 -0.32254194075E-01 -0.36811175123E-01 -0.23452251769E-01  0.54273979801E-01  0.51100000000E-03 0.  1.
</event>
<event>
 8    1  0.1091347E+005  0.1043930E+01  0.7957747E-01            NaN
         13   -1    0    0    0    0  0.00000000000E+00  0.00000000000E+00  0.74505805969E-08  0.10566000000E+00  0.10566000000E+00 0. -1.
     999900   -1    0    0    0    0 -0.00000000000E+00 -0.00000000000E+00 -0.74505805969E-08  0.93827000000E+00  0.93827000000E+00 0.  1.
     999902    2    1    2    0    0 -0.13328866034E-01  0.79049969468E-02 -0.17597164345E-01  0.10204820184E+01  0.10202125965E+01 0.  0.
     999903    2    3    3    0    0  0.97112057646E-01 -0.82088936041E-01 -0.50796817304E-02  0.12893684685E+00  0.20725881156E-01 0.  0.
         14    1    1    2    0    0  0.13328866034E-01 -0.79049969468E-02  0.17597164345E-01  0.23447981565E-01  0.00000000000E+00 0. -1.
     999901    1    3    3    0    0 -0.11044092368E+00  0.89993932988E-01 -0.12517482614E-01  0.89154517158E+00  0.88000000000E+00 0.  1.
        -11    1    4    4    0    0  0.85787533752E-01 -0.62705115724E-01 -0.20854468198E-02  0.10628284290E+00  0.51100000000E-03 0. -1.
         11    1    4    4    0    0  0.11324523893E-01 -0.19383820317E-01 -0.29942349106E-02  0.22654003955E-01  0.51100000000E-03 0.  1.
</event>
<event>
 8    1  0.1091347E+005  0.1043930E+01  0.7957747E-01            NaN
         13   -1    0    0    0    0  0.00000000000E+00  0.00000000000E+00  0.74505805969E-08  0.10566000000E+00  0.10566000000E+00 0. -1.
     999900   -1    0    0    0    0 -0.00000000000E+00 -0.00000000000E+00 -0.74505805969E-08  0.93827000000E+00  0.93827000000E+00 0. -1.
     999902    2    1    2    0    0 -0.39544833031E-02 -0.10465832525E-01 -0.20853669598E-01  0.10202646852E+01  0.10199901866E+01 0.  0.
     999903    2    3    3    0    0 -0.28038648200E-01 -0.22854687220E-01 -0.12697143658E+00  0.13347580887E+00  0.19635257219E-01 0.  0.
         14    1    1    2    0    0  0.39544833031E-02  0.10465832525E-01  0.20853669598E-01  0.23665314795E-01  0.00000000000E+00 0. -1.
     999901    1    3    3    0    0  0.24084164897E-01  0.12388854695E-01  0.10611776698E+00  0.88678887633E+00  0.88000000000E+00 0.  1.
        -11    1    4    4    0    0 -0.12285726802E-01 -0.19488980705E-02 -0.21898577111E-01  0.25190198237E-01  0.51100000000E-03 0.  1.
         11    1    4    4    0    0 -0.15752921397E-01 -0.20905789150E-01 -0.10507285947E+00  0.10828561063E+00  0.51100000000E-03 0. -1.
</event>
<event>
 8    1  0.1091347E+005  0.1043930E+01  0.7957747E-01            NaN
         13   -1    0    0    0    0  0.00000000000E+00  0.00000000000E+00  0.74505805969E-08  0.10566000000E+00  0.10566000000E+00 0.  1.
     999900   -1    0    0    0    0 -0.00000000000E+00 -0.00000000000E+00 -0.74505805969E-08  0.93827000000E+00  0.93827000000E+00 0.  1.
     999902    2    1    2    0    0  0.78114128413E-02  0.75203470067E-03 -0.22011843676E-01  0.10205611107E+01  0.10202935242E+01 0.  0.
     999903    2    3    3    0    0 -0.11433225489E+00  0.21203821194E-01 -0.57831147409E-01  0.13116784913E+00  0.18414572861E-01 0.  0.
         14    1    1    2    0    0 -0.78114128413E-02 -0.75203470067E-03  0.22011843676E-01  0.23368889336E-01  0.00000000000E+00 0.  1.
     999901    1    3    3    0    0  0.12214366773E+00 -0.20451786494E-01  0.35819303733E-01  0.88939326153E+00  0.88000000000E+00 0. -1.
        -11    1    4    4    0    0 -0.46561008235E-01  0.37624571654E-02 -0.14750031323E-01  0.48988857067E-01  0.51100000000E-03 0. -1.
         11    1    4    4    0    0 -0.67771246656E-01  0.17441364029E-01 -0.43081116087E-01  0.82178992065E-01  0.51100000000E-03 0.  1.
</event>
<event>
 8    1  0.1240899E+005  0.1043930E+01  0.7957747E-01            NaN
         13   -1    0    0    0    0  0.00000000000E+00  0.00000000000E+00  0.74505805969E-08  0.10566000000E+00  0.10566000000E+00 0.  1.
     999900   -1    0    0    0    0 -0.00000000000E+00 -0.00000000000E+00 -0.74505805969E-08  0.93827000000E+00  0.93827000000E+00 0.  1.
     999902    2    1    2    0    0 -0.22766164776E-01 -0.54468920398E-02 -0.15906094094E-02  0.10204673290E+01  0.10201975655E+01 0.  0.
     999903    2    3    3    0    0 -0.95279060603E-01  0.81971908699E-01 -0.36677088622E-01  0.13247452059E+00  0.20169198580E-01 0.  0.
         14    1    1    2    0    0  0.22766164776E-01  0.54468920398E-02  0.15906094094E-02  0.23462670986E-01  0.00000000000E+00 0. -1.
     999901    1    3    3    0    0  0.72512895827E-01 -0.87418800738E-01  0.35086479213E-01  0.88799280842E+00  0.88000000000E+00 0. -1.
        -11    1    4    4    0    0 -0.53042012938E-01  0.51003467799E-01 -0.11936558467E-01  0.74548986668E-01  0.51100000000E-03 0.  1.
         11    1    4    4    0    0 -0.42237047665E-01  0.30968440899E-01 -0.24740530155E-01  0.57925533925E-01  0.51100000000E-03 0. -1.
</event>
<event>
 7    1  0.1091347E+005  0.1043930E+01  0.7957747E-01            NaN
         13   -1    0    0    0    0  0.00000000000E+00  0.00000000000E+00  0.74505805969E-08  0.10566000000E+00  0.10566000000E+00 0.  1.
     999900   -1    0    0    0    0 -0.00000000000E+00 -0.00000000000E+00 -0.74505805969E-08  0.93827000000E+00  0.93827000000E+00 0. -1.
     999903    2    1    2    0    0  0.27873777005E-01 -0.90538370625E-01 -0.80810373853E-02  0.98450775565E-01  0.25555978638E-01 0.  0.
         14    1    1    2    0    0  0.23713586914E-01  0.89962585484E-02 -0.52323664523E-01  0.58146648582E-01  0.00000000000E+00 0. -1.
     999901    1    1    2    0    0 -0.51587363919E-01  0.81542112077E-01  0.60404701908E-01  0.88733257585E+00  0.88000000000E+00 0.  1.
        -11    1    3    3    0    0  0.20164097275E-01 -0.86571383513E-01 -0.10303989225E-01  0.89485353981E-01  0.51100000000E-03 0.  1.
         11    1    3    3    0    0  0.77096797302E-02 -0.39669871124E-02  0.22229518394E-02  0.89654215837E-02  0.51100000000E-03 0. -1.
</event>
<event>
 8    1  0.1091347E+005  0.1043930E+01  0.7957747E-01            NaN
         13   -1    0    0    0    0  0.00000000000E+00  0.00000000000E+00  0.74505805969E-08  0.10566000000E+00  0.10566000000E+00 0.  1.
     999900   -1    0    0    0    0 -0.00000000000E+00 -0.00000000000E+00 -0.74505805969E-08  0.93827000000E+00  0.93827000000E+00 0.  1.
     999902    2    1    2    0    0 -0.14624005272E-01 -0.19985348388E-01  0.43263291230E-03  0.10191618178E+01  0.10188608089E+01 0.  0.
     999903    2    3    3    0    0  0.75962579224E-02  0.50556709997E-01 -0.11612773622E+00  0.12840021006E+00  0.19679399461E-01 0.  0.
         14    1    1    2    0    0  0.14624005272E-01  0.19985348388E-01 -0.43263291230E-03  0.24768182243E-01  0.00000000000E+00 0.  1.
     999901    1    3    3    0    0 -0.22220263195E-01 -0.70542058385E-01  0.11656036913E+00  0.89076160770E+00  0.88000000000E+00 0. -1.
        -11    1    4    4    0    0  0.96068905994E-02  0.90072116178E-02 -0.27625851103E-01  0.30608348179E-01  0.51100000000E-03 0.  1.
         11    1    4    4    0    0 -0.20106326770E-02  0.41549498379E-01 -0.88501885118E-01  0.97791861879E-01  0.51100000000E-03 0. -1.
</event>
<event>
 8    1  0.1091347E+005  0.1043930E+01  0.7957747E-01            NaN
         13   -1    0    0    0    0  0.00000000000E+00  0.00000000000E+00  0.74505805969E-08  0.10566000000E+00  0.10566000000E+00 0.  1.
     999900   -1    0    0    0    0 -0.00000000000E+00 -0.00000000000E+00 -0.74505805969E-08  0.93827000000E+00  0.93827000000E+00 0. -1.
     999902    2    1    2    0    0 -0.20959998976E-02  0.18713257090E-02  0.22614324751E-01  0.10211417846E+01  0.10208874774E+01 0.  0.
     999903    2    3    3    0    0 -0.40649587672E-01  0.11128337563E+00 -0.50939644455E-01  0.13048609236E+00  0.19884522953E-01 0.  0.
         14    1    1    2    0    0  0.20959998976E-02 -0.18713257090E-02 -0.22614324751E-01  0.22788215363E-01  0.00000000000E+00 0. -1.
     999901    1    3    3    0    0  0.38553587774E-01 -0.10941204992E+00  0.73553969206E-01  0.89065569228E+00  0.88000000000E+00 0.  1.
        -11    1    4    4    0    0 -0.65632345317E-02  0.44733750738E-01 -0.16117257503E-01  0.48002204252E-01  0.51100000000E-03 0.  1.
         11    1    4    4    0    0 -0.34086353140E-01  0.66549624891E-01 -0.34822386952E-01  0.82483888109E-01  0.51100000000E-03 0. -1.
</event>
<event>
 8    1  0.1091347E+005  0.1043930E+01  0.7957747E-01            NaN
         13   -1    0    0    0    0  0.00000000000E+00  0.00000000000E+00  0.74505805969E-08  0.10566000000E+00  0.10566000000E+00 0.  1.
     999900   -1    0    0    0    0 -0.00000000000E+00 -0.00000000000E+00 -0.74505805969E-08  0.93827000000E+00  0.93827000000E+00 0.  1.
     999902    2    1    2    0    0  0.65742889232E-02  0.46530796668E-02  0.20732473851E-01  0.10216879700E+01  0.10214458381E+01 0.  0.
     999903    2    3    3    0    0  0.64027106803E-01 -0.69800141621E-01 -0.85010160473E-01  0.13038240337E+00  0.28307482218E-01 0.  0.
         14    1    1    2    0    0 -0.65742889232E-02 -0.46530796668E-02 -0.20732473851E-01  0.22242029970E-01  0.00000000000E+00 0. -1.
     999901    1    3    3    0    0 -0.57452817879E-01  0.74453221288E-01  0.10574263432E+00  0.89130556666E+00  0.88000000000E+00 0.  1.
        -11    1    4    4    0    0  0.39260888539E-01 -0.25968800343E-01 -0.52182852789E-01  0.70278782049E-01  0.51100000000E-03 0.  1.
         11    1    4    4    0    0  0.24766218264E-01 -0.43831341278E-01 -0.32827307683E-01  0.60103621322E-01  0.51100000000E-03 0. -1.
</event>
<event>
 8    1  0.1091347E+005  0.1043930E+01  0.7957747E-01            NaN
         13   -1    0    0    0    0  0.00000000000E+00  0.00000000000E+00  0.74505805969E-08  0.10566000000E+00  0.10566000000E+00 0. -1.
     999900   -1    0    0    0    0 -0.00000000000E+00 -0.00000000000E+00 -0.74505805969E-08  0.93827000000E+00  0.93827000000E+00 0. -1.
     999902    2    1    2    0    0 -0.19656274814E-03 -0.22941072789E-01 -0.75797718811E-02  0.10197683693E+01  0.10194820953E+01 0.  0.
     999903    2    3    3    0    0  0.86104332369E-01  0.37060703420E-01 -0.87740662023E-01  0.12989544242E+00  0.19671054810E-01 0.  0.
         14    1    1    2    0    0  0.19656274814E-03  0.22941072789E-01  0.75797718811E-02  0.24161630727E-01  0.00000000000E+00 0. -1.
     999901    1    3    3    0    0 -0.86300895117E-01 -0.60001776209E-01  0.80160890142E-01  0.88987292686E+00  0.88000000000E+00 0.  1.
        -11    1    4    4    0    0  0.58268730258E-01  0.27240713949E-01 -0.47378230657E-01  0.79889043576E-01  0.51100000000E-03 0. -1.
         11    1    4    4    0    0  0.27835602111E-01  0.98199894712E-02 -0.40362431366E-01  0.50006398839E-01  0.51100000000E-03 0.  1.
</event>
<event>
 8    1  0.1091347E+005  0.1043930E+01  0.7957747E-01            NaN
         13   -1    0    0    0    0  0.00000000000E+00  0.00000000000E+00  0.74505805969E-08  0.10566000000E+00  0.10566000000E+00 0. -1.
     999900   -1    0    0    0    0 -0.00000000000E+00 -0.00000000000E+00 -0.74505805969E-08  0.93827000000E+00  0.93827000000E+00 0.  1.
     999902    2    1    2    0    0  0.22625821498E-01 -0.70991259722E-04 -0.32848351638E-02  0.10210668642E+01  0.10208108630E+01 0.  0.
     999903    2    3    3    0    0  0.12242828501E+00 -0.21304376797E-01 -0.46416554126E-01  0.13412169474E+00  0.19788154565E-01 0.  0.
         14    1    1    2    0    0 -0.22625821498E-01  0.70991259722E-04  0.32848351638E-02  0.22863135836E-01  0.00000000000E+00 0. -1.
     999901    1    3    3    0    0 -0.99802463515E-01  0.21233385537E-01  0.43131718962E-01  0.88694516942E+00  0.88000000000E+00 0. -1.
        -11    1    4    4    0    0  0.79054000780E-01 -0.40932040180E-02 -0.29787133763E-01  0.84580280310E-01  0.51100000000E-03 0. -1.
         11    1    4    4    0    0  0.43374284232E-01 -0.17211172779E-01 -0.16629420363E-01  0.49541414430E-01  0.51100000000E-03 0.  1.
</event>
<event>
 8    1  0.1091347E+005  0.1043930E+01  0.7957747E-01            NaN
         13   -1    0    0    0    0  0.00000000000E+00  0.00000000000E+00  0.74505805969E-08  0.10566000000E+00  0.10566000000E+00 0.  1.
     999900   -1    0    0    0    0 -0.00000000000E+00 -0.00000000000E+00 -0.74505805969E-08  0.93827000000E+00  0.93827000000E+00 0.  1.
     999902    2    1    2    0    0 -0.17255496105E-01  0.89190007226E-02 -0.94809307163E-02  0.10223154501E+01  0.10220869292E+01 0.  0.
     999903    2    3    3    0    0  0.11446984159E+00  0.31402743209E-01 -0.52003426319E-01  0.13121206335E+00  0.20561427590E-01 0.  0.
         14    1    1    2    0    0  0.17255496105E-01 -0.89190007226E-02  0.94809307163E-02  0.21614549890E-01  0.00000000000E+00 0. -1.
     999901    1    3    3    0    0 -0.13172533769E+00 -0.22483742487E-01  0.42522495602E-01  0.89110338676E+00  0.88000000000E+00 0. -1.
        -11    1    4    4    0    0  0.10508254892E+00  0.24080290801E-01 -0.50974672401E-01  0.11925133475E+00  0.51100000000E-03 0.  1.
         11    1    4    4    0    0  0.93872926684E-02  0.73224524084E-02 -0.10287539178E-02  0.11960728596E-01  0.51100000000E-03 0. -1.
</event>
<event>
 8    1  0.1091347E+005  0.1043930E+01  0.7957747E-01            NaN
         13   -1    0    0    0    0  0.00000000000E+00  0.00000000000E+00  0.74505805969E-08  0.10566000000E+00  0.10566000000E+00 0. -1.
     999900   -1    0    0    0    0 -0.00000000000E+00 -0.00000000000E+00 -0.74505805969E-08  0.93827000000E+00  0.93827000000E+00 0. -1.
     999902    2    1    2    0    0 -0.31692085105E-02 -0.22918824814E-01  0.48186856854E-03  0.10207880768E+01  0.10205257219E+01 0.  0.
     999903    2    3    3    0    0  0.32389175314E-01 -0.11265354863E+00  0.60316248634E-01  0.13349056615E+00  0.21019055731E-01 0.  0.
         14    1    1    2    0    0  0.31692085105E-02  0.22918824814E-01 -0.48186856854E-03  0.23141923229E-01  0.00000000000E+00 0.  1.
     999901    1    3    3    0    0 -0.35558383825E-01  0.89734723820E-01 -0.59834380066E-01  0.88729751062E+00  0.88000000000E+00 0.  1.
        -11    1    4    4    0    0  0.33504866284E-01 -0.91220675093E-01  0.53677880438E-01  0.11101965411E+00  0.51100000000E-03 0.  1.
         11    1    4    4    0    0 -0.11156909697E-02 -0.21432873541E-01  0.66383681965E-02  0.22470912039E-01  0.51100000000E-03 0. -1.
</event>
<event>
 8    1  0.1091347E+005  0.1043930E+01  0.7957747E-01            NaN
         13   -1    0    0    0    0  0.00000000000E+00  0.00000000000E+00  0.74505805969E-08  0.10566000000E+00  0.10566000000E+00 0.  1.
     999900   -1    0    0    0    0 -0.00000000000E+00 -0.00000000000E+00 -0.74505805969E-08  0.93827000000E+00  0.93827000000E+00 0.  1.
     999902    2    1    2    0    0  0.11799210770E-01  0.13655526558E-01  0.16820578172E-01  0.10192596407E+01  0.10189610338E+01 0.  0.
     999903    2    3    3    0    0 -0.71869424599E-01  0.14698370424E-01  0.10648468210E+00  0.13075461557E+00  0.19404269733E-01 0.  0.
         14    1    1    2    0    0 -0.11799210770E-01 -0.13655526558E-01 -0.16820578172E-01  0.24670359349E-01  0.00000000000E+00 0. -1.
     999901    1    3    3    0    0  0.83668635369E-01 -0.10428438660E-02 -0.89664103932E-01  0.88850502509E+00  0.88000000000E+00 0.  1.
        -11    1    4    4    0    0 -0.38072651899E-01  0.13790952698E-01  0.71016410193E-01  0.81751506632E-01  0.51100000000E-03 0.  1.
         11    1    4    4    0    0 -0.33796772700E-01  0.90741772590E-03  0.35468271910E-01  0.49003108933E-01  0.51100000000E-03 0. -1.
</event>
<event>
 8    1  0.1091347E+005  0.1043930E+01  0.7957747E-01            NaN
         13   -1    0    0    0    0  0.00000000000E+00  0.00000000000E+00  0.74505805969E-08  0.10566000000E+00  0.10566000000E+00 0.  1.
     999900   -1    0    0    0    0 -0.00000000000E+00 -0.00000000000E+00 -0.74505805969E-08  0.93827000000E+00  0.93827000000E+00 0. -1.
     999902    2    1    2    0    0  0.18770025043E-03  0.20925170135E-01  0.76699127255E-02  0.10216426597E+01  0.10213995294E+01 0.  0.
     999903    2    3    3    0    0 -0.10187162541E+00  0.83720732167E-01 -0.56522819536E-02  0.13342147698E+00  0.19553853034E-01 0.  0.
         14    1    1    2    0    0 -0.18770025043E-03 -0.20925170135E-01 -0.76699127255E-02  0.22287340303E-01  0.00000000000E+00 0. -1.
     999901    1    3    3    0    0  0.10205932566E+00 -0.62795562032E-01  0.13322194679E-01  0.88822118272E+00  0.88000000000E+00 0. -1.
        -11    1    4    4    0    0 -0.43994571725E-01  0.48212248663E-01  0.15286041831E-03  0.65270420174E-01  0.51100000000E-03 0. -1.
         11    1    4    4    0    0 -0.57877053686E-01  0.35508483504E-01 -0.58051423719E-02  0.68151056801E-01  0.51100000000E-03 0.  1.
</event>
<event>
 8    1  0.1091347E+005  0.1043930E+01  0.7957747E-01            NaN
         13   -1    0    0    0    0  0.00000000000E+00  0.00000000000E+00  0.74505805969E-08  0.10566000000E+00  0.10566000000E+00 0.  1.
     999900   -1    0    0    0    0 -0.00000000000E+00 -0.00000000000E+00 -0.74505805969E-08  0.93827000000E+00  0.93827000000E+00 0. -1.
     999902    2    1    2    0    0 -0.15549059314E-01 -0.86505669940E-02 -0.15120411913E-01  0.10205797878E+01  0.10203126338E+01 0.  0.
     999903    2    3    3    0    0  0.63155075002E-01  0.52018097160E-01 -0.99455080027E-01  0.13098023526E+00  0.23875995396E-01 0.  0.
         14    1    1    2    0    0  0.15549059314E-01  0.86505669940E-02  0.15120411913E-01  0.23350212232E-01  0.00000000000E+00 0.  1.
     999901    1    3    3    0    0 -0.78704134316E-01 -0.60668664154E-01  0.84334668114E-01  0.88959955250E+00  0.88000000000E+00 0. -1.
        -11    1    4    4    0    0  0.14456697651E-01  0.47033336847E-02 -0.31162405741E-01  0.34676708426E-01  0.51100000000E-03 0.  1.
         11    1    4    4    0    0  0.48698377351E-01  0.47314763475E-01 -0.68292674286E-01  0.96303526838E-01  0.51100000000E-03 0. -1.
</event>
<event>
 8    1  0.1091347E+005  0.1043930E+01  0.7957747E-01            NaN
         13   -1    0    0    0    0  0.00000000000E+00  0.00000000000E+00  0.74505805969E-08  0.10566000000E+00  0.10566000000E+00 0.  1.
     999900   -1    0    0    0    0 -0.00000000000E+00 -0.00000000000E+00 -0.74505805969E-08  0.93827000000E+00  0.93827000000E+00 0.  1.
     999902    2    1    2    0    0 -0.17167136494E-02 -0.10370247373E-01 -0.20390521189E-01  0.10209895883E+01  0.10207318340E+01 0.  0.
     999903    2    3    3    0    0 -0.36884085499E-01 -0.52604600232E-01  0.11068827793E+00  0.12958500213E+00  0.20314974188E-01 0.  0.
         14    1    1    2    0    0  0.17167136494E-02  0.10370247373E-01  0.20390521189E-01  0.22940411738E-01  0.00000000000E+00 0.  1.
     999901    1    3    3    0    0  0.35167371850E-01  0.42234352860E-01 -0.13107879912E+00  0.89140458614E+00  0.88000000000E+00 0.  1.
        -11    1    4    4    0    0 -0.15776836770E-01 -0.25301749158E-01  0.70879121116E-01  0.76897321281E-01  0.51100000000E-03 0. -1.
         11    1    4    4    0    0 -0.21107248729E-01 -0.27302851074E-01  0.39809156814E-01  0.52687680846E-01  0.51100000000E-03 0.  1.
</event>
<event>
 8    1  0.1091347E+005  0.1043930E+01  0.7957747E-01            NaN
         13   -1    0    0    0    0  0.00000000000E+00  0.00000000000E+00  0.74505805969E-08  0.10566000000E+00  0.10566000000E+00 0.  1.
     999900   -1    0    0    0    0 -0.00000000000E+00 -0.00000000000E+00 -0.74505805969E-08  0.93827000000E+00  0.93827000000E+00 0.  1.
     999902    2    1    2    0    0  0.19791151142E-01 -0.60724823672E-02  0.12355643944E-01  0.10198213575E+01  0.10195363528E+01 0.  0.
     999903    2    3    3    0    0  0.50249405127E-01 -0.12055129496E+00  0.82463938539E-02  0.13187429281E+00  0.16285228259E-01 0.  0.
         14    1    1    2    0    0 -0.19791151142E-01  0.60724823672E-02 -0.12355643944E-01  0.24108642494E-01  0.00000000000E+00 0.  1.
     999901    1    3    3    0    0 -0.30458253985E-01  0.11447881260E+00  0.41092500900E-02  0.88794706470E+00  0.88000000000E+00 0. -1.
        -11    1    4    4    0    0  0.40144323322E-01 -0.90277140956E-01  0.12812920848E-01  0.99629116908E-01  0.51100000000E-03 0. -1.
         11    1    4    4    0    0  0.10105081805E-01 -0.30274154007E-01 -0.45665269937E-02  0.32245175901E-01  0.51100000000E-03 0.  1.
</event>
<event>
 8    1  0.1091347E+005  0.1043930E+01  0.7957747E-01            NaN
         13   -1    0    0    0    0  0.00000000000E+00  0.00000000000E+00  0.74505805969E-08  0.10566000000E+00  0.10566000000E+00 0.  1.
     999900   -1    0    0    0    0 -0.00000000000E+00 -0.00000000000E+00 -0.74505805969E-08  0.93827000000E+00  0.93827000000E+00 0.  1.
     999902    2    1    2    0    0 -0.14789797418E-01  0.75811229699E-02 -0.17009827067E-01  0.10201487942E+01  0.10198715686E+01 0.  0.
     999903    2    3    3    0    0  0.31345211473E-01 -0.66566261996E-01  0.10258695585E+00  0.12777574202E+00  0.19722251929E-01 0.  0.
         14    1    1    2    0    0  0.14789797418E-01 -0.75811229699E-02  0.17009827067E-01  0.23781205815E-01  0.00000000000E+00 0.  1.
     999901    1    3    3    0    0 -0.46135008891E-01  0.74147384966E-01 -0.11959678291E+00  0.89237305216E+00  0.88000000000E+00 0.  1.
        -11    1    4    4    0    0  0.17002929908E-01 -0.55430315434E-01  0.79562910238E-01  0.98448653120E-01  0.51100000000E-03 0. -1.
         11    1    4    4    0    0  0.14342281565E-01 -0.11135946562E-01  0.23024045608E-01  0.29327088903E-01  0.51100000000E-03 0.  1.
</event>
<event>
 8    1  0.1091347E+005  0.1043930E+01  0.7957747E-01            NaN
         13   -1    0    0    0    0  0.00000000000E+00  0.00000000000E+00  0.74505805969E-08  0.10566000000E+00  0.10566000000E+00 0. -1.
     999900   -1    0    0    0    0 -0.00000000000E+00 -0.00000000000E+00 -0.74505805969E-08  0.93827000000E+00  0.93827000000E+00 0. -1.
     999902    2    1    2    0    0  0.17711130758E-01 -0.14226688937E-01  0.18515684912E-02  0.10211372131E+01  0.10208828027E+01 0.  0.
     999903    2    3    3    0    0  0.29269329806E-01 -0.91733379044E-01  0.89952496343E-01  0.13327311734E+00  0.19964110507E-01 0.  0.
         14    1    1    2    0    0 -0.17711130758E-01  0.14226688937E-01 -0.18515684912E-02  0.22792786945E-01  0.00000000000E+00 0. -1.
     999901    1    3    3    0    0 -0.11558199047E-01  0.77506690107E-01 -0.88100927852E-01  0.88786409572E+00  0.88000000000E+00 0. -1.
        -11    1    4    4    0    0  0.17633352223E-01 -0.25128511192E-01  0.29328467963E-01  0.42459361034E-01  0.51100000000E-03 0.  1.
         11    1    4    4    0    0  0.11635977583E-01 -0.66604867852E-01  0.60624028380E-01  0.90813756303E-01  0.51100000000E-03 0. -1.
</event>
<event>
 8    1  0.1091347E+005  0.1043930E+01  0.7957747E-01            NaN
         13   -1    0    0    0    0  0.00000000000E+00  0.00000000000E+00  0.74505805969E-08  0.10566000000E+00  0.10566000000E+00 0.  1.
     999900   -1    0    0    0    0 -0.00000000000E+00 -0.00000000000E+00 -0.74505805969E-08  0.93827000000E+00  0.93827000000E+00 0.  1.
     999902    2    1    2    0    0  0.13588461803E-01  0.19322732010E-01  0.65249144546E-03  0.10202986646E+01  0.10200249629E+01 0.  0.
     999903    2    3    3    0    0  0.23554239631E-01  0.12474006772E+00 -0.35477373662E-01  0.13321496026E+00  0.19305307422E-01 0.  0.
         14    1    1    2    0    0 -0.13588461803E-01 -0.19322732010E-01 -0.65249144546E-03  0.23631335375E-01  0.00000000000E+00 0.  1.
     999901    1    3    3    0    0 -0.99657778282E-02 -0.10541733571E+00  0.36129865108E-01  0.88708370436E+00  0.88000000000E+00 0. -1.
        -11    1    4    4    0    0  0.61275291091E-02  0.79991954638E-01 -0.19049672055E-01  0.82458538346E-01  0.51100000000E-03 0. -1.
         11    1    4    4    0    0  0.17426710522E-01  0.44748113086E-01 -0.16427701608E-01  0.50756421914E-01  0.51100000000E-03 0.  1.
</event>
<event>
 7    1  0.1091347E+005  0.1043930E+01  0.7957747E-01            NaN
         13   -1    0    0    0    0  0.00000000000E+00  0.00000000000E+00  0.74505805969E-08  0.10566000000E+00  0.10566000000E+00 0. -1.
     999900   -1    0    0    0    0 -0.00000000000E+00 -0.00000000000E+00 -0.74505805969E-08  0.93827000000E+00  0.93827000000E+00 0.  1.
     999902    2    1    2    0    0  0.41782753374E-02  0.23094221806E-01 -0.10074285701E-01  0.10183899863E+01  0.10180696793E+01 0.  0.
         14    1    1    2    0    0 -0.41782753374E-02 -0.23094221806E-01  0.10074285701E-01  0.25540013665E-01  0.00000000000E+00 0. -1.
     999901    1    3    3    0    0 -0.96680084070E-01 -0.75270148972E-02 -0.41723580234E-01  0.88630951239E+00  0.88000000000E+00 0. -1.
        -11    1    3    3    0    0  0.43909240349E-01  0.46844159785E-01 -0.14824674404E-02  0.64225038145E-01  0.51100000000E-03 0. -1.
         11    1    3    3    0    0  0.56949119059E-01 -0.16222923082E-01  0.33131761973E-01  0.67855435798E-01  0.51100000000E-03 0.  1.
</event>
<event>
 8    1  0.1091347E+005  0.1043930E+01  0.7957747E-01            NaN
         13   -1    0    0    0    0  0.00000000000E+00  0.00000000000E+00  0.74505805969E-08  0.10566000000E+00  0.10566000000E+00 0. -1.
     999900   -1    0    0    0    0 -0.00000000000E+00 -0.00000000000E+00 -0.74505805969E-08  0.93827000000E+00  0.93827000000E+00 0. -1.
     999902    2    1    2    0    0  0.19769391691E-01  0.59326928171E-02  0.10271953536E-01  0.10208748765E+01  0.10206145084E+01 0.  0.
     999903    2    3    3    0    0 -0.38963579578E-01  0.44899806661E-01 -0.11334680321E+00  0.12944367054E+00  0.19339412403E-01 0.  0.
         14    1    1    2    0    0 -0.19769391691E-01 -0.59326928171E-02 -0.10271953536E-01  0.23055123538E-01  0.00000000000E+00 0.  1.
     999901    1    3    3    0    0  0.58732971269E-01 -0.38967113844E-01  0.12361875675E+00  0.89143120592E+00  0.88000000000E+00 0.  1.
        -11    1    4    4    0    0 -0.28730460436E-01  0.18458318093E-01 -0.62773345802E-01  0.71462598104E-01  0.51100000000E-03 0. -1.
         11    1    4    4    0    0 -0.10233119142E-01  0.26441488568E-01 -0.50573457411E-01  0.57981072434E-01  0.51100000000E-03 0.  1.
</event>
<event>
 8    1  0.1091347E+005  0.1043930E+01  0.7957747E-01            NaN
         13   -1    0    0    0    0  0.00000000000E+00  0.00000000000E+00  0.74505805969E-08  0.10566000000E+00  0.10566000000E+00 0. -1.
     999900   -1    0    0    0    0 -0.00000000000E+00 -0.00000000000E+00 -0.74505805969E-08  0.93827000000E+00  0.93827000000E+00 0.  1.
     999902    2    1    2    0    0  0.18589698152E-01  0.33091303782E-02 -0.14235968475E-01  0.10202828010E+01  0.10200087274E+01 0.  0.
     999903    2    3    3    0    0  0.86954802532E-01  0.39308922810E-01  0.87772024016E-01  0.13102726795E+00  0.18917918804E-01 0.  0.
         14    1    1    2    0    0 -0.18589698152E-01 -0.33091303782E-02  0.14235968475E-01  0.23647198982E-01  0.00000000000E+00 0.  1.
     999901    1    3    3    0    0 -0.68365104380E-01 -0.35999792432E-01 -0.10200799249E+00  0.88925553306E+00  0.88000000000E+00 0.  1.
        -11    1    4    4    0    0  0.65534405675E-01  0.21624330769E-01  0.68342062355E-01  0.97125015399E-01  0.51100000000E-03 0. -1.
         11    1    4    4    0    0  0.21420396857E-01  0.17684592041E-01  0.19429961661E-01  0.33902252556E-01  0.51100000000E-03 0.  1.
</event>
<event>
 8    1  0.1133657E+005  0.1043930E+01  0.7957747E-01            NaN
         13   -1    0    0    0    0  0.00000000000E+00  0.00000000000E+00  0.74505805969E-08  0.10566000000E+00  0.10566000000E+00 0.  1.
     999900   -1    0    0    0    0 -0.00000000000E+00 -0.00000000000E+00 -0.74505805969E-08  0.93827000000E+00  0.93827000000E+00 0. -1.
     999902    2    1    2    0    0 -0.14321500688E-01  0.59870265538E-02  0.17641472594E-01  0.10204316719E+01  0.10201610782E+01 0.  0.
     999903    2    3    3    0    0 -0.17370453367E-01 -0.18159075919E-01  0.12919162171E+00  0.13305589684E+00  0.19542565673E-01 0.  0.
         14    1    1    2    0    0  0.14321500688E-01 -0.59870265538E-02 -0.17641472594E-01  0.23498328115E-01  0.00000000000E+00 0. -1.
     999901    1    3    3    0    0  0.30489526791E-02  0.24146102473E-01 -0.11155014912E+00  0.88737577505E+00  0.88000000000E+00 0. -1.
        -11    1    4    4    0    0 -0.17917930715E-01 -0.55358170726E-02  0.66168990450E-01  0.68777132319E-01  0.51100000000E-03 0. -1.
         11    1    4    4    0    0  0.54747734790E-03 -0.12623258847E-01  0.63022631264E-01  0.64278764517E-01  0.51100000000E-03 0.  1.
</event>
<event>
 8    1  0.1091347E+005  0.1043930E+01  0.7957747E-01            NaN
         13   -1    0    0    0    0  0.00000000000E+00  0.00000000000E+00  0.74505805969E-08  0.10566000000E+00  0.10566000000E+00 0.  1.
     999900   -1    0    0    0    0 -0.00000000000E+00 -0.00000000000E+00 -0.74505805969E-08  0.93827000000E+00  0.93827000000E+00 0. -1.
     999902    2    1    2    0    0 -0.11915982937E-01 -0.12081102080E-01  0.14836285812E-01  0.10213898347E+01  0.10211410947E+01 0.  0.
     999903    2    3    3    0    0 -0.84991423365E-01  0.55450320381E-01  0.83685020484E-01  0.13311022706E+00  0.20417390098E-01 0.  0.
         14    1    1    2    0    0  0.11915982937E-01  0.12081102080E-01 -0.14836285812E-01  0.22540165339E-01  0.00000000000E+00 0. -1.
     999901    1    3    3    0    0  0.73075440428E-01 -0.67531422461E-01 -0.68848734673E-01  0.88827960760E+00  0.88000000000E+00 0. -1.
        -11    1    4    4    0    0 -0.60338295187E-01  0.42890762263E-01  0.71334120260E-01  0.10280634799E+00  0.51100000000E-03 0. -1.
         11    1    4    4    0    0 -0.24653128178E-01  0.12559558119E-01  0.12350900225E-01  0.30303879066E-01  0.51100000000E-03 0.  1.
</event>
<event>
 8    1  0.1091347E+005  0.1043930E+01  0.7957747E-01            NaN
         13   -1    0    0    0    0  0.00000000000E+00  0.00000000000E+00  0.74505805969E-08  0.10566000000E+00  0.10566000000E+00 0. -1.
     999900   -1    0    0    0    0 -0.00000000000E+00 -0.00000000000E+00 -0.74505805969E-08  0.93827000000E+00  0.93827000000E+00 0.  1.
     999902    2    1    2    0    0  0.18355219029E-01 -0.14484369760E-01  0.70203780185E-03  0.10205376104E+01  0.10202694793E+01 0.  0.
     999903    2    3    3    0    0  0.62394811400E-01 -0.11444975353E+00 -0.21472701343E-01  0.13350644823E+00  0.19262301070E-01 0.  0.
         14    1    1    2    0    0 -0.18355219029E-01  0.14484369760E-01 -0.70203780185E-03  0.23392389575E-01  0.00000000000E+00 0.  1.
     999901    1    3    3    0    0 -0.44039592371E-01  0.99965383773E-01  0.22174739144E-01  0.88703116220E+00  0.88000000000E+00 0. -1.
        -11    1    4    4    0    0  0.19235384459E-01 -0.46258928560E-01 -0.42227404464E-03  0.50103172786E-01  0.51100000000E-03 0. -1.
         11    1    4    4    0    0  0.43159426941E-01 -0.68190824973E-01 -0.21050427298E-01  0.83403275444E-01  0.51100000000E-03 0.  1.
</event>
<event>
 8    1  0.1091347E+005  0.1043930E+01  0.7957747E-01            NaN
         13   -1    0    0    0    0  0.00000000000E+00  0.00000000000E+00  0.74505805969E-08  0.10566000000E+00  0.10566000000E+00 0. -1.
     999900   -1    0    0    0    0 -0.00000000000E+00 -0.00000000000E+00 -0.74505805969E-08  0.93827000000E+00  0.93827000000E+00 0. -1.
     999902    2    1    2    0    0  0.22687709095E-01  0.19414780838E-02  0.70977682759E-02  0.10200787989E+01  0.10197999196E+01 0.  0.
     999903    2    3    3    0    0  0.63752193578E-01 -0.16082692834E-01  0.11324250827E+00  0.13256661954E+00  0.20665133490E-01 0.  0.
         14    1    1    2    0    0 -0.22687709095E-01 -0.19414780838E-02 -0.70977682759E-02  0.23851201136E-01  0.00000000000E+00 0. -1.
     999901    1    3    3    0    0 -0.41064484483E-01  0.18024170917E-01 -0.10614473999E+00  0.88751217933E+00  0.88000000000E+00 0. -1.
        -11    1    4    4    0    0  0.42358216945E-01 -0.19051367401E-01  0.66996165418E-01  0.81522514954E-01  0.51100000000E-03 0.  1.
         11    1    4    4    0    0  0.21393976633E-01  0.29686745675E-02  0.46246342850E-01  0.51044104585E-01  0.51100000000E-03 0. -1.
</event>
<event>
 8    1  0.1091347E+005  0.1043930E+01  0.7957747E-01            NaN
         13   -1    0    0    0    0  0.00000000000E+00  0.00000000000E+00  0.74505805969E-08  0.10566000000E+00  0.10566000000E+00 0.  1.
     999900   -1    0    0    0    0 -0.00000000000E+00 -0.00000000000E+00 -0.74505805969E-08  0.93827000000E+00  0.93827000000E+00 0. -1.
     999902    2    1    2    0    0 -0.16043392421E-01  0.23480134522E-02 -0.14532191370E-01  0.10221564336E+01  0.10219245014E+01 0.  0.
     999903    2    3    3    0    0  0.16196817074E-01 -0.37838615204E-01 -0.12554370170E+00  0.13368699032E+00  0.20417949442E-01 0.  0.
         14    1    1    2    0    0  0.16043392421E-01 -0.23480134522E-02  0.14532191370E-01  0.21773566396E-01  0.00000000000E+00 0.  1.
     999901    1    3    3    0    0 -0.32240209496E-01  0.40186628656E-01  0.11101151033E+00  0.88846944329E+00  0.88000000000E+00 0.  1.
        -11    1    4    4    0    0 -0.17634232860E-02 -0.21295263615E-01 -0.53276924967E-01  0.57404614527E-01  0.51100000000E-03 0.  1.
         11    1    4    4    0    0  0.17960240361E-01 -0.16543351589E-01 -0.72266776733E-01  0.76282375789E-01  0.51100000000E-03 0. -1.
</event>
<event>
 8    1  0.1091347E+005  0.1043930E+01  0.7957747E-01            NaN
         13   -1    0    0    0    0  0.00000000000E+00  0.00000000000E+00  0.74505805969E-08  0.10566000000E+00  0.10566000000E+00 0.  1.
     999900   -1    0    0    0    0 -0.00000000000E+00 -0.00000000000E+00 -0.74505805969E-08  0.93827000000E+00  0.93827000000E+00 0. -1.
     999902    2    1    2    0    0  0.19266560187E-01 -0.42917887639E-03 -0.13476967756E-01  0.10204137674E+01  0.10201427564E+01 0.  0.
     999903    2    3    3    0    0  0.73953145636E-01  0.61771303935E-01 -0.89978511146E-01  0.13322043512E+00  0.19151765638E-01 0.  0.
         14    1    1    2    0    0 -0.19266560187E-01  0.42917887639E-03  0.13476967756E-01  0.23516232603E-01  0.00000000000E+00 0.  1.
     999901    1    3    3    0    0 -0.54686585450E-01 -0.62200482811E-01  0.76501543390E-01  0.88719333227E+00  0.88000000000E+00 0. -1.
        -11    1    4    4    0    0  0.58957778422E-01  0.46433624813E-01 -0.79549392068E-01  0.10936392481E+00  0.51100000000E-03 0. -1.
         11    1    4    4    0    0  0.14995367214E-01  0.15337679122E-01 -0.10429119078E-01  0.23856510316E-01  0.51100000000E-03 0.  1.
</event>
<event>
 8    1  0.1091347E+005  0.1043930E+01  0.7957747E-01            NaN
         13   -1    0    0    0    0  0.00000000000E+00  0.00000000000E+00  0.74505805969E-08  0.10566000000E+00  0.10566000000E+00 0. -1.
     999900   -1    0    0    0    0 -0.00000000000E+00 -0.00000000000E+00 -0.74505805969E-08  0.93827000000E+00  0.93827000000E+00 0.  1.
     999902    2    1    2    0    0 -0.18472697934E-01  0.13070602762E-01  0.10929051027E-01  0.10187998312E+01  0.10184898481E+01 0.  0.
     999903    2    3    3    0    0 -0.64392640856E-01 -0.35812857773E-01  0.10396970371E+00  0.13135698974E+00  0.31874542938E-01 0.  0.
         14    1    1    2    0    0  0.18472697934E-01 -0.13070602762E-01 -0.10929051027E-01  0.25130168759E-01  0.00000000000E+00 0. -1.
     999901    1    3    3    0    0  0.45919942923E-01  0.48883460535E-01 -0.93040652680E-01  0.88744284150E+00  0.88000000000E+00 0.  1.
        -11    1    4    4    0    0 -0.50897776326E-02 -0.61897868976E-03  0.29158076837E-01  0.29609855400E-01  0.51100000000E-03 0. -1.
         11    1    4    4    0    0 -0.59302863224E-01 -0.35193879083E-01  0.74811626871E-01  0.10174713435E+00  0.51100000000E-03 0.  1.
</event>
<event>
 8    1  0.1091347E+005  0.1043930E+01  0.7957747E-01            NaN
         13   -1    0    0    0    0  0.00000000000E+00  0.00000000000E+00  0.74505805969E-08  0.10566000000E+00  0.10566000000E+00 0.  1.
     999900   -1    0    0    0    0 -0.00000000000E+00 -0.00000000000E+00 -0.74505805969E-08  0.93827000000E+00  0.93827000000E+00 0.  1.
     999902    2    1    2    0    0 -0.47695975458E-02 -0.54505713560E-03  0.22254876268E-01  0.10211632333E+01  0.10209094100E+01 0.  0.
     999903    2    3    3    0    0  0.69118656936E-01 -0.10961071914E+00  0.66733095287E-02  0.13122077561E+00  0.19556594932E-01 0.  0.
         14    1    1    2    0    0  0.47695975458E-02  0.54505713560E-03 -0.22254876268E-01  0.22766766695E-01  0.00000000000E+00 0. -1.
     999901    1    3    3    0    0 -0.73888254482E-01  0.10906566201E+00  0.15581566739E-01  0.88994245769E+00  0.88000000000E+00 0. -1.
        -11    1    4    4    0    0  0.32594657385E-01 -0.36564643442E-01 -0.24209743088E-02  0.49045969026E-01  0.51100000000E-03 0. -1.
         11    1    4    4    0    0  0.36523999551E-01 -0.73046075699E-01  0.90942838375E-02  0.82174806588E-01  0.51100000000E-03 0.  1.
</event>
<event>
 8    1  0.1091347E+005  0.1043930E+01  0.7957747E-01            NaN
         13   -1    0    0    0    0  0.00000000000E+00  0.00000000000E+00  0.74505805969E-08  0.10566000000E+00  0.10566000000E+00 0.  1.
     999900   -1    0    0    0    0 -0.00000000000E+00 -0.00000000000E+00 -0.74505805969E-08  0.93827000000E+00  0.93827000000E+00 0.  1.
     999902    2    1    2    0    0 -0.23071935258E-01  0.44723106445E-02  0.26266138276E-02  0.10202822758E+01  0.10200081899E+01 0.  0.
     999903    2    3    3    0    0  0.44308103577E-01  0.89845332421E-01 -0.80209164290E-01  0.12972605153E+00  0.18972258897E-01 0.  0.
         14    1    1    2    0    0  0.23071935258E-01 -0.44723106445E-02 -0.26266138276E-02  0.23647724187E-01  0.00000000000E+00 0.  1.
     999901    1    3    3    0    0 -0.67380038835E-01 -0.85373021777E-01  0.82835778118E-01  0.89055622429E+00  0.88000000000E+00 0.  1.
        -11    1    4    4    0    0  0.33297990040E-01  0.58674164977E-01 -0.63634314521E-01  0.92741581192E-01  0.51100000000E-03 0. -1.
         11    1    4    4    0    0  0.11010113538E-01  0.31171167444E-01 -0.16574849769E-01  0.36984470333E-01  0.51100000000E-03 0.  1.
</event>
<event>
 8    1  0.1091347E+005  0.1043930E+01  0.7957747E-01            NaN
         13   -1    0    0    0    0  0.00000000000E+00  0.00000000000E+00  0.74505805969E-08  0.10566000000E+00  0.10566000000E+00 0. -1.
     999900   -1    0    0    0    0 -0.00000000000E+00 -0.00000000000E+00 -0.74505805969E-08  0.93827000000E+00  0.93827000000E+00 0.  1.
     999902    2    1    2    0    0 -0.53747958220E-03 -0.10797618811E-01 -0.21724222158E-01  0.10196644012E+01  0.10193756284E+01 0.  0.
     999903    2    3    3    0    0  0.10604380764E+00  0.53797873129E-01  0.44617800562E-01  0.12841055839E+00  0.18947904521E-01 0.  0.
         14    1    1    2    0    0  0.53747958220E-03  0.10797618811E-01  0.21724222158E-01  0.24265598791E-01  0.00000000000E+00 0. -1.
     999901    1    3    3    0    0 -0.10658128723E+00 -0.64595491939E-01 -0.66342022720E-01  0.89125384282E+00  0.88000000000E+00 0.  1.
        -11    1    4    4    0    0  0.74375136760E-01  0.29055489587E-01  0.34367903515E-01  0.86932711658E-01  0.51100000000E-03 0. -1.
         11    1    4    4    0    0  0.31668670883E-01  0.24742383541E-01  0.10249897047E-01  0.41477846729E-01  0.51100000000E-03 0.  1.
</event>
<event>
 8    1  0.1091347E+005  0.1043930E+01  0.7957747E-01            NaN
         13   -1    0    0    0    0  0.00000000000E+00  0.00000000000E+00  0.74505805969E-08  0.10566000000E+00  0.10566000000E+00 0. -1.
     999900   -1    0    0    0    0 -0.00000000000E+00 -0.00000000000E+00 -0.74505805969E-08  0.93827000000E+00  0.93827000000E+00 0. -1.
     999902    2    1    2    0    0  0.89654785550E-02 -0.16163671562E-01 -0.15946355546E-01  0.10195183155E+01  0.10192260129E+01 0.  0.
     999903    2    3    3    0    0 -0.50324937029E-01  0.55779446076E-01  0.10037335732E+00  0.12698179461E+00  0.20139995298E-01 0.  0.
         14    1    1    2    0    0 -0.89654785550E-02  0.16163671562E-01  0.15946355546E-01  0.24411684482E-01  0.00000000000E+00 0.  1.
     999901    1    3    3    0    0  0.59290415584E-01 -0.71943117638E-01 -0.11631971287E+00  0.89253652091E+00  0.88000000000E+00 0. -1.
        -11    1    4    4    0    0 -0.35959504368E-01  0.48567246794E-01  0.87702794228E-01  0.10650776804E+00  0.51100000000E-03 0. -1.
         11    1    4    4    0    0 -0.14365432661E-01  0.72121992824E-02  0.12670563093E-01  0.20474026573E-01  0.51100000000E-03 0.  1.
</event>
<event>
 8    1  0.1091347E+005  0.1043930E+01  0.7957747E-01            NaN
         13   -1    0    0    0    0  0.00000000000E+00  0.00000000000E+00  0.74505805969E-08  0.10566000000E+00  0.10566000000E+00 0. -1.
     999900   -1    0    0    0    0 -0.00000000000E+00 -0.00000000000E+00 -0.74505805969E-08  0.93827000000E+00  0.93827000000E+00 0.  1.
     999902    2    1    2    0    0 -0.20973208140E-02 -0.10971602535E-01 -0.20072770593E-01  0.10209584755E+01  0.10207000136E+01 0.  0.
     999903    2    3    3    0    0 -0.71567514874E-01 -0.90394069169E-01  0.59297687914E-01  0.13110809162E+00  0.19496640002E-01 0.  0.
         14    1    1    2    0    0  0.20973208140E-02  0.10971602535E-01  0.20072770593E-01  0.22971524461E-01  0.00000000000E+00 0. -1.
     999901    1    3    3    0    0  0.69470194060E-01  0.79422466634E-01 -0.79370458507E-01  0.88985038391E+00  0.88000000000E+00 0.  1.
        -11    1    4    4    0    0 -0.28199732178E-01 -0.30766400858E-01  0.31575980051E-01  0.52336411358E-01  0.51100000000E-03 0. -1.
         11    1    4    4    0    0 -0.43367782696E-01 -0.59627668311E-01  0.27721707863E-01  0.78771680267E-01  0.51100000000E-03 0.  1.
</event>
<event>
 8    1  0.1091347E+005  0.1043930E+01  0.7957747E-01            NaN
         13   -1    0    0    0    0  0.00000000000E+00  0.00000000000E+00  0.74505805969E-08  0.10566000000E+00  0.10566000000E+00 0. -1.
     999900   -1    0    0    0    0 -0.00000000000E+00 -0.00000000000E+00 -0.74505805969E-08  0.93827000000E+00  0.93827000000E+00 0. -1.
     999902    2    1    2    0    0 -0.83184603893E-02 -0.14378193155E-01  0.14257854553E-01  0.10220390055E+01  0.10218045377E+01 0.  0.
     999903    2    3    3    0    0 -0.87957917982E-01  0.92110914466E-01  0.28005771046E-01  0.13194273072E+00  0.20088431486E-01 0.  0.
         14    1    1    2    0    0  0.83184603893E-02  0.14378193155E-01 -0.14257854553E-01  0.21890994452E-01  0.00000000000E+00 0.  1.
     999901    1    3    3    0    0  0.79639457593E-01 -0.10648910762E+00 -0.13747916494E-01  0.89009627482E+00  0.88000000000E+00 0.  1.
        -11    1    4    4    0    0 -0.69715582717E-01  0.61563332650E-01  0.24535555135E-01  0.96190233326E-01  0.51100000000E-03 0.  1.
         11    1    4    4    0    0 -0.18242335265E-01  0.30547581816E-01  0.34702159111E-02  0.35752497398E-01  0.51100000000E-03 0. -1.
</event>
<event>
 8    1  0.1091347E+005  0.1043930E+01  0.7957747E-01            NaN
         13   -1    0    0    0    0  0.00000000000E+00  0.00000000000E+00  0.74505805969E-08  0.10566000000E+00  0.10566000000E+00 0. -1.
     999900   -1    0    0    0    0 -0.00000000000E+00 -0.00000000000E+00 -0.74505805969E-08  0.93827000000E+00  0.93827000000E+00 0.  1.
     999902    2    1    2    0    0  0.20990976380E-02 -0.54806080479E-02 -0.23218365412E-01  0.10199813932E+01  0.10197002043E+01 0.  0.
     999903    2    3    3    0    0 -0.89554347750E-01  0.31464633229E-01 -0.89661116902E-01  0.13196115461E+00  0.19095185205E-01 0.  0.
         14    1    1    2    0    0 -0.20990976380E-02  0.54806080479E-02  0.23218365412E-01  0.23948606804E-01  0.00000000000E+00 0. -1.
     999901    1    3    3    0    0  0.91653445388E-01 -0.36945241277E-01  0.66442751490E-01  0.88802023858E+00  0.88000000000E+00 0. -1.
        -11    1    4    4    0    0 -0.69299849908E-01  0.16021849865E-01 -0.62021164562E-01  0.94371896479E-01  0.51100000000E-03 0.  1.
         11    1    4    4    0    0 -0.20254497842E-01  0.15442783365E-01 -0.27639952339E-01  0.37589258136E-01  0.51100000000E-03 0. -1.
</event>
<event>
 8    1  0.1091347E+005  0.1043930E+01  0.7957747E-01            NaN
         13   -1    0    0    0    0  0.00000000000E+00  0.00000000000E+00  0.74505805969E-08  0.10566000000E+00  0.10566000000E+00 0. -1.
     999900   -1    0    0    0    0 -0.00000000000E+00 -0.00000000000E+00 -0.74505805969E-08  0.93827000000E+00  0.93827000000E+00 0.  1.
     999902    2    1    2    0    0 -0.88748593188E-02  0.25093806223E-01  0.19005132520E-01  0.10112243843E+01  0.10106953537E+01 0.  0.
     999903    2    3    3    0    0 -0.39821838268E-01 -0.10642707546E-01 -0.11136606008E+00  0.12036442794E+00  0.19650703511E-01 0.  0.
         14    1    1    2    0    0  0.88748593188E-02 -0.25093806223E-01 -0.19005132520E-01  0.32705615738E-01  0.00000000000E+00 0.  1.
     999901    1    3    3    0    0  0.30946978949E-01  0.35736513769E-01  0.13037119260E+00  0.89085995632E+00  0.88000000000E+00 0. -1.
        -11    1    4    4    0    0 -0.22111956612E-01 -0.13854932901E-01 -0.80558356089E-01  0.84680621441E-01  0.51100000000E-03 0. -1.
         11    1    4    4    0    0 -0.17709881656E-01  0.32122253548E-02 -0.30807703989E-01  0.35683806497E-01  0.51100000000E-03 0.  1.
</event>
<event>
 8    1  0.1091347E+005  0.1043930E+01  0.7957747E-01            NaN
         13   -1    0    0    0    0  0.00000000000E+00  0.00000000000E+00  0.74505805969E-08  0.10566000000E+00  0.10566000000E+00 0.  1.
     999900   -1    0    0    0    0 -0.00000000000E+00 -0.00000000000E+00 -0.74505805969E-08  0.93827000000E+00  0.93827000000E+00 0.  1.
     999902    2    1    2    0    0  0.19674205919E-02  0.12244096609E-01 -0.20972649638E-01  0.10195652575E+01  0.10192740915E+01 0.  0.
     999903    2    3    3    0    0  0.74259096522E-01 -0.94174542508E-01 -0.44142527074E-01  0.12990922485E+00  0.23336369300E-01 0.  0.
         14    1    1    2    0    0 -0.19674205919E-02 -0.12244096609E-01  0.20972649638E-01  0.24364742526E-01  0.00000000000E+00 0.  1.
     999901    1    3    3    0    0 -0.72291675931E-01  0.10641863912E+00  0.23169877436E-01  0.88965603262E+00  0.88000000000E+00 0.  1.
        -11    1    4    4    0    0  0.30258319618E-01 -0.52615098621E-01 -0.30207896857E-01  0.67798913432E-01  0.51100000000E-03 0.  1.
         11    1    4    4    0    0  0.44000776904E-01 -0.41559443887E-01 -0.13934630217E-01  0.62110311420E-01  0.51100000000E-03 0. -1.
</event>
<event>
 8    1  0.1091347E+005  0.1043930E+01  0.7957747E-01            NaN
         13   -1    0    0    0    0  0.00000000000E+00  0.00000000000E+00  0.74505805969E-08  0.10566000000E+00  0.10566000000E+00 0. -1.
     999900   -1    0    0    0    0 -0.00000000000E+00 -0.00000000000E+00 -0.74505805969E-08  0.93827000000E+00  0.93827000000E+00 0. -1.
     999902    2    1    2    0    0 -0.23261939625E-01 -0.25498358166E-02 -0.70390441387E-02  0.10194929863E+01  0.10192000694E+01 0.  0.
     999903    2    3    3    0    0 -0.93075670780E-02 -0.12713958390E+00  0.22415630624E-01  0.13011966324E+00  0.13325226762E-01 0.  0.
         14    1    1    2    0    0  0.23261939625E-01  0.25498358166E-02  0.70390441387E-02  0.24437013733E-01  0.00000000000E+00 0. -1.
     999901    1    3    3    0    0 -0.13954372547E-01  0.12458974808E+00 -0.29454674763E-01  0.88937332302E+00  0.88000000000E+00 0. -1.
        -11    1    4    4    0    0 -0.80461500629E-03 -0.75069019902E-01  0.17793475512E-01  0.77154870528E-01  0.51100000000E-03 0. -1.
         11    1    4    4    0    0 -0.85029520717E-02 -0.52070563994E-01  0.46221551122E-02  0.52964792716E-01  0.51100000000E-03 0.  1.
</event>
<event>
 8    1  0.1091347E+005  0.1043930E+01  0.7957747E-01            NaN
         13   -1    0    0    0    0  0.00000000000E+00  0.00000000000E+00  0.74505805969E-08  0.10566000000E+00  0.10566000000E+00 0. -1.
     999900   -1    0    0    0    0 -0.00000000000E+00 -0.00000000000E+00 -0.74505805969E-08  0.93827000000E+00  0.93827000000E+00 0.  1.
     999902    2    1    2    0    0  0.17483284737E-02  0.22171033490E-01 -0.66274746717E-02  0.10207236474E+01  0.10204598129E+01 0.  0.
     999903    2    3    3    0    0  0.11314194925E+00  0.20240274684E-01 -0.61720959562E-01  0.13198996480E+00  0.20027594956E-01 0.  0.
         14    1    1    2    0    0 -0.17483284737E-02 -0.22171033490E-01  0.66274746717E-02  0.23206352557E-01  0.00000000000E+00 0.  1.
     999901    1    3    3    0    0 -0.11139362078E+00  0.19307588068E-02  0.55093484890E-01  0.88873368264E+00  0.88000000000E+00 0. -1.
        -11    1    4    4    0    0  0.75708357908E-01  0.39288320368E-02 -0.41325808212E-01  0.86343932756E-01  0.51100000000E-03 0.  1.
         11    1    4    4    0    0  0.37433591345E-01  0.16311442647E-01 -0.20395151349E-01  0.45646032048E-01  0.51100000000E-03 0. -1.
</event>
<event>
 8    1  0.1091347E+005  0.1043930E+01  0.7957747E-01            NaN
         13   -1    0    0    0    0  0.00000000000E+00  0.00000000000E+00  0.74505805969E-08  0.10566000000E+00  0.10566000000E+00 0. -1.
     999900   -1    0    0    0    0 -0.00000000000E+00 -0.00000000000E+00 -0.74505805969E-08  0.93827000000E+00  0.93827000000E+00 0. -1.
     999902    2    1    2    0    0 -0.55623986618E-02 -0.30611846074E-02  0.25576815955E-01  0.10175769234E+01  0.10172356219E+01 0.  0.
     999903    2    3    3    0    0 -0.37156187538E-01 -0.11283650301E+00  0.48414679483E-01  0.12989997993E+00  0.20429510818E-01 0.  0.
         14    1    1    2    0    0  0.55623986618E-02  0.30611846074E-02 -0.25576815955E-01  0.26353076566E-01  0.00000000000E+00 0.  1.
     999901    1    3    3    0    0  0.31593788876E-01  0.10977531840E+00 -0.22837863528E-01  0.88767694351E+00  0.88000000000E+00 0. -1.
        -11    1    4    4    0    0 -0.68037100917E-02 -0.20378314240E-01  0.66078107137E-03  0.21500323600E-01  0.51100000000E-03 0. -1.
         11    1    4    4    0    0 -0.30352477446E-01 -0.92458188767E-01  0.47753898412E-01  0.10839965633E+00  0.51100000000E-03 0.  1.
</event>
<event>
 8    1  0.1091347E+005  0.1043930E+01  0.7957747E-01            NaN
         13   -1    0    0    0    0  0.00000000000E+00  0.00000000000E+00  0.74505805969E-08  0.10566000000E+00  0.10566000000E+00 0.  1.
     999900   -1    0    0    0    0 -0.00000000000E+00 -0.00000000000E+00 -0.74505805969E-08  0.93827000000E+00  0.93827000000E+00 0.  1.
     999902    2    1    2    0    0 -0.14630821492E-01  0.16990589193E-01 -0.67638164806E-02  0.10205101308E+01  0.10202413621E+01 0.  0.
     999903    2    3    3    0    0 -0.11580640027E+00 -0.54443189889E-01  0.21643625317E-01  0.13138344397E+00  0.20444548519E-01 0.  0.
         14    1    1    2    0    0  0.14630821492E-01 -0.16990589193E-01  0.67638164806E-02  0.23419869173E-01  0.00000000000E+00 0.  1.
     999901    1    3    3    0    0  0.10117557877E+00  0.71433779083E-01 -0.28407441798E-01  0.88912668686E+00  0.88000000000E+00 0. -1.
        -11    1    4    4    0    0 -0.90872065996E-01 -0.34670601489E-01  0.21236456436E-01  0.99554162088E-01  0.51100000000E-03 0. -1.
         11    1    4    4    0    0 -0.24934334271E-01 -0.19772588400E-01  0.40716888046E-03  0.31829281881E-01  0.51100000000E-03 0.  1.
</event>
<event>
 8    1  0.1091347E+005  0.1043930E+01  0.7957747E-01            NaN
         13   -1    0    0    0    0  0.00000000000E+00  0.00000000000E+00  0.74505805969E-08  0.10566000000E+00  0.10566000000E+00 0. -1.
     999900   -1    0    0    0    0 -0.00000000000E+00 -0.00000000000E+00 -0.74505805969E-08  0.93827000000E+00  0.93827000000E+00 0.  1.
     999902    2    1    2    0    0  0.87557689581E-02 -0.21168208782E-01 -0.63539981526E-02  0.10201575402E+01  0.10198805209E+01 0.  0.
     999903    2    3    3    0    0 -0.12912860035E-01  0.10864161115E+00 -0.64575319951E-01  0.12846822145E+00  0.19088487344E-01 0.  0.
         14    1    1    2    0    0 -0.87557689581E-02  0.21168208782E-01  0.63539981526E-02  0.23772459814E-01  0.00000000000E+00 0. -1.
     999901    1    3    3    0    0  0.21668628993E-01 -0.12980981993E+00  0.58221321798E-01  0.89168931873E+00  0.88000000000E+00 0.  1.
        -11    1    4    4    0    0  0.13639908974E-02  0.30583789401E-01 -0.26310430960E-01  0.40369896502E-01  0.51100000000E-03 0.  1.
         11    1    4    4    0    0 -0.14276850933E-01  0.78057821746E-01 -0.38264888991E-01  0.88098324949E-01  0.51100000000E-03 0. -1.
</event>
<event>
 8    1  0.1091347E+005  0.1043930E+01  0.7957747E-01            NaN
         13   -1    0    0    0    0  0.00000000000E+00  0.00000000000E+00  0.74505805969E-08  0.10566000000E+00  0.10566000000E+00 0. -1.
     999900   -1    0    0    0    0 -0.00000000000E+00 -0.00000000000E+00 -0.74505805969E-08  0.93827000000E+00  0.93827000000E+00 0.  1.
     999902    2    1    2    0    0 -0.54006572150E-02  0.18139247460E-01 -0.13127687664E-01  0.10208966420E+01  0.10206367709E+01 0.  0.
     999903    2    3    3    0    0  0.49445162655E-01  0.10166167757E+00  0.64941125297E-01  0.13180789512E+00  0.19392025835E-01 0.  0.
         14    1    1    2    0    0  0.54006572150E-02 -0.18139247460E-01  0.13127687664E-01  0.23033357988E-01  0.00000000000E+00 0.  1.
     999901    1    3    3    0    0 -0.54845819870E-01 -0.83522430107E-01 -0.78068812962E-01  0.88908874689E+00  0.88000000000E+00 0.  1.
        -11    1    4    4    0    0  0.29033959315E-01  0.39404113538E-01  0.31927926525E-01  0.58440641427E-01  0.51100000000E-03 0.  1.
         11    1    4    4    0    0  0.20411203340E-01  0.62257564029E-01  0.33013198772E-01  0.73367253696E-01  0.51100000000E-03 0. -1.
</event>
<event>
 8    1  0.1091347E+005  0.1043930E+01  0.7957747E-01            NaN
         13   -1    0    0    0    0  0.00000000000E+00  0.00000000000E+00  0.74505805969E-08  0.10566000000E+00  0.10566000000E+00 0.  1.
     999900   -1    0    0    0    0 -0.00000000000E+00 -0.00000000000E+00 -0.74505805969E-08  0.93827000000E+00  0.93827000000E+00 0. -1.
     999902    2    1    2    0    0  0.13100571833E-02  0.21975039934E-01  0.12523474684E-01  0.10186030174E+01  0.10182880982E+01 0.  0.
     999903    2    3    3    0    0  0.39159164042E-01  0.86014071099E-01 -0.86678575643E-01  0.12991038257E+00  0.20776704928E-01 0.  0.
         14    1    1    2    0    0 -0.13100571833E-02 -0.21975039934E-01 -0.12523474684E-01  0.25326982609E-01  0.00000000000E+00 0. -1.
     999901    1    3    3    0    0 -0.37849106859E-01 -0.64039031165E-01  0.99202050327E-01  0.88869263482E+00  0.88000000000E+00 0.  1.
        -11    1    4    4    0    0  0.38832617085E-01  0.79723333482E-01 -0.86038162452E-01  0.12355811819E+00  0.51100000000E-03 0.  1.
         11    1    4    4    0    0  0.32654695691E-03  0.62907376161E-02 -0.64041319096E-03  0.63522643777E-02  0.51100000000E-03 0. -1.
</event>
<event>
 8    1  0.1091347E+005  0.1043930E+01  0.7957747E-01            NaN
         13   -1    0    0    0    0  0.00000000000E+00  0.00000000000E+00  0.74505805969E-08  0.10566000000E+00  0.10566000000E+00 0.  1.
     999900   -1    0    0    0    0 -0.00000000000E+00 -0.00000000000E+00 -0.74505805969E-08  0.93827000000E+00  0.93827000000E+00 0. -1.
     999902    2    1    2    0    0  0.10181920947E-01 -0.88593092094E-03 -0.20938652506E-01  0.10206301383E+01  0.10203641485E+01 0.  0.
     999903    2    3    3    0    0 -0.15194542211E-02 -0.95643183516E-01 -0.89975776861E-01  0.13277768226E+00  0.19604723706E-01 0.  0.
         14    1    1    2    0    0 -0.10181920947E-01  0.88593092094E-03  0.20938652506E-01  0.23299861728E-01  0.00000000000E+00 0.  1.
     999901    1    3    3    0    0  0.11701375168E-01  0.94757252595E-01  0.69037124355E-01  0.88785245601E+00  0.88000000000E+00 0.  1.
        -11    1    4    4    0    0  0.14257756525E-02 -0.76850448109E-01 -0.61078429524E-01  0.98177695455E-01  0.51100000000E-03 0. -1.
         11    1    4    4    0    0 -0.29452298736E-02 -0.18792735407E-01 -0.28897347337E-01  0.34599986809E-01  0.51100000000E-03 0.  1.
</event>
<event>
 8    1  0.1091347E+005  0.1043930E+01  0.7957747E-01            NaN
         13   -1    0    0    0    0  0.00000000000E+00  0.00000000000E+00  0.74505805969E-08  0.10566000000E+00  0.10566000000E+00 0. -1.
     999900   -1    0    0    0    0 -0.00000000000E+00 -0.00000000000E+00 -0.74505805969E-08  0.93827000000E+00  0.93827000000E+00 0. -1.
     999902    2    1    2    0    0  0.21421644799E-01 -0.69614659475E-02  0.73366240218E-02  0.10202408690E+01  0.10199658112E+01 0.  0.
     999903    2    3    3    0    0  0.16983487443E-01 -0.10505494336E-01  0.12873776425E+00  0.13188818331E+00  0.20549372171E-01 0.  0.
         14    1    1    2    0    0 -0.21421644799E-01  0.69614659475E-02 -0.73366240218E-02  0.23689130969E-01  0.00000000000E+00 0.  1.
     999901    1    3    3    0    0  0.44381573555E-02  0.35440283885E-02 -0.12140114023E+00  0.88835268572E+00  0.88000000000E+00 0. -1.
        -11    1    4    4    0    0  0.14346495617E-01 -0.59866509584E-02  0.38865075200E-01  0.41861881437E-01  0.51100000000E-03 0. -1.
         11    1    4    4    0    0  0.26369918262E-02 -0.45188433776E-02  0.89872689048E-01  0.90026301874E-01  0.51100000000E-03 0.  1.
</event>
<event>
 8    1  0.1091347E+005  0.1043930E+01  0.7957747E-01            NaN
         13   -1    0    0    0    0  0.00000000000E+00  0.00000000000E+00  0.74505805969E-08  0.10566000000E+00  0.10566000000E+00 0.  1.
     999900   -1    0    0    0    0 -0.00000000000E+00 -0.00000000000E+00 -0.74505805969E-08  0.93827000000E+00  0.93827000000E+00 0.  1.
     999902    2    1    2    0    0 -0.47044844378E-02 -0.43222280737E-02 -0.21922022789E-01  0.10210960579E+01  0.10208407175E+01 0.  0.
     999903    2    3    3    0    0 -0.32975228074E-01  0.10347348595E+00  0.67544128386E-01  0.12956740265E+00  0.20769559153E-01 0.  0.
         14    1    1    2    0    0  0.47044844378E-02  0.43222280737E-02  0.21922022789E-01  0.22833942114E-01  0.00000000000E+00 0.  1.
     999901    1    3    3    0    0  0.28270743637E-01 -0.10779571403E+00 -0.89466151174E-01  0.89152865524E+00  0.88000000000E+00 0.  1.
        -11    1    4    4    0    0 -0.34531382916E-01  0.91444476295E-01  0.64301027548E-01  0.11700167484E+00  0.51100000000E-03 0.  1.
         11    1    4    4    0    0  0.15561548414E-02  0.12029009657E-01  0.32431008379E-02  0.12565727805E-01  0.51100000000E-03 0. -1.
</event>
<event>
 8    1  0.1091347E+005  0.1043930E+01  0.7957747E-01            NaN
         13   -1    0    0    0    0  0.00000000000E+00  0.00000000000E+00  0.74505805969E-08  0.10566000000E+00  0.10566000000E+00 0.  1.
     999900   -1    0    0    0    0 -0.00000000000E+00 -0.00000000000E+00 -0.74505805969E-08  0.93827000000E+00  0.93827000000E+00 0. -1.
     999902    2    1    2    0    0  0.13402170127E-01  0.17789827902E-01 -0.85038867766E-02  0.10200886026E+01  0.10198099553E+01 0.  0.
     999903    2    3    3    0    0  0.94448922553E-02 -0.39271128595E-01 -0.12287517817E+00  0.13084600064E+00  0.19772175978E-01 0.  0.
         14    1    1    2    0    0 -0.13402170127E-01 -0.17789827902E-01  0.85038867766E-02  0.23841397426E-01  0.00000000000E+00 0. -1.
     999901    1    3    3    0    0  0.39572778715E-02  0.57060956498E-01  0.11437129139E+00  0.88924260194E+00  0.88000000000E+00 0.  1.
        -11    1    4    4    0    0  0.14112894219E-01 -0.16705032189E-01 -0.56853189800E-01  0.60916157094E-01  0.51100000000E-03 0. -1.
         11    1    4    4    0    0 -0.46680019638E-02 -0.22566096407E-01 -0.66021988366E-01  0.69929843544E-01  0.51100000000E-03 0.  1.
</event>
<event>
 8    1  0.1091347E+005  0.1043930E+01  0.7957747E-01            NaN
         13   -1    0    0    0    0  0.00000000000E+00  0.00000000000E+00  0.74505805969E-08  0.10566000000E+00  0.10566000000E+00 0.  1.
     999900   -1    0    0    0    0 -0.00000000000E+00 -0.00000000000E+00 -0.74505805969E-08  0.93827000000E+00  0.93827000000E+00 0.  1.
     999902    2    1    2    0    0 -0.22537268432E-01  0.60260857804E-02 -0.40302223493E-02  0.10202554383E+01  0.10199807226E+01 0.  0.
     999903    2    3    3    0    0 -0.44426135367E-01  0.11795347631E+00  0.35319946944E-01  0.13202388120E+00  0.17207628484E-01 0.  0.
         14    1    1    2    0    0  0.22537268432E-01 -0.60260857804E-02  0.40302223493E-02  0.23674561673E-01  0.00000000000E+00 0. -1.
     999901    1    3    3    0    0  0.21888866934E-01 -0.11192739053E+00 -0.39350169293E-01  0.88823155712E+00  0.88000000000E+00 0.  1.
        -11    1    4    4    0    0 -0.36855104758E-01  0.77666228248E-01  0.27740238967E-01  0.90333403212E-01  0.51100000000E-03 0.  1.
         11    1    4    4    0    0 -0.75710306083E-02  0.40287248065E-01  0.75797079768E-02  0.41690477991E-01  0.51100000000E-03 0. -1.
</event>
<event>
 8    1  0.1091347E+005  0.1043930E+01  0.7957747E-01            NaN
         13   -1    0    0    0    0  0.00000000000E+00  0.00000000000E+00  0.74505805969E-08  0.10566000000E+00  0.10566000000E+00 0.  1.
     999900   -1    0    0    0    0 -0.00000000000E+00 -0.00000000000E+00 -0.74505805969E-08  0.93827000000E+00  0.93827000000E+00 0.  1.
     999902    2    1    2    0    0 -0.22453768071E-02  0.16322967608E-01 -0.17123900471E-01  0.10201663943E+01  0.10198895838E+01 0.  0.
     999903    2    3    3    0    0 -0.46132159778E-01  0.11881049411E+00 -0.32238357373E-01  0.13300339371E+00  0.20161383273E-01 0.  0.
         14    1    1    2    0    0  0.22453768071E-02 -0.16322967608E-01  0.17123900471E-01  0.23763605700E-01  0.00000000000E+00 0.  1.
     999901    1    3    3    0    0  0.43886782971E-01 -0.10248752650E+00  0.15114456902E-01  0.88716300059E+00  0.88000000000E+00 0. -1.
        -11    1    4    4    0    0 -0.26078701906E-01  0.81248067701E-01 -0.13158193476E-01  0.86340873142E-01  0.51100000000E-03 0. -1.
         11    1    4    4    0    0 -0.20053457872E-01  0.37562426410E-01 -0.19080163898E-01  0.46662520568E-01  0.51100000000E-03 0.  1.
</event>
<event>
 8    1  0.1091347E+005  0.1043930E+01  0.7957747E-01            NaN
         13   -1    0    0    0    0  0.00000000000E+00  0.00000000000E+00  0.74505805969E-08  0.10566000000E+00  0.10566000000E+00 0. -1.
     999900   -1    0    0    0    0 -0.00000000000E+00 -0.00000000000E+00 -0.74505805969E-08  0.93827000000E+00  0.93827000000E+00 0. -1.
     999902    2    1    2    0    0  0.24326237639E-02 -0.12579504358E-01  0.22911411890E-01  0.10176793927E+01  0.10173407747E+01 0.  0.
     999903    2    3    3    0    0 -0.10120606075E+00  0.58881918308E-02  0.78220152144E-01  0.12968103152E+00  0.20529008738E-01 0.  0.
         14    1    1    2    0    0 -0.24326237639E-02  0.12579504358E-01 -0.22911411890E-01  0.26250607290E-01  0.00000000000E+00 0.  1.
     999901    1    3    3    0    0  0.10363868451E+00 -0.18467696189E-01 -0.55308740254E-01  0.88799836119E+00  0.88000000000E+00 0. -1.
        -11    1    4    4    0    0 -0.54554355713E-01  0.13181915086E-01  0.45124187087E-01  0.72016623038E-01  0.51100000000E-03 0. -1.
         11    1    4    4    0    0 -0.46651705033E-01 -0.72937232555E-02  0.33095965057E-01  0.57664408481E-01  0.51100000000E-03 0.  1.
</event>
<event>
 8    1  0.1091347E+005  0.1043930E+01  0.7957747E-01            NaN
         13   -1    0    0    0    0  0.00000000000E+00  0.00000000000E+00  0.74505805969E-08  0.10566000000E+00  0.10566000000E+00 0. -1.
     999900   -1    0    0    0    0 -0.00000000000E+00 -0.00000000000E+00 -0.74505805969E-08  0.93827000000E+00  0.93827000000E+00 0.  1.
     999902    2    1    2    0    0 -0.40602254178E-02  0.19096538042E-01  0.55990914927E-02  0.10236195834E+01  0.10234180664E+01 0.  0.
     999903    2    3    3    0    0  0.74479439639E-01  0.21922950368E-01 -0.10625597585E+00  0.13306468693E+00  0.19699640164E-01 0.  0.
         14    1    1    2    0    0  0.40602254178E-02 -0.19096538042E-01 -0.55990914927E-02  0.20310416568E-01  0.00000000000E+00 0. -1.
     999901    1    3    3    0    0 -0.78539665057E-01 -0.28264123265E-02  0.11185506734E+00  0.89055489650E+00  0.88000000000E+00 0. -1.
        -11    1    4    4    0    0  0.26579826543E-01  0.13273830598E-01 -0.27541266298E-01  0.40514987698E-01  0.51100000000E-03 0. -1.
         11    1    4    4    0    0  0.47899613096E-01  0.86491197697E-02 -0.78714709550E-01  0.92549699233E-01  0.51100000000E-03 0.  1.
</event>
<event>
 8    1  0.1091347E+005  0.1043930E+01  0.7957747E-01            NaN
         13   -1    0    0    0    0  0.00000000000E+00  0.00000000000E+00  0.74505805969E-08  0.10566000000E+00  0.10566000000E+00 0. -1.
     999900   -1    0    0    0    0 -0.00000000000E+00 -0.00000000000E+00 -0.74505805969E-08  0.93827000000E+00  0.93827000000E+00 0. -1.
     999902    2    1    2    0    0 -0.20112901848E-01  0.12303638649E-01  0.13781638911E-02  0.10203120475E+01  0.10200386594E+01 0.  0.
     999903    2    3    3    0    0 -0.34394116481E-01 -0.31955726754E-01  0.12063338700E+00  0.13105131365E+00  0.20442823458E-01 0.  0.
         14    1    1    2    0    0  0.20112901848E-01 -0.12303638649E-01 -0.13781638911E-02  0.23617952503E-01  0.00000000000E+00 0.  1.
     999901    1    3    3    0    0  0.14281214634E-01  0.44259365403E-01 -0.11925522311E+00  0.88926073384E+00  0.88000000000E+00 0. -1.
        -11    1    4    4    0    0 -0.18760260059E-01 -0.12514733671E-01  0.82114899129E-01  0.85156818261E-01  0.51100000000E-03 0. -1.
         11    1    4    4    0    0 -0.15633856422E-01 -0.19440993083E-01  0.38518487868E-01  0.45894495393E-01  0.51100000000E-03 0.  1.
</event>
<event>
 8    1  0.1091347E+005  0.1043930E+01  0.7957747E-01            NaN
         13   -1    0    0    0    0  0.00000000000E+00  0.00000000000E+00  0.74505805969E-08  0.10566000000E+00  0.10566000000E+00 0.  1.
     999900   -1    0    0    0    0 -0.00000000000E+00 -0.00000000000E+00 -0.74505805969E-08  0.93827000000E+00  0.93827000000E+00 0.  1.
     999902    2    1    2    0    0  0.38220059841E-02 -0.20740381992E-01  0.69624458504E-02  0.10217208391E+01  0.10214794302E+01 0.  0.
     999903    2    3    3    0    0 -0.37993817555E-01 -0.25551839255E-01 -0.12148560256E+00  0.13140032696E+00  0.20269870115E-01 0.  0.
         14    1    1    2    0    0 -0.38220059841E-02  0.20740381992E-01 -0.69624458504E-02  0.22209160883E-01  0.00000000000E+00 0. -1.
     999901    1    3    3    0    0  0.41815823539E-01  0.48114572635E-02  0.12844804841E+00  0.89032051215E+00  0.88000000000E+00 0. -1.
        -11    1    4    4    0    0 -0.24991102339E-01 -0.93974268256E-02 -0.46751576047E-01  0.53840856335E-01  0.51100000000E-03 0.  1.
         11    1    4    4    0    0 -0.13002715217E-01 -0.16154412430E-01 -0.74734026516E-01  0.77559470629E-01  0.51100000000E-03 0. -1.
</event>
<event>
 8    1  0.1091347E+005  0.1043930E+01  0.7957747E-01            NaN
         13   -1    0    0    0    0  0.00000000000E+00  0.00000000000E+00  0.74505805969E-08  0.10566000000E+00  0.10566000000E+00 0. -1.
     999900   -1    0    0    0    0 -0.00000000000E+00 -0.00000000000E+00 -0.74505805969E-08  0.93827000000E+00  0.93827000000E+00 0. -1.
     999902    2    1    2    0    0 -0.56376526454E-02 -0.26778869362E-01  0.10618545626E-02  0.10165435342E+01  0.10161745610E+01 0.  0.
     999903    2    3    3    0    0  0.78939597531E-01  0.12721663837E-01 -0.95782257499E-01  0.12632312029E+00  0.19748141166E-01 0.  0.
         14    1    1    2    0    0  0.56376526454E-02  0.26778869362E-01 -0.10618545626E-02  0.27386465759E-01  0.00000000000E+00 0. -1.
     999901    1    3    3    0    0 -0.84577250176E-01 -0.39500533199E-01  0.96844112062E-01  0.89022041395E+00  0.88000000000E+00 0.  1.
        -11    1    4    4    0    0  0.30175467191E-01 -0.46155272323E-02 -0.32988591659E-01  0.44948528480E-01  0.51100000000E-03 0. -1.
         11    1    4    4    0    0  0.48764130340E-01  0.17337191070E-01 -0.62793665840E-01  0.81374591812E-01  0.51100000000E-03 0.  1.
</event>
<event>
 8    1  0.1091347E+005  0.1043930E+01  0.7957747E-01            NaN
         13   -1    0    0    0    0  0.00000000000E+00  0.00000000000E+00  0.74505805969E-08  0.10566000000E+00  0.10566000000E+00 0. -1.
     999900   -1    0    0    0    0 -0.00000000000E+00 -0.00000000000E+00 -0.74505805969E-08  0.93827000000E+00  0.93827000000E+00 0.  1.
     999902    2    1    2    0    0 -0.22272653285E-01  0.74068310983E-02  0.19242318385E-02  0.10203793121E+01  0.10201074971E+01 0.  0.
     999903    2    3    3    0    0 -0.35218106046E-01 -0.68409856335E-01  0.10424304507E+00  0.13111844242E+00  0.20129830105E-01 0.  0.
         14    1    1    2    0    0  0.22272653285E-01 -0.74068310983E-02 -0.19242318385E-02  0.23550687876E-01  0.00000000000E+00 0. -1.
     999901    1    3    3    0    0  0.12945452760E-01  0.75816687433E-01 -0.10231881323E+00  0.88926086970E+00  0.88000000000E+00 0.  1.
        -11    1    4    4    0    0 -0.74591957715E-02 -0.34301892466E-01  0.39449176403E-01  0.52808693112E-01  0.51100000000E-03 0. -1.
         11    1    4    4    0    0 -0.27758910274E-01 -0.34107963869E-01  0.64793868670E-01  0.78309749310E-01  0.51100000000E-03 0.  1.
</event>
<event>
 8    1  0.1091347E+005  0.1043930E+01  0.7957747E-01            NaN
         13   -1    0    0    0    0  0.00000000000E+00  0.00000000000E+00  0.74505805969E-08  0.10566000000E+00  0.10566000000E+00 0. -1.
     999900   -1    0    0    0    0 -0.00000000000E+00 -0.00000000000E+00 -0.74505805969E-08  0.93827000000E+00  0.93827000000E+00 0. -1.
     999902    2    1    2    0    0  0.26506286835E-02 -0.76307679698E-02  0.20982325093E-01  0.10214463967E+01  0.10211989174E+01 0.  0.
     999903    2    3    3    0    0 -0.69894938197E-01  0.87336296850E-01 -0.62022679713E-01  0.12949828524E+00  0.20249986346E-01 0.  0.
         14    1    1    2    0    0 -0.26506286835E-02  0.76307679698E-02 -0.20982325093E-01  0.22483603327E-01  0.00000000000E+00 0.  1.
     999901    1    3    3    0    0  0.72545566880E-01 -0.94967064820E-01  0.83005004807E-01  0.89194811144E+00  0.88000000000E+00 0.  1.
        -11    1    4    4    0    0 -0.29645107831E-01  0.23224800230E-01 -0.16118058365E-01  0.40966775447E-01  0.51100000000E-03 0. -1.
         11    1    4    4    0    0 -0.40249830366E-01  0.64111496620E-01 -0.45904621348E-01  0.88531509789E-01  0.51100000000E-03 0.  1.
</event>
<event>
 8    1  0.1091347E+005  0.1043930E+01  0.7957747E-01            NaN
         13   -1    0    0    0    0  0.00000000000E+00  0.00000000000E+00  0.74505805969E-08  0.10566000000E+00  0.10566000000E+00 0. -1.
     999900   -1    0    0    0    0 -0.00000000000E+00 -0.00000000000E+00 -0.74505805969E-08  0.93827000000E+00  0.93827000000E+00 0. -1.
     999902    2    1    2    0    0 -0.63961738064E-02 -0.63270350739E-02 -0.21569039046E-01  0.10205598084E+01  0.10202921918E+01 0.  0.
     999903    2    3    3    0    0  0.45687157987E-01  0.96730387981E-01 -0.73979716998E-01  0.13147016998E+00  0.19165664714E-01 0.  0.
         14    1    1    2    0    0  0.63961738064E-02  0.63270350739E-02  0.21569039046E-01  0.23370191646E-01  0.00000000000E+00 0. -1.
     999901    1    3    3    0    0 -0.52083331794E-01 -0.10305742306E+00  0.52410677952E-01  0.88908963837E+00  0.88000000000E+00 0.  1.
        -11    1    4    4    0    0  0.23084553593E-01  0.59900145115E-01 -0.34223483291E-01  0.72749102599E-01  0.51100000000E-03 0.  1.
         11    1    4    4    0    0  0.22602604394E-01  0.36830242866E-01 -0.39756233707E-01  0.58721067383E-01  0.51100000000E-03 0. -1.
</event>
<event>
 8    1  0.1091347E+005  0.1043930E+01  0.7957747E-01            NaN
         13   -1    0    0    0    0  0.00000000000E+00  0.00000000000E+00  0.74505805969E-08  0.10566000000E+00  0.10566000000E+00 0. -1.
     999900   -1    0    0    0    0 -0.00000000000E+00 -0.00000000000E+00 -0.74505805969E-08  0.93827000000E+00  0.93827000000E+00 0. -1.
     999902    2    1    2    0    0 -0.23695898673E-01 -0.53645714978E-02 -0.83250386441E-04  0.10196342973E+01  0.10193447989E+01 0.  0.
     999903    2    3    3    0    0 -0.46007175996E-01  0.57340981521E-01  0.10630512878E+00  0.13073145290E+00  0.19628651744E-01 0.  0.
         14    1    1    2    0    0  0.23695898673E-01  0.53645714978E-02  0.83250386441E-04  0.24295702745E-01  0.00000000000E+00 0.  1.
     999901    1    3    3    0    0  0.22311277324E-01 -0.62705553019E-01 -0.10638837916E+00  0.88890284435E+00  0.88000000000E+00 0. -1.
        -11    1    4    4    0    0 -0.26690158169E-01  0.46175822816E-01  0.81085267313E-01  0.97054896075E-01  0.51100000000E-03 0. -1.
         11    1    4    4    0    0 -0.19317017827E-01  0.11165158704E-01  0.25219861463E-01  0.33676556829E-01  0.51100000000E-03 0.  1.
</event>
<event>
 8    1  0.1091347E+005  0.1043930E+01  0.7957747E-01            NaN
         13   -1    0    0    0    0  0.00000000000E+00  0.00000000000E+00  0.74505805969E-08  0.10566000000E+00  0.10566000000E+00 0. -1.
     999900   -1    0    0    0    0 -0.00000000000E+00 -0.00000000000E+00 -0.74505805969E-08  0.93827000000E+00  0.93827000000E+00 0. -1.
     999902    2    1    2    0    0  0.14756166692E-02  0.18648885862E-01 -0.12949287732E-01  0.10211782431E+01  0.10209247581E+01 0.  0.
     999903    2    3    3    0    0  0.53963515462E-01 -0.11422752409E+00 -0.21820640214E-01  0.12961230572E+00  0.19058362796E-01 0.  0.
         14    1    1    2    0    0 -0.14756166692E-02 -0.18648885862E-01  0.12949287732E-01  0.22751756882E-01  0.00000000000E+00 0.  1.
     999901    1    3    3    0    0 -0.52487898793E-01  0.13287640995E+00  0.88713524821E-02  0.89156593740E+00  0.88000000000E+00 0. -1.
        -11    1    4    4    0    0  0.34502144691E-01 -0.67827287546E-01 -0.22269539684E-01  0.79291439909E-01  0.51100000000E-03 0.  1.
         11    1    4    4    0    0  0.19461370771E-01 -0.46400236546E-01  0.44889946997E-03  0.50320865807E-01  0.51100000000E-03 0. -1.
</event>
<event>
 8    1  0.1091347E+005  0.1043930E+01  0.7957747E-01            NaN
         13   -1    0    0    0    0  0.00000000000E+00  0.00000000000E+00  0.74505805969E-08  0.10566000000E+00  0.10566000000E+00 0. -1.
     999900   -1    0    0    0    0 -0.00000000000E+00 -0.00000000000E+00 -0.74505805969E-08  0.93827000000E+00  0.93827000000E+00 0.  1.
     999902    2    1    2    0    0  0.90146474106E-02  0.22682150275E-01 -0.26153534594E-02  0.10193824159E+01  0.10190868099E+01 0.  0.
     999903    2    3    3    0    0 -0.64217571149E-01  0.88478667878E-03 -0.11057443866E+00  0.12949857692E+00  0.20457166167E-01 0.  0.
         14    1    1    2    0    0 -0.90146474106E-02 -0.22682150275E-01  0.26153534594E-02  0.24547584051E-01  0.00000000000E+00 0. -1.
     999901    1    3    3    0    0  0.73232218560E-01  0.21797363596E-01  0.10795908520E+00  0.88988383903E+00  0.88000000000E+00 0.  1.
        -11    1    4    4    0    0 -0.20303110299E-01 -0.74186907921E-02 -0.47540398353E-01  0.52226467021E-01  0.51100000000E-03 0. -1.
         11    1    4    4    0    0 -0.43914460851E-01  0.83034774709E-02 -0.63034040302E-01  0.77272109895E-01  0.51100000000E-03 0.  1.
</event>
<event>
 8    1  0.1091347E+005  0.1043930E+01  0.7957747E-01            NaN
         13   -1    0    0    0    0  0.00000000000E+00  0.00000000000E+00  0.74505805969E-08  0.10566000000E+00  0.10566000000E+00 0. -1.
     999900   -1    0    0    0    0 -0.00000000000E+00 -0.00000000000E+00 -0.74505805969E-08  0.93827000000E+00  0.93827000000E+00 0. -1.
     999902    2    1    2    0    0  0.20364264395E-01  0.12449765526E-01 -0.26079666533E-02  0.10199195561E+01  0.10196368959E+01 0.  0.
     999903    2    3    3    0    0 -0.61748174438E-01  0.48301944101E-01  0.10064143204E+00  0.12936452150E+00  0.21460818483E-01 0.  0.
         14    1    1    2    0    0 -0.20364264395E-01 -0.12449765526E-01  0.26079666533E-02  0.24010443896E-01  0.00000000000E+00 0. -1.
     999901    1    3    3    0    0  0.82112438833E-01 -0.35852178575E-01 -0.10324939870E+00  0.89055503460E+00  0.88000000000E+00 0. -1.
        -11    1    4    4    0    0 -0.16509242404E-01  0.19270961997E-01  0.19386870635E-01  0.31938017081E-01  0.51100000000E-03 0. -1.
         11    1    4    4    0    0 -0.45238932033E-01  0.29030982104E-01  0.81254561409E-01  0.97426504424E-01  0.51100000000E-03 0.  1.
</event>
<event>
 8    1  0.1091347E+005  0.1043930E+01  0.7957747E-01            NaN
         13   -1    0    0    0    0  0.00000000000E+00  0.00000000000E+00  0.74505805969E-08  0.10566000000E+00  0.10566000000E+00 0. -1.
     999900   -1    0    0    0    0 -0.00000000000E+00 -0.00000000000E+00 -0.74505805969E-08  0.93827000000E+00  0.93827000000E+00 0.  1.
     999902    2    1    2    0    0 -0.21705015434E-01 -0.10279602189E-01 -0.24521031622E-02  0.10197889411E+01  0.10195031602E+01 0.  0.
     999903    2    3    3    0    0  0.11069247565E+00 -0.53079949802E-01 -0.32359745945E-01  0.12835446087E+00  0.18905269911E-01 0.  0.
         14    1    1    2    0    0  0.21705015434E-01  0.10279602189E-01  0.24521031622E-02  0.24141058926E-01  0.00000000000E+00 0.  1.
     999901    1    3    3    0    0 -0.13239749109E+00  0.42800347613E-01  0.29907642783E-01  0.89143448021E+00  0.88000000000E+00 0.  1.
        -11    1    4    4    0    0  0.63949919075E-01 -0.27935636306E-01 -0.90088081513E-02  0.70366267990E-01  0.51100000000E-03 0.  1.
         11    1    4    4    0    0  0.46742556578E-01 -0.25144313496E-01 -0.23350937794E-01  0.57988192880E-01  0.51100000000E-03 0. -1.
</event>
<event>
 8    1  0.1091347E+005  0.1043930E+01  0.7957747E-01            NaN
         13   -1    0    0    0    0  0.00000000000E+00  0.00000000000E+00  0.74505805969E-08  0.10566000000E+00  0.10566000000E+00 0.  1.
     999900   -1    0    0    0    0 -0.00000000000E+00 -0.00000000000E+00 -0.74505805969E-08  0.93827000000E+00  0.93827000000E+00 0. -1.
     999902    2    1    2    0    0 -0.19147956001E-01  0.13054250218E-01 -0.57780536959E-02  0.10200460394E+01  0.10197663845E+01 0.  0.
     999903    2    3    3    0    0 -0.36942528517E-01 -0.78529635517E-01 -0.95537507720E-01  0.13057371579E+00  0.19759195506E-01 0.  0.
         14    1    1    2    0    0  0.19147956001E-01 -0.13054250218E-01  0.57780536959E-02  0.23883960565E-01  0.00000000000E+00 0. -1.
     999901    1    3    3    0    0  0.17794572516E-01  0.91583885735E-01  0.89759454024E-01  0.88947232364E+00  0.88000000000E+00 0.  1.
        -11    1    4    4    0    0 -0.22158937966E-02 -0.22621058956E-01 -0.19006103149E-01  0.29633014890E-01  0.51100000000E-03 0.  1.
         11    1    4    4    0    0 -0.34726634720E-01 -0.55908576562E-01 -0.76531404571E-01  0.10094070090E+00  0.51100000000E-03 0. -1.
</event>
<event>
 8    1  0.1091347E+005  0.1043930E+01  0.7957747E-01            NaN
         13   -1    0    0    0    0  0.00000000000E+00  0.00000000000E+00  0.74505805969E-08  0.10566000000E+00  0.10566000000E+00 0. -1.
     999900   -1    0    0    0    0 -0.00000000000E+00 -0.00000000000E+00 -0.74505805969E-08  0.93827000000E+00  0.93827000000E+00 0. -1.
     999902    2    1    2    0    0  0.14561104307E-01 -0.50378915285E-02  0.17685427085E-01  0.10204740745E+01  0.10202044679E+01 0.  0.
     999903    2    3    3    0    0 -0.10083695856E+00  0.34156617590E-01  0.72555781248E-01  0.13038212520E+00  0.20009758659E-01 0.  0.
         14    1    1    2    0    0 -0.14561104307E-01  0.50378915285E-02 -0.17685427085E-01  0.23455925496E-01  0.00000000000E+00 0.  1.
     999901    1    3    3    0    0  0.11539806286E+00 -0.39194509118E-01 -0.54870354163E-01  0.89009194931E+00  0.88000000000E+00 0. -1.
        -11    1    4    4    0    0 -0.35438334523E-01  0.14826695969E-01  0.15359796970E-01  0.41375003941E-01  0.51100000000E-03 0.  1.
         11    1    4    4    0    0 -0.65398624035E-01  0.19329921621E-01  0.57195984278E-01  0.89007121255E-01  0.51100000000E-03 0. -1.
</event>
<event>
 8    1  0.1091347E+005  0.1043930E+01  0.7957747E-01            NaN
         13   -1    0    0    0    0  0.00000000000E+00  0.00000000000E+00  0.74505805969E-08  0.10566000000E+00  0.10566000000E+00 0. -1.
     999900   -1    0    0    0    0 -0.00000000000E+00 -0.00000000000E+00 -0.74505805969E-08  0.93827000000E+00  0.93827000000E+00 0. -1.
     999902    2    1    2    0    0 -0.18469487900E-01  0.87606231208E-02  0.11667515513E-01  0.10203927653E+01  0.10201212644E+01 0.  0.
     999903    2    3    3    0    0  0.74150499848E-01 -0.59012492848E-01  0.86772626508E-01  0.12976802101E+00  0.18151573657E-01 0.  0.
         14    1    1    2    0    0  0.18469487900E-01 -0.87606231208E-02 -0.11667515513E-01  0.23537234736E-01  0.00000000000E+00 0.  1.
     999901    1    3    3    0    0 -0.92619987748E-01  0.67773115969E-01 -0.75105110995E-01  0.89062474425E+00  0.88000000000E+00 0. -1.
        -11    1    4    4    0    0  0.16388083427E-01 -0.23587666102E-01  0.26141265189E-01  0.38840367367E-01  0.51100000000E-03 0.  1.
         11    1    4    4    0    0  0.57762416421E-01 -0.35424826746E-01  0.60631361319E-01  0.90927653644E-01  0.51100000000E-03 0. -1.
</event>
<event>
 8    1  0.1091347E+005  0.1043930E+01  0.7957747E-01            NaN
         13   -1    0    0    0    0  0.00000000000E+00  0.00000000000E+00  0.74505805969E-08  0.10566000000E+00  0.10566000000E+00 0. -1.
     999900   -1    0    0    0    0 -0.00000000000E+00 -0.00000000000E+00 -0.74505805969E-08  0.93827000000E+00  0.93827000000E+00 0. -1.
     999902    2    1    2    0    0  0.87941044184E-02  0.97799644780E-02 -0.20981294639E-01  0.10191671508E+01  0.10188662731E+01 0.  0.
     999903    2    3    3    0    0  0.83763798700E-01 -0.78341690654E-01  0.54075678935E-01  0.12842620613E+00  0.20379325330E-01 0.  0.
         14    1    1    2    0    0 -0.87941044184E-02 -0.97799644780E-02  0.20981294639E-01  0.24762849239E-01  0.00000000000E+00 0. -1.
     999901    1    3    3    0    0 -0.74969694281E-01  0.88121655132E-01 -0.75056973574E-01  0.89074094463E+00  0.88000000000E+00 0. -1.
        -11    1    4    4    0    0  0.81849865903E-01 -0.69962368323E-01  0.48019733389E-01  0.11789948874E+00  0.51100000000E-03 0. -1.
         11    1    4    4    0    0  0.19139327971E-02 -0.83793223314E-02  0.60559455457E-02  0.10526717387E-01  0.51100000000E-03 0.  1.
</event>
<event>
 8    1  0.1091347E+005  0.1043930E+01  0.7957747E-01            NaN
         13   -1    0    0    0    0  0.00000000000E+00  0.00000000000E+00  0.74505805969E-08  0.10566000000E+00  0.10566000000E+00 0.  1.
     999900   -1    0    0    0    0 -0.00000000000E+00 -0.00000000000E+00 -0.74505805969E-08  0.93827000000E+00  0.93827000000E+00 0. -1.
     999902    2    1    2    0    0 -0.87667539134E-04  0.12545773780E-01 -0.20967220165E-01  0.10194958344E+01  0.10192029866E+01 0.  0.
     999903    2    3    3    0    0  0.11459282372E+00 -0.56120421516E-01 -0.43721016666E-02  0.12924752109E+00  0.20119380592E-01 0.  0.
         14    1    1    2    0    0  0.87667539134E-04 -0.12545773780E-01  0.20967220165E-01  0.24434165564E-01  0.00000000000E+00 0.  1.
     999901    1    3    3    0    0 -0.11468049126E+00  0.68666195295E-01 -0.16595118499E-01  0.89024831334E+00  0.88000000000E+00 0.  1.
        -11    1    4    4    0    0  0.83172277425E-01 -0.35115746567E-01  0.45963973256E-02  0.90399841694E-01  0.51100000000E-03 0. -1.
         11    1    4    4    0    0  0.31420546299E-01 -0.21004674949E-01 -0.89684989922E-02  0.38847679398E-01  0.51100000000E-03 0.  1.
</event>
<event>
 8    1  0.1091347E+005  0.1043930E+01  0.7957747E-01            NaN
         13   -1    0    0    0    0  0.00000000000E+00  0.00000000000E+00  0.74505805969E-08  0.10566000000E+00  0.10566000000E+00 0.  1.
     999900   -1    0    0    0    0 -0.00000000000E+00 -0.00000000000E+00 -0.74505805969E-08  0.93827000000E+00  0.93827000000E+00 0.  1.
     999902    2    1    2    0    0  0.17472966345E-01  0.13992912513E-01 -0.37758867930E-02  0.10212283817E+01  0.10209760252E+01 0.  0.
     999903    2    3    3    0    0 -0.16387837382E-01  0.92501525036E-01 -0.91627010671E-01  0.13273078672E+00  0.19921328059E-01 0.  0.
         14    1    1    2    0    0 -0.17472966345E-01 -0.13992912513E-01  0.37758867930E-02  0.22701618324E-01  0.00000000000E+00 0.  1.
     999901    1    3    3    0    0  0.33860803727E-01 -0.78508612524E-01  0.87851123878E-01  0.88849759495E+00  0.88000000000E+00 0. -1.
        -11    1    4    4    0    0 -0.82847803973E-02  0.47957096396E-01 -0.61134090446E-01  0.78141914595E-01  0.51100000000E-03 0.  1.
         11    1    4    4    0    0 -0.81030569850E-02  0.44544428640E-01 -0.30492920225E-01  0.54588872128E-01  0.51100000000E-03 0. -1.
</event>
<event>
 8    1  0.1091347E+005  0.1043930E+01  0.7957747E-01            NaN
         13   -1    0    0    0    0  0.00000000000E+00  0.00000000000E+00  0.74505805969E-08  0.10566000000E+00  0.10566000000E+00 0.  1.
     999900   -1    0    0    0    0 -0.00000000000E+00 -0.00000000000E+00 -0.74505805969E-08  0.93827000000E+00  0.93827000000E+00 0. -1.
     999902    2    1    2    0    0  0.11031368194E-01  0.12779150129E-01 -0.15412315447E-01  0.10210709268E+01  0.10208150176E+01 0.  0.
     999903    2    3    3    0    0 -0.12268179119E+00 -0.71388001628E-02  0.29610836717E-01  0.12960975656E+00  0.28637440278E-01 0.  0.
         14    1    1    2    0    0 -0.11031368194E-01 -0.12779150129E-01  0.15412315447E-01  0.22859073246E-01  0.00000000000E+00 0.  1.
     999901    1    3    3    0    0  0.13371315939E+00  0.19917950292E-01 -0.45023152164E-01  0.89146117020E+00  0.88000000000E+00 0. -1.
        -11    1    4    4    0    0 -0.66916356306E-01 -0.10156285247E-01  0.30165971835E-02  0.67751825443E-01  0.51100000000E-03 0.  1.
         11    1    4    4    0    0 -0.55765434887E-01  0.30174850837E-02  0.26594239534E-01  0.61857931115E-01  0.51100000000E-03 0. -1.
</event>
<event>
 8    1  0.1091347E+005  0.1043930E+01  0.7957747E-01            NaN
         13   -1    0    0    0    0  0.00000000000E+00  0.00000000000E+00  0.74505805969E-08  0.10566000000E+00  0.10566000000E+00 0.  1.
     999900   -1    0    0    0    0 -0.00000000000E+00 -0.00000000000E+00 -0.74505805969E-08  0.93827000000E+00  0.93827000000E+00 0. -1.
     999902    2    1    2    0    0 -0.10727699483E-01 -0.18035870843E-01  0.11009461721E-01  0.10202322275E+01  0.10199569666E+01 0.  0.
     999903    2    3    3    0    0 -0.85692610187E-01 -0.55659181843E-01 -0.80532194758E-01  0.13151679149E+00  0.19237049833E-01 0.  0.
         14    1    1    2    0    0  0.10727699483E-01  0.18035870843E-01 -0.11009461721E-01  0.23697772483E-01  0.00000000000E+00 0. -1.
     999901    1    3    3    0    0  0.74964910705E-01  0.37623311000E-01  0.91541656479E-01  0.88871543603E+00  0.88000000000E+00 0.  1.
        -11    1    4    4    0    0 -0.49847491658E-01 -0.42720607984E-01 -0.54971682361E-01  0.85626921898E-01  0.51100000000E-03 0.  1.
         11    1    4    4    0    0 -0.35845118529E-01 -0.12938573859E-01 -0.25560512397E-01  0.45889869589E-01  0.51100000000E-03 0. -1.
</event>
<event>
 8    1  0.1091347E+005  0.1043930E+01  0.7957747E-01            NaN
         13   -1    0    0    0    0  0.00000000000E+00  0.00000000000E+00  0.74505805969E-08  0.10566000000E+00  0.10566000000E+00 0.  1.
     999900   -1    0    0    0    0 -0.00000000000E+00 -0.00000000000E+00 -0.74505805969E-08  0.93827000000E+00  0.93827000000E+00 0. -1.
     999902    2    1    2    0    0  0.19551199715E-01 -0.12617318025E-01 -0.71171340608E-02  0.10195969007E+01  0.10193064996E+01 0.  0.
     999903    2    3    3    0    0  0.12126897751E+00  0.45328652178E-01 -0.13311877371E-01  0.13182293362E+00  0.20957770259E-01 0.  0.
         14    1    1    2    0    0 -0.19551199715E-01  0.12617318025E-01  0.71171340608E-02  0.24333099303E-01  0.00000000000E+00 0.  1.
     999901    1    3    3    0    0 -0.10171777779E+00 -0.57945970203E-01  0.61947433105E-02  0.88777396708E+00  0.88000000000E+00 0. -1.
        -11    1    4    4    0    0  0.18332631449E-01 -0.38743359379E-03  0.47252942990E-03  0.18349928765E-01  0.51100000000E-03 0. -1.
         11    1    4    4    0    0  0.10293634606E+00  0.45716085772E-01 -0.13784406801E-01  0.11347300485E+00  0.51100000000E-03 0.  1.
</event>
<event>
 8    1  0.1091347E+005  0.1043930E+01  0.7957747E-01            NaN
         13   -1    0    0    0    0  0.00000000000E+00  0.00000000000E+00  0.74505805969E-08  0.10566000000E+00  0.10566000000E+00 0. -1.
     999900   -1    0    0    0    0 -0.00000000000E+00 -0.00000000000E+00 -0.74505805969E-08  0.93827000000E+00  0.93827000000E+00 0.  1.
     999902    2    1    2    0    0  0.13108312918E-01 -0.21728014986E-01 -0.36136650975E-02  0.10182981238E+01  0.10179754790E+01 0.  0.
     999903    2    3    3    0    0 -0.88688767295E-01  0.53284125017E-01  0.69920463823E-01  0.12622372397E+00  0.18402766342E-01 0.  0.
         14    1    1    2    0    0 -0.13108312918E-01  0.21728014986E-01  0.36136650975E-02  0.25631876214E-01  0.00000000000E+00 0. -1.
     999901    1    3    3    0    0  0.10179708021E+00 -0.75012140003E-01 -0.73534128921E-01  0.89207439981E+00  0.88000000000E+00 0.  1.
        -11    1    4    4    0    0 -0.35236164544E-01  0.25336767588E-01  0.19396341486E-01  0.47539649427E-01  0.51100000000E-03 0.  1.
         11    1    4    4    0    0 -0.53452602750E-01  0.27947357429E-01  0.50524122337E-01  0.78684074545E-01  0.51100000000E-03 0. -1.
</event>
<event>
 8    1  0.1091347E+005  0.1043930E+01  0.7957747E-01            NaN
         13   -1    0    0    0    0  0.00000000000E+00  0.00000000000E+00  0.74505805969E-08  0.10566000000E+00  0.10566000000E+00 0.  1.
     999900   -1    0    0    0    0 -0.00000000000E+00 -0.00000000000E+00 -0.74505805969E-08  0.93827000000E+00  0.93827000000E+00 0.  1.
     999902    2    1    2    0    0 -0.14679818980E-01 -0.12358778886E-01 -0.12955877264E-01  0.10207763554E+01  0.10205137317E+01 0.  0.
     999903    2    3    3    0    0 -0.10117526422E+00 -0.11643424503E-01 -0.84253166250E-01  0.13366572130E+00  0.19897879401E-01 0.  0.
         14    1    1    2    0    0  0.14679818980E-01  0.12358778886E-01  0.12955877264E-01  0.23153644562E-01  0.00000000000E+00 0.  1.
     999901    1    3    3    0    0  0.86495445236E-01 -0.71535438275E-03  0.71297288986E-01  0.88711063413E+00  0.88000000000E+00 0.  1.
        -11    1    4    4    0    0 -0.72614342918E-01 -0.16546570192E-01 -0.65164950966E-01  0.98961425505E-01  0.51100000000E-03 0. -1.
         11    1    4    4    0    0 -0.28560921299E-01  0.49031456889E-02 -0.19088215284E-01  0.34704295798E-01  0.51100000000E-03 0.  1.
</event>
<event>
 8    1  0.1091347E+005  0.1043930E+01  0.7957747E-01            NaN
         13   -1    0    0    0    0  0.00000000000E+00  0.00000000000E+00  0.74505805969E-08  0.10566000000E+00  0.10566000000E+00 0.  1.
     999900   -1    0    0    0    0 -0.00000000000E+00 -0.00000000000E+00 -0.74505805969E-08  0.93827000000E+00  0.93827000000E+00 0. -1.
     999902    2    1    2    0    0 -0.32150812181E-01  0.76618703903E-02  0.70172864696E-02  0.10101421132E+01  0.10095768756E+01 0.  0.
     999903    2    3    3    0    0 -0.49602238222E-02 -0.60336039960E-02 -0.11885920212E+00  0.12066373549E+00  0.19267042743E-01 0.  0.
         14    1    1    2    0    0  0.32150812181E-01 -0.76618703903E-02 -0.70172864696E-02  0.33787886752E-01  0.00000000000E+00 0. -1.
     999901    1    3    3    0    0 -0.27190588359E-01  0.13695474386E-01  0.12587648859E+00  0.88947837776E+00  0.88000000000E+00 0.  1.
        -11    1    4    4    0    0 -0.90908657456E-02 -0.91171434716E-02 -0.10630252103E+00  0.10708059229E+00  0.51100000000E-03 0. -1.
         11    1    4    4    0    0  0.41306419234E-02  0.30835394756E-02 -0.12556681090E-01  0.13583143207E-01  0.51100000000E-03 0.  1.
</event>
<event>
 8    1  0.1091347E+005  0.1043930E+01  0.7957747E-01            NaN
         13   -1    0    0    0    0  0.00000000000E+00  0.00000000000E+00  0.74505805969E-08  0.10566000000E+00  0.10566000000E+00 0. -1.
     999900   -1    0    0    0    0 -0.00000000000E+00 -0.00000000000E+00 -0.74505805969E-08  0.93827000000E+00  0.93827000000E+00 0.  1.
     999902    2    1    2    0    0  0.24379713028E-01  0.69607594323E-02 -0.13801748566E-01  0.10150628761E+01  0.10146523205E+01 0.  0.
     999903    2    3    3    0    0  0.70873690643E-02 -0.11883684090E+00 -0.34919331840E-01  0.12569792641E+00  0.20203549483E-01 0.  0.
         14    1    1    2    0    0 -0.24379713028E-01 -0.69607594323E-02  0.13801748566E-01  0.28867123907E-01  0.00000000000E+00 0.  1.
     999901    1    3    3    0    0  0.17292343963E-01  0.12579760033E+00  0.21117583274E-01  0.88936494969E+00  0.88000000000E+00 0.  1.
        -11    1    4    4    0    0  0.13251832198E-01 -0.59865897804E-01 -0.20761079509E-01  0.64736545473E-01  0.51100000000E-03 0. -1.
         11    1    4    4    0    0 -0.61644631333E-02 -0.58970943094E-01 -0.14158252332E-01  0.60961380933E-01  0.51100000000E-03 0.  1.
</event>
<event>
 8    1  0.1091347E+005  0.1043930E+01  0.7957747E-01            NaN
         13   -1    0    0    0    0  0.00000000000E+00  0.00000000000E+00  0.74505805969E-08  0.10566000000E+00  0.10566000000E+00 0.  1.
     999900   -1    0    0    0    0 -0.00000000000E+00 -0.00000000000E+00 -0.74505805969E-08  0.93827000000E+00  0.93827000000E+00 0.  1.
     999902    2    1    2    0    0  0.13047103533E-01  0.17081386372E-01  0.49624461117E-02  0.10218703866E+01  0.10216322531E+01 0.  0.
     999903    2    3    3    0    0 -0.55760944964E-01  0.66610584707E-01  0.98463680874E-01  0.13286522920E+00  0.20293341266E-01 0.  0.
         14    1    1    2    0    0 -0.13047103533E-01 -0.17081386372E-01 -0.49624461117E-02  0.22059613379E-01  0.00000000000E+00 0. -1.
     999901    1    3    3    0    0  0.68808048498E-01 -0.49529198335E-01 -0.93501234763E-01  0.88900515742E+00  0.88000000000E+00 0.  1.
        -11    1    4    4    0    0 -0.45352020205E-01  0.53380639033E-01  0.89912040516E-01  0.11397690341E+00  0.51100000000E-03 0.  1.
         11    1    4    4    0    0 -0.10408924759E-01  0.13229945674E-01  0.85516403580E-02  0.18888325785E-01  0.51100000000E-03 0. -1.
</event>
<event>
 8    1  0.1091347E+005  0.1043930E+01  0.7957747E-01            NaN
         13   -1    0    0    0    0  0.00000000000E+00  0.00000000000E+00  0.74505805969E-08  0.10566000000E+00  0.10566000000E+00 0. -1.
     999900   -1    0    0    0    0 -0.00000000000E+00 -0.00000000000E+00 -0.74505805969E-08  0.93827000000E+00  0.93827000000E+00 0. -1.
     999902    2    1    2    0    0  0.20223465695E-01  0.13760766525E-01 -0.21772377173E-02  0.10193721576E+01  0.10190763014E+01 0.  0.
     999903    2    3    3    0    0  0.40916188893E-01  0.91790694836E-01  0.82940732806E-01  0.13158731461E+00  0.18340938801E-01 0.  0.
         14    1    1    2    0    0 -0.20223465695E-01 -0.13760766525E-01  0.21772377173E-02  0.24557842416E-01  0.00000000000E+00 0. -1.
     999901    1    3    3    0    0 -0.20692723199E-01 -0.78029928311E-01 -0.85117970524E-01  0.88778484297E+00  0.88000000000E+00 0. -1.
        -11    1    4    4    0    0  0.20711313820E-01  0.33011922463E-01  0.23095518702E-01  0.45303528008E-01  0.51100000000E-03 0.  1.
         11    1    4    4    0    0  0.20204875073E-01  0.58778772373E-01  0.59845214104E-01  0.86283786603E-01  0.51100000000E-03 0. -1.
</event>
<event>
 8    1  0.1091347E+005  0.1043930E+01  0.7957747E-01            NaN
         13   -1    0    0    0    0  0.00000000000E+00  0.00000000000E+00  0.74505805969E-08  0.10566000000E+00  0.10566000000E+00 0. -1.
     999900   -1    0    0    0    0 -0.00000000000E+00 -0.00000000000E+00 -0.74505805969E-08  0.93827000000E+00  0.93827000000E+00 0.  1.
     999902    2    1    2    0    0  0.15074845075E-01  0.18043011364E-01  0.46493669862E-02  0.10199629846E+01  0.10196813581E+01 0.  0.
     999903    2    3    3    0    0  0.84870040359E-01  0.34834443034E-01 -0.92525761126E-01  0.13170833251E+00  0.19227745800E-01 0.  0.
         14    1    1    2    0    0 -0.15074845075E-01 -0.18043011364E-01 -0.46493669862E-02  0.23967015386E-01  0.00000000000E+00 0.  1.
     999901    1    3    3    0    0 -0.69795195284E-01 -0.16791431670E-01  0.97175128112E-01  0.88825465210E+00  0.88000000000E+00 0. -1.
        -11    1    4    4    0    0  0.15871970012E-01  0.11098407053E-01 -0.10928979221E-01  0.22244050418E-01  0.51100000000E-03 0.  1.
         11    1    4    4    0    0  0.68998070347E-01  0.23736035981E-01 -0.81596781904E-01  0.10946428209E+00  0.51100000000E-03 0. -1.
</event>
<event>
 8    1  0.1091347E+005  0.1043930E+01  0.7957747E-01            NaN
         13   -1    0    0    0    0  0.00000000000E+00  0.00000000000E+00  0.74505805969E-08  0.10566000000E+00  0.10566000000E+00 0.  1.
     999900   -1    0    0    0    0 -0.00000000000E+00 -0.00000000000E+00 -0.74505805969E-08  0.93827000000E+00  0.93827000000E+00 0.  1.
     999902    2    1    2    0    0  0.36870430266E-03  0.20931714889E-01 -0.11716360470E-01  0.10199394657E+01  0.10196572797E+01 0.  0.
     999903    2    3    3    0    0 -0.12328361377E+00  0.27446961337E-01  0.26726869554E-01  0.13043947916E+00  0.18653338997E-01 0.  0.
         14    1    1    2    0    0 -0.36870430266E-03 -0.20931714889E-01  0.11716360470E-01  0.23990534253E-01  0.00000000000E+00 0.  1.
     999901    1    3    3    0    0  0.12365231808E+00 -0.65152464476E-02 -0.38443230024E-01  0.88949998659E+00  0.88000000000E+00 0.  1.
        -11    1    4    4    0    0 -0.30805362562E-01  0.24299659278E-03  0.11287390036E-01  0.32813041687E-01  0.51100000000E-03 0. -1.
         11    1    4    4    0    0 -0.92478251212E-01  0.27203964744E-01  0.15439479518E-01  0.97626437474E-01  0.51100000000E-03 0.  1.
</event>
<event>
 8    1  0.1091347E+005  0.1043930E+01  0.7957747E-01            NaN
         13   -1    0    0    0    0  0.00000000000E+00  0.00000000000E+00  0.74505805969E-08  0.10566000000E+00  0.10566000000E+00 0. -1.
     999900   -1    0    0    0    0 -0.00000000000E+00 -0.00000000000E+00 -0.74505805969E-08  0.93827000000E+00  0.93827000000E+00 0.  1.
     999902    2    1    2    0    0 -0.14465135037E-01  0.12664235778E-01 -0.11757620665E-01  0.10213941476E+01  0.10211455039E+01 0.  0.
     999903    2    3    3    0    0  0.51132991558E-01 -0.11639326709E+00 -0.14994284862E-01  0.12955928102E+00  0.19970059353E-01 0.  0.
         14    1    1    2    0    0  0.14465135037E-01 -0.12664235778E-01  0.11757620665E-01  0.22535852395E-01  0.00000000000E+00 0. -1.
     999901    1    3    3    0    0 -0.65598126595E-01  0.12905750287E+00  0.32366641967E-02  0.89183486658E+00  0.88000000000E+00 0.  1.
        -11    1    4    4    0    0  0.27812509762E-02 -0.25602471041E-01 -0.46676065955E-02  0.26177653690E-01  0.51100000000E-03 0.  1.
         11    1    4    4    0    0  0.48351740582E-01 -0.90790796049E-01 -0.10326678266E-01  0.10338162733E+00  0.51100000000E-03 0. -1.
</event>
<event>
 8    1  0.1091347E+005  0.1043930E+01  0.7957747E-01            NaN
         13   -1    0    0    0    0  0.00000000000E+00  0.00000000000E+00  0.74505805969E-08  0.10566000000E+00  0.10566000000E+00 0. -1.
     999900   -1    0    0    0    0 -0.00000000000E+00 -0.00000000000E+00 -0.74505805969E-08  0.93827000000E+00  0.93827000000E+00 0.  1.
     999902    2    1    2    0    0 -0.20046531079E-01  0.59563486081E-02  0.11139485957E-01  0.10202354934E+01  0.10199603092E+01 0.  0.
     999903    2    3    3    0    0  0.94038142322E-01  0.22468975501E-01  0.84342198080E-01  0.12970384508E+00  0.19011943060E-01 0.  0.
         14    1    1    2    0    0  0.20046531079E-01 -0.59563486081E-02 -0.11139485957E-01  0.23694506630E-01  0.00000000000E+00 0.  1.
     999901    1    3    3    0    0 -0.11408467340E+00 -0.16512626893E-01 -0.73202712123E-01  0.89053164829E+00  0.88000000000E+00 0. -1.
        -11    1    4    4    0    0  0.59249070788E-01  0.23146243752E-01  0.57615098851E-01  0.85825181186E-01  0.51100000000E-03 0.  1.
         11    1    4    4    0    0  0.34789071534E-01 -0.67726825084E-03  0.26727099229E-01  0.43878663890E-01  0.51100000000E-03 0. -1.
</event>
<event>
 8    1  0.1091347E+005  0.1043930E+01  0.7957747E-01            NaN
         13   -1    0    0    0    0  0.00000000000E+00  0.00000000000E+00  0.74505805969E-08  0.10566000000E+00  0.10566000000E+00 0.  1.
     999900   -1    0    0    0    0 -0.00000000000E+00 -0.00000000000E+00 -0.74505805969E-08  0.93827000000E+00  0.93827000000E+00 0. -1.
     999902    2    1    2    0    0 -0.16514565436E-01 -0.86576597470E-02  0.17072063271E-01  0.10186487562E+01  0.10183349877E+01 0.  0.
     999903    2    3    3    0    0 -0.19465047617E-01  0.11325860676E+00  0.56722227344E-01  0.12935441972E+00  0.17571418348E-01 0.  0.
         14    1    1    2    0    0  0.16514565436E-01  0.86576597470E-02 -0.17072063271E-01  0.25281243801E-01  0.00000000000E+00 0. -1.
     999901    1    3    3    0    0  0.29504821814E-02 -0.12191626650E+00 -0.39650164073E-01  0.88929433648E+00  0.88000000000E+00 0. -1.
        -11    1    4    4    0    0 -0.66902707087E-02  0.28440180774E-01  0.23000937107E-01  0.37187468768E-01  0.51100000000E-03 0. -1.
         11    1    4    4    0    0 -0.12774776909E-01  0.84818425983E-01  0.33721290237E-01  0.92166950951E-01  0.51100000000E-03 0.  1.
</event>
<event>
 8    1  0.1091347E+005  0.1043930E+01  0.7957747E-01            NaN
         13   -1    0    0    0    0  0.00000000000E+00  0.00000000000E+00  0.74505805969E-08  0.10566000000E+00  0.10566000000E+00 0.  1.
     999900   -1    0    0    0    0 -0.00000000000E+00 -0.00000000000E+00 -0.74505805969E-08  0.93827000000E+00  0.93827000000E+00 0. -1.
     999902    2    1    2    0    0  0.25603595279E-02 -0.29135758526E-01 -0.16177656500E-01  0.10105059901E+01  0.10099530641E+01 0.  0.
     999903    2    3    3    0    0 -0.78308242834E-01 -0.72848336854E-01 -0.60803936101E-01  0.12459288763E+00  0.19677599567E-01 0.  0.
         14    1    1    2    0    0 -0.25603595279E-02  0.29135758526E-01  0.16177656500E-01  0.33424009868E-01  0.00000000000E+00 0.  1.
     999901    1    3    3    0    0  0.80868602362E-01  0.43712578328E-01  0.44626279601E-01  0.88591310250E+00  0.88000000000E+00 0. -1.
        -11    1    4    4    0    0 -0.77396462549E-01 -0.65976182723E-01 -0.58147206335E-01  0.11715130314E+00  0.51100000000E-03 0. -1.
         11    1    4    4    0    0 -0.91178028453E-03 -0.68721541310E-02 -0.26567297664E-02  0.74415844911E-02  0.51100000000E-03 0.  1.
</event>
<event>
 8    1  0.1091347E+005  0.1043930E+01  0.7957747E-01            NaN
         13   -1    0    0    0    0  0.00000000000E+00  0.00000000000E+00  0.74505805969E-08  0.10566000000E+00  0.10566000000E+00 0.  1.
     999900   -1    0    0    0    0 -0.00000000000E+00 -0.00000000000E+00 -0.74505805969E-08  0.93827000000E+00  0.93827000000E+00 0.  1.
     999902    2    1    2    0    0 -0.21109745194E-01 -0.11798297551E-01  0.16625295404E-04  0.10197469182E+01  0.10194601296E+01 0.  0.
     999903    2    3    3    0    0 -0.38151917629E-01 -0.12501699997E+00  0.55188055044E-02  0.13231287325E+00  0.19784340093E-01 0.  0.
         14    1    1    2    0    0  0.21109745194E-01  0.11798297551E-01 -0.16625295404E-04  0.24183081765E-01  0.00000000000E+00 0.  1.
     999901    1    3    3    0    0  0.17042172435E-01  0.11321870242E+00 -0.55021802090E-02  0.88743404499E+00  0.88000000000E+00 0. -1.
        -11    1    4    4    0    0 -0.38783232130E-01 -0.10220007342E+00  0.31377599497E-02  0.10935767353E+00  0.51100000000E-03 0.  1.
         11    1    4    4    0    0  0.63131450125E-03 -0.22816926545E-01  0.23810455547E-02  0.22955199714E-01  0.51100000000E-03 0. -1.
</event>
<event>
 8    1  0.1091347E+005  0.1043930E+01  0.7957747E-01            NaN
         13   -1    0    0    0    0  0.00000000000E+00  0.00000000000E+00  0.74505805969E-08  0.10566000000E+00  0.10566000000E+00 0.  1.
     999900   -1    0    0    0    0 -0.00000000000E+00 -0.00000000000E+00 -0.74505805969E-08  0.93827000000E+00  0.93827000000E+00 0.  1.
     999902    2    1    2    0    0 -0.13023421681E-01 -0.41136141390E-02 -0.20268906398E-01  0.10194890528E+01  0.10191960405E+01 0.  0.
     999903    2    3    3    0    0 -0.50470726771E-01 -0.93988493263E-01  0.70341379702E-01  0.12949466040E+00  0.20972034867E-01 0.  0.
         14    1    1    2    0    0  0.13023421681E-01  0.41136141390E-02  0.20268906398E-01  0.24440947203E-01  0.00000000000E+00 0.  1.
     999901    1    3    3    0    0  0.37447305090E-01  0.89874879124E-01 -0.90610286100E-01  0.88999439240E+00  0.88000000000E+00 0.  1.
        -11    1    4    4    0    0 -0.47625662859E-01 -0.72454457616E-01  0.59923610635E-01  0.10539901529E+00  0.51100000000E-03 0.  1.
         11    1    4    4    0    0 -0.28450639122E-02 -0.21534035647E-01  0.10417769066E-01  0.24095645109E-01  0.51100000000E-03 0. -1.
</event>
<event>
 8    1  0.1091347E+005  0.1043930E+01  0.7957747E-01            NaN
         13   -1    0    0    0    0  0.00000000000E+00  0.00000000000E+00  0.74505805969E-08  0.10566000000E+00  0.10566000000E+00 0. -1.
     999900   -1    0    0    0    0 -0.00000000000E+00 -0.00000000000E+00 -0.74505805969E-08  0.93827000000E+00  0.93827000000E+00 0. -1.
     999902    2    1    2    0    0  0.75508906024E-02  0.26233375462E-02  0.22437773675E-01  0.10201108578E+01  0.10198327366E+01 0.  0.
     999903    2    3    3    0    0 -0.10400995326E+00 -0.28970930564E-02  0.77567337219E-01  0.13133891525E+00  0.20168176213E-01 0.  0.
         14    1    1    2    0    0 -0.75508906024E-02 -0.26233375462E-02 -0.22437773675E-01  0.23819142224E-01  0.00000000000E+00 0.  1.
     999901    1    3    3    0    0  0.11156084386E+00  0.55204306027E-02 -0.55129563544E-01  0.88877194252E+00  0.88000000000E+00 0. -1.
        -11    1    4    4    0    0 -0.60894119382E-01  0.51951085424E-02  0.53904938633E-01  0.81492861394E-01  0.51100000000E-03 0.  1.
         11    1    4    4    0    0 -0.43115833877E-01 -0.80922015989E-02  0.23662398586E-01  0.49846053861E-01  0.51100000000E-03 0. -1.
</event>
<event>
 8    1  0.1091347E+005  0.1043930E+01  0.7957747E-01            NaN
         13   -1    0    0    0    0  0.00000000000E+00  0.00000000000E+00  0.74505805969E-08  0.10566000000E+00  0.10566000000E+00 0. -1.
     999900   -1    0    0    0    0 -0.00000000000E+00 -0.00000000000E+00 -0.74505805969E-08  0.93827000000E+00  0.93827000000E+00 0.  1.
     999902    2    1    2    0    0  0.75917733385E-02  0.16653892074E-01 -0.14417258799E-01  0.10206309765E+01  0.10203650061E+01 0.  0.
     999903    2    3    3    0    0 -0.89782189654E-01 -0.18040928539E-01  0.88656290736E-01  0.12860542988E+00  0.17120222750E-01 0.  0.
         14    1    1    2    0    0 -0.75917733385E-02 -0.16653892074E-01  0.14417258799E-01  0.23299023475E-01  0.00000000000E+00 0. -1.
     999901    1    3    3    0    0  0.97373962992E-01  0.34694820613E-01 -0.10307354953E+00  0.89202554664E+00  0.88000000000E+00 0.  1.
        -11    1    4    4    0    0 -0.80643351964E-01 -0.13371943267E-01  0.84356892827E-01  0.11746704036E+00  0.51100000000E-03 0. -1.
         11    1    4    4    0    0 -0.91388376895E-02 -0.46689852721E-02  0.42993979094E-02  0.11138389523E-01  0.51100000000E-03 0.  1.
</event>
<event>
 8    1  0.1091347E+005  0.1043930E+01  0.7957747E-01            NaN
         13   -1    0    0    0    0  0.00000000000E+00  0.00000000000E+00  0.74505805969E-08  0.10566000000E+00  0.10566000000E+00 0.  1.
     999900   -1    0    0    0    0 -0.00000000000E+00 -0.00000000000E+00 -0.74505805969E-08  0.93827000000E+00  0.93827000000E+00 0. -1.
     999902    2    1    2    0    0 -0.36020306833E-02  0.78414259696E-02 -0.23213150401E-01  0.10191648443E+01  0.10188639099E+01 0.  0.
     999903    2    3    3    0    0  0.25157612502E-01  0.45633073063E-02 -0.12856794307E+00  0.13240811582E+00  0.18667188029E-01 0.  0.
         14    1    1    2    0    0  0.36020306833E-02 -0.78414259696E-02  0.23213150401E-01  0.24765155720E-01  0.00000000000E+00 0.  1.
     999901    1    3    3    0    0 -0.28759643185E-01  0.32781186632E-02  0.10535479267E+00  0.88675672846E+00  0.88000000000E+00 0.  1.
        -11    1    4    4    0    0  0.13119734008E-01 -0.58773827412E-02 -0.42293431414E-01  0.44672883387E-01  0.51100000000E-03 0.  1.
         11    1    4    4    0    0  0.12037878494E-01  0.10440690048E-01 -0.86274511654E-01  0.87735232430E-01  0.51100000000E-03 0. -1.
</event>
<event>
 8    1  0.1091347E+005  0.1043930E+01  0.7957747E-01            NaN
         13   -1    0    0    0    0  0.00000000000E+00  0.00000000000E+00  0.74505805969E-08  0.10566000000E+00  0.10566000000E+00 0. -1.
     999900   -1    0    0    0    0 -0.00000000000E+00 -0.00000000000E+00 -0.74505805969E-08  0.93827000000E+00  0.93827000000E+00 0.  1.
     999902    2    1    2    0    0  0.19164061034E-01 -0.14772486290E-01 -0.38601770265E-03  0.10197300703E+01  0.10194428771E+01 0.  0.
     999903    2    3    3    0    0  0.11742257604E+00  0.41816154798E-01  0.37862056816E-01  0.13163101883E+00  0.18882203409E-01 0.  0.
         14    1    1    2    0    0 -0.19164061034E-01  0.14772486290E-01  0.38601770265E-03  0.24199929672E-01  0.00000000000E+00 0.  1.
     999901    1    3    3    0    0 -0.98258515005E-01 -0.56588641088E-01 -0.38248074519E-01  0.88809905150E+00  0.88000000000E+00 0.  1.
        -11    1    4    4    0    0  0.13602498443E-01  0.11698996213E-01  0.46156222908E-02  0.18532662152E-01  0.51100000000E-03 0. -1.
         11    1    4    4    0    0  0.10382007760E+00  0.30117158584E-01  0.33246434525E-01  0.11309835668E+00  0.51100000000E-03 0.  1.
</event>
<event>
 8    1  0.1091347E+005  0.1043930E+01  0.7957747E-01            NaN
         13   -1    0    0    0    0  0.00000000000E+00  0.00000000000E+00  0.74505805969E-08  0.10566000000E+00  0.10566000000E+00 0. -1.
     999900   -1    0    0    0    0 -0.00000000000E+00 -0.00000000000E+00 -0.74505805969E-08  0.93827000000E+00  0.93827000000E+00 0. -1.
     999902    2    1    2    0    0 -0.20465012717E-01 -0.13465492137E-02 -0.13282060349E-01  0.10194955353E+01  0.10192026802E+01 0.  0.
     999903    2    3    3    0    0 -0.12868668090E+00 -0.22111780562E-01 -0.11004187464E-01  0.13261994477E+00  0.20439298576E-01 0.  0.
         14    1    1    2    0    0  0.20465012717E-01  0.13465492137E-02  0.13282060349E-01  0.24434464745E-01  0.00000000000E+00 0.  1.
     999901    1    3    3    0    0  0.10822166819E+00  0.20765231349E-01 -0.22778728849E-02  0.88687559049E+00  0.88000000000E+00 0. -1.
        -11    1    4    4    0    0 -0.73750754652E-01 -0.12573084408E-01  0.38484919243E-02  0.74915474198E-01  0.51100000000E-03 0. -1.
         11    1    4    4    0    0 -0.54935926253E-01 -0.95386961541E-02 -0.14852679389E-01  0.57704470569E-01  0.51100000000E-03 0.  1.
</event>
<event>
 8    1  0.1091347E+005  0.1043930E+01  0.7957747E-01            NaN
         13   -1    0    0    0    0  0.00000000000E+00  0.00000000000E+00  0.74505805969E-08  0.10566000000E+00  0.10566000000E+00 0. -1.
     999900   -1    0    0    0    0 -0.00000000000E+00 -0.00000000000E+00 -0.74505805969E-08  0.93827000000E+00  0.93827000000E+00 0. -1.
     999902    2    1    2    0    0  0.17152909982E-01 -0.15479619629E-01 -0.56548993982E-02  0.10201430533E+01  0.10198656923E+01 0.  0.
     999903    2    3    3    0    0  0.10697546152E+00  0.53762254222E-01  0.49466804971E-01  0.13115434128E+00  0.20502855774E-01 0.  0.
         14    1    1    2    0    0 -0.17152909982E-01  0.15479619629E-01  0.56548993982E-02  0.23786946671E-01  0.00000000000E+00 0. -1.
     999901    1    3    3    0    0 -0.89822551543E-01 -0.69241873850E-01 -0.55121704369E-01  0.88898871205E+00  0.88000000000E+00 0. -1.
        -11    1    4    4    0    0  0.55981864195E-01  0.17227220412E-01  0.20521007185E-01  0.62065442065E-01  0.51100000000E-03 0. -1.
         11    1    4    4    0    0  0.50993597330E-01  0.36535033810E-01  0.28945797786E-01  0.69088899214E-01  0.51100000000E-03 0.  1.
</event>
<event>
 8    1  0.1091347E+005  0.1043930E+01  0.7957747E-01            NaN
         13   -1    0    0    0    0  0.00000000000E+00  0.00000000000E+00  0.74505805969E-08  0.10566000000E+00  0.10566000000E+00 0.  1.
     999900   -1    0    0    0    0 -0.00000000000E+00 -0.00000000000E+00 -0.74505805969E-08  0.93827000000E+00  0.93827000000E+00 0. -1.
     999902    2    1    2    0    0  0.22279415308E-01  0.10787631248E-02 -0.44346253447E-02  0.10211879249E+01  0.10209346581E+01 0.  0.
     999903    2    3    3    0    0  0.13099643347E+00 -0.12065176199E-01 -0.14765246081E-01  0.13434020694E+00  0.22883283239E-01 0.  0.
         14    1    1    2    0    0 -0.22279415308E-01 -0.10787631248E-02  0.44346253447E-02  0.22742075066E-01  0.00000000000E+00 0.  1.
     999901    1    3    3    0    0 -0.10871701816E+00  0.13143939324E-01  0.10330620737E-01  0.88684771799E+00  0.88000000000E+00 0.  1.
        -11    1    4    4    0    0  0.84630369100E-01 -0.33036120783E-02 -0.19505307550E-01  0.86913355535E-01  0.51100000000E-03 0. -1.
         11    1    4    4    0    0  0.46366064369E-01 -0.87615641205E-02  0.47400614683E-02  0.47426851410E-01  0.51100000000E-03 0.  1.
</event>
<event>
 8    1  0.1091347E+005  0.1043930E+01  0.7957747E-01            NaN
         13   -1    0    0    0    0  0.00000000000E+00  0.00000000000E+00  0.74505805969E-08  0.10566000000E+00  0.10566000000E+00 0. -1.
     999900   -1    0    0    0    0 -0.00000000000E+00 -0.00000000000E+00 -0.74505805969E-08  0.93827000000E+00  0.93827000000E+00 0. -1.
     999902    2    1    2    0    0 -0.14861643702E-01  0.15846619360E-01 -0.87494720698E-02  0.10205091320E+01  0.10202403400E+01 0.  0.
     999903    2    3    3    0    0 -0.76389008954E-02  0.89265555981E-01 -0.96330390210E-01  0.13308988183E+00  0.20166315362E-01 0.  0.
         14    1    1    2    0    0  0.14861643702E-01 -0.15846619360E-01  0.87494720698E-02  0.23420868049E-01  0.00000000000E+00 0.  1.
     999901    1    3    3    0    0 -0.72227428066E-02 -0.73418936620E-01  0.87580918140E-01  0.88741925012E+00  0.88000000000E+00 0.  1.
        -11    1    4    4    0    0  0.34079419797E-02  0.15453446618E-01 -0.26560559399E-01  0.30921635104E-01  0.51100000000E-03 0.  1.
         11    1    4    4    0    0 -0.11046842875E-01  0.73812109363E-01 -0.69769830811E-01  0.10216824672E+00  0.51100000000E-03 0. -1.
</event>
<event>
 8    1  0.1091347E+005  0.1043930E+01  0.7957747E-01            NaN
         13   -1    0    0    0    0  0.00000000000E+00  0.00000000000E+00  0.74505805969E-08  0.10566000000E+00  0.10566000000E+00 0. -1.
     999900   -1    0    0    0    0 -0.00000000000E+00 -0.00000000000E+00 -0.74505805969E-08  0.93827000000E+00  0.93827000000E+00 0.  1.
     999902    2    1    2    0    0  0.61343104716E-02  0.20515294115E-01  0.91979193924E-02  0.10206253057E+01  0.10203592043E+01 0.  0.
     999903    2    3    3    0    0 -0.71698723519E-01  0.10986239962E+00  0.22860849283E-02  0.13265646616E+00  0.19546304670E-01 0.  0.
         14    1    1    2    0    0 -0.61343104716E-02 -0.20515294115E-01 -0.91979193924E-02  0.23304694349E-01  0.00000000000E+00 0.  1.
     999901    1    3    3    0    0  0.77833033990E-01 -0.89347105507E-01  0.69118344641E-02  0.88796883949E+00  0.88000000000E+00 0.  1.
        -11    1    4    4    0    0 -0.47211614293E-02  0.17098941714E-01  0.41463498011E-02  0.18224064055E-01  0.51100000000E-03 0.  1.
         11    1    4    4    0    0 -0.66977562089E-01  0.92763457907E-01 -0.18602648728E-02  0.11443240211E+00  0.51100000000E-03 0. -1.
</event>
<event>
 8    1  0.1091347E+005  0.1043930E+01  0.7957747E-01            NaN
         13   -1    0    0    0    0  0.00000000000E+00  0.00000000000E+00  0.74505805969E-08  0.10566000000E+00  0.10566000000E+00 0. -1.
     999900   -1    0    0    0    0 -0.00000000000E+00 -0.00000000000E+00 -0.74505805969E-08  0.93827000000E+00  0.93827000000E+00 0. -1.
     999902    2    1    2    0    0  0.35732318991E-02 -0.24916206941E-02  0.23317392162E-01  0.10202091877E+01  0.10199333849E+01 0.  0.
     999903    2    3    3    0    0  0.67461773972E-01 -0.52772920000E-01 -0.93941925707E-01  0.12871622501E+00  0.20167031054E-01 0.  0.
         14    1    1    2    0    0 -0.35732318991E-02  0.24916206941E-02 -0.23317392162E-01  0.23720812320E-01  0.00000000000E+00 0.  1.
     999901    1    3    3    0    0 -0.63888542073E-01  0.50281299306E-01  0.11725931787E+00  0.89149296267E+00  0.88000000000E+00 0.  1.
        -11    1    4    4    0    0  0.22914811999E-01 -0.28861893784E-01 -0.46965063031E-01  0.59699880974E-01  0.51100000000E-03 0.  1.
         11    1    4    4    0    0  0.44546961974E-01 -0.23911026216E-01 -0.46976862676E-01  0.69016344033E-01  0.51100000000E-03 0. -1.
</event>
<event>
 8    1  0.1091347E+005  0.1043930E+01  0.7957747E-01            NaN
         13   -1    0    0    0    0  0.00000000000E+00  0.00000000000E+00  0.74505805969E-08  0.10566000000E+00  0.10566000000E+00 0.  1.
     999900   -1    0    0    0    0 -0.00000000000E+00 -0.00000000000E+00 -0.74505805969E-08  0.93827000000E+00  0.93827000000E+00 0. -1.
     999902    2    1    2    0    0  0.20085893554E-01 -0.31886478874E-02 -0.97038511081E-02  0.10213961295E+01  0.10211475300E+01 0.  0.
     999903    2    3    3    0    0  0.10057069400E+00 -0.84037394850E-01  0.15913531392E-01  0.13366273858E+00  0.20874361774E-01 0.  0.
         14    1    1    2    0    0 -0.20085893554E-01  0.31886478874E-02  0.97038511081E-02  0.22533870541E-01  0.00000000000E+00 0. -1.
     999901    1    3    3    0    0 -0.80484800447E-01  0.80848746963E-01 -0.25617382500E-01  0.88773339088E+00  0.88000000000E+00 0.  1.
        -11    1    4    4    0    0  0.51738286296E-01 -0.54903157784E-01  0.39021373964E-02  0.75542668743E-01  0.51100000000E-03 0. -1.
         11    1    4    4    0    0  0.48832407705E-01 -0.29134237066E-01  0.12011393996E-01  0.58120069842E-01  0.51100000000E-03 0.  1.
</event>
<event>
 8    1  0.1091347E+005  0.1043930E+01  0.7957747E-01            NaN
         13   -1    0    0    0    0  0.00000000000E+00  0.00000000000E+00  0.74505805969E-08  0.10566000000E+00  0.10566000000E+00 0. -1.
     999900   -1    0    0    0    0 -0.00000000000E+00 -0.00000000000E+00 -0.74505805969E-08  0.93827000000E+00  0.93827000000E+00 0. -1.
     999902    2    1    2    0    0  0.85148592310E-02  0.17541620752E-01  0.12561095093E-01  0.10207353369E+01  0.10204717711E+01 0.  0.
     999903    2    3    3    0    0  0.76833262304E-01 -0.92667143920E-01 -0.43308204784E-01  0.12948074102E+00  0.19977786038E-01 0.  0.
         14    1    1    2    0    0 -0.85148592310E-02 -0.17541620752E-01 -0.12561095093E-01  0.23194663099E-01  0.00000000000E+00 0. -1.
     999901    1    3    3    0    0 -0.68318403073E-01  0.11020876467E+00  0.55869299877E-01  0.89125459588E+00  0.88000000000E+00 0. -1.
        -11    1    4    4    0    0  0.48971751200E-01 -0.68975796482E-01 -0.23090169959E-01  0.87688710708E-01  0.51100000000E-03 0. -1.
         11    1    4    4    0    0  0.27861511104E-01 -0.23691347438E-01 -0.20218034825E-01  0.41792030312E-01  0.51100000000E-03 0.  1.
</event>
<event>
 8    1  0.1091347E+005  0.1043930E+01  0.7957747E-01            NaN
         13   -1    0    0    0    0  0.00000000000E+00  0.00000000000E+00  0.74505805969E-08  0.10566000000E+00  0.10566000000E+00 0. -1.
     999900   -1    0    0    0    0 -0.00000000000E+00 -0.00000000000E+00 -0.74505805969E-08  0.93827000000E+00  0.93827000000E+00 0.  1.
     999902    2    1    2    0    0  0.70467500359E-02  0.15736037626E-01  0.15735029365E-01  0.10205875341E+01  0.10203205594E+01 0.  0.
     999903    2    3    3    0    0  0.86453828801E-01 -0.79018247195E-01 -0.51395569677E-01  0.12941393933E+00  0.19705715059E-01 0.  0.
         14    1    1    2    0    0 -0.70467500359E-02 -0.15736037626E-01 -0.15735029365E-01  0.23342465922E-01  0.00000000000E+00 0.  1.
     999901    1    3    3    0    0 -0.79407078765E-01  0.94754284821E-01  0.67130599042E-01  0.89117359475E+00  0.88000000000E+00 0.  1.
        -11    1    4    4    0    0  0.43994932824E-01 -0.27116543001E-01 -0.23802019702E-01  0.56900424264E-01  0.51100000000E-03 0.  1.
         11    1    4    4    0    0  0.42458895978E-01 -0.51901704194E-01 -0.27593549975E-01  0.72513515065E-01  0.51100000000E-03 0. -1.
</event>
<event>
 8    1  0.1091347E+005  0.1043930E+01  0.7957747E-01            NaN
         13   -1    0    0    0    0  0.00000000000E+00  0.00000000000E+00  0.74505805969E-08  0.10566000000E+00  0.10566000000E+00 0. -1.
     999900   -1    0    0    0    0 -0.00000000000E+00 -0.00000000000E+00 -0.74505805969E-08  0.93827000000E+00  0.93827000000E+00 0. -1.
     999902    2    1    2    0    0  0.16371791167E-01 -0.16988134117E-01  0.24227595261E-02  0.10202128752E+01  0.10199371592E+01 0.  0.
     999903    2    3    3    0    0  0.29812658337E-01  0.73931885949E-01  0.10004578991E+00  0.13005706688E+00  0.23472584204E-01 0.  0.
         14    1    1    2    0    0 -0.16371791167E-01  0.16988134117E-01 -0.24227595261E-02  0.23717124837E-01  0.00000000000E+00 0.  1.
     999901    1    3    3    0    0 -0.13440867170E-01 -0.90920020067E-01 -0.97623030385E-01  0.89015580828E+00  0.88000000000E+00 0. -1.
        -11    1    4    4    0    0  0.67351957360E-02  0.45587949729E-01  0.48936542194E-01  0.67221055519E-01  0.51100000000E-03 0. -1.
         11    1    4    4    0    0  0.23077462601E-01  0.28343936220E-01  0.51109247717E-01  0.62836011361E-01  0.51100000000E-03 0.  1.
</event>
<event>
 8    1  0.1091347E+005  0.1043930E+01  0.7957747E-01            NaN
         13   -1    0    0    0    0  0.00000000000E+00  0.00000000000E+00  0.74505805969E-08  0.10566000000E+00  0.10566000000E+00 0.  1.
     999900   -1    0    0    0    0 -0.00000000000E+00 -0.00000000000E+00 -0.74505805969E-08  0.93827000000E+00  0.93827000000E+00 0.  1.
     999902    2    1    2    0    0  0.63535102446E-02  0.20978451483E-01 -0.58880631842E-02  0.10212334847E+01  0.10209812429E+01 0.  0.
     999903    2    3    3    0    0 -0.89351814256E-01 -0.11293057528E-01  0.91734313510E-01  0.13009315463E+00  0.19944040400E-01 0.  0.
         14    1    1    2    0    0 -0.63535102446E-02 -0.20978451483E-01  0.58880631842E-02  0.22696515307E-01  0.00000000000E+00 0. -1.
     999901    1    3    3    0    0  0.95705324500E-01  0.32271509010E-01 -0.97622376694E-01  0.89114033006E+00  0.88000000000E+00 0.  1.
        -11    1    4    4    0    0 -0.67690347851E-01 -0.16584612914E-01  0.73440532627E-01  0.10124626181E+00  0.51100000000E-03 0.  1.
         11    1    4    4    0    0 -0.21661466404E-01  0.52915553859E-02  0.18293780883E-01  0.28846892817E-01  0.51100000000E-03 0. -1.
</event>
<event>
 8    1  0.1091347E+005  0.1043930E+01  0.7957747E-01            NaN
         13   -1    0    0    0    0  0.00000000000E+00  0.00000000000E+00  0.74505805969E-08  0.10566000000E+00  0.10566000000E+00 0.  1.
     999900   -1    0    0    0    0 -0.00000000000E+00 -0.00000000000E+00 -0.74505805969E-08  0.93827000000E+00  0.93827000000E+00 0. -1.
     999902    2    1    2    0    0  0.18817831007E-01  0.95254341555E-03 -0.13574402152E-01  0.10207075433E+01  0.10204433382E+01 0.  0.
     999903    2    3    3    0    0 -0.12001479013E+00  0.13214191370E-01 -0.41746852769E-01  0.12929376075E+00  0.19897541226E-01 0.  0.
         14    1    1    2    0    0 -0.18817831007E-01 -0.95254341555E-03  0.13574402152E-01  0.23222456729E-01  0.00000000000E+00 0.  1.
     999901    1    3    3    0    0  0.13883262114E+00 -0.12261647954E-01  0.28172450618E-01  0.89141378253E+00  0.88000000000E+00 0.  1.
        -11    1    4    4    0    0 -0.74164021078E-02 -0.52631682230E-03  0.19988989357E-02  0.77160059343E-02  0.51100000000E-03 0.  1.
         11    1    4    4    0    0 -0.11259838803E+00  0.13740508192E-01 -0.43745751705E-01  0.12157775481E+00  0.51100000000E-03 0. -1.
</event>
<event>
 8    1  0.1091347E+005  0.1043930E+01  0.7957747E-01            NaN
         13   -1    0    0    0    0  0.00000000000E+00  0.00000000000E+00  0.74505805969E-08  0.10566000000E+00  0.10566000000E+00 0.  1.
     999900   -1    0    0    0    0 -0.00000000000E+00 -0.00000000000E+00 -0.74505805969E-08  0.93827000000E+00  0.93827000000E+00 0. -1.
     999902    2    1    2    0    0  0.23891107503E-02 -0.11710008591E-01  0.19620953607E-01  0.10209557977E+01  0.10206972748E+01 0.  0.
     999903    2    3    3    0    0 -0.68937722460E-02  0.10769792181E+00  0.72285852682E-01  0.13128281431E+00  0.19067416652E-01 0.  0.
         14    1    1    2    0    0 -0.23891107503E-02  0.11710008591E-01 -0.19620953607E-01  0.22974202311E-01  0.00000000000E+00 0. -1.
     999901    1    3    3    0    0  0.92828829963E-02 -0.11940793040E+00 -0.52664899076E-01  0.88967298338E+00  0.88000000000E+00 0.  1.
        -11    1    4    4    0    0  0.35419587713E-02  0.77873149315E-01  0.52875752008E-01  0.94195961312E-01  0.51100000000E-03 0. -1.
         11    1    4    4    0    0 -0.10435731017E-01  0.29824772494E-01  0.19410100675E-01  0.37086852999E-01  0.51100000000E-03 0.  1.
</event>
<event>
 8    1  0.1091347E+005  0.1043930E+01  0.7957747E-01            NaN
         13   -1    0    0    0    0  0.00000000000E+00  0.00000000000E+00  0.74505805969E-08  0.10566000000E+00  0.10566000000E+00 0. -1.
     999900   -1    0    0    0    0 -0.00000000000E+00 -0.00000000000E+00 -0.74505805969E-08  0.93827000000E+00  0.93827000000E+00 0. -1.
     999902    2    1    2    0    0 -0.20136457529E-01 -0.19366578133E-01  0.19625982215E-02  0.10159229819E+01  0.10155368591E+01 0.  0.
     999903    2    3    3    0    0 -0.94013304381E-01 -0.88013818138E-01  0.87565803108E-03  0.13016262296E+00  0.18884068782E-01 0.  0.
         14    1    1    2    0    0  0.20136457529E-01  0.19366578133E-01 -0.19625982215E-02  0.28007018088E-01  0.00000000000E+00 0.  1.
     999901    1    3    3    0    0  0.73876846852E-01  0.68647240005E-01  0.10869401904E-02  0.88576035896E+00  0.88000000000E+00 0.  1.
        -11    1    4    4    0    0 -0.32732243925E-01 -0.41110407035E-01  0.55773250141E-02  0.52847261370E-01  0.51100000000E-03 0.  1.
         11    1    4    4    0    0 -0.61281060456E-01 -0.46903411102E-01 -0.47016669830E-02  0.77315361585E-01  0.51100000000E-03 0. -1.
</event>
<event>
 8    1  0.1091347E+005  0.1043930E+01  0.7957747E-01            NaN
         13   -1    0    0    0    0  0.00000000000E+00  0.00000000000E+00  0.74505805969E-08  0.10566000000E+00  0.10566000000E+00 0.  1.
     999900   -1    0    0    0    0 -0.00000000000E+00 -0.00000000000E+00 -0.74505805969E-08  0.93827000000E+00  0.93827000000E+00 0. -1.
     999902    2    1    2    0    0 -0.97911176715E-02 -0.18458066382E-01 -0.10050197564E-01  0.10207443866E+01  0.10204810287E+01 0.  0.
     999903    2    3    3    0    0  0.50767420964E-01  0.11625418526E+00 -0.26565098840E-02  0.12840510469E+00  0.19709065001E-01 0.  0.
         14    1    1    2    0    0  0.97911176715E-02  0.18458066382E-01  0.10050197564E-01  0.23185613447E-01  0.00000000000E+00 0.  1.
     999901    1    3    3    0    0 -0.60558538635E-01 -0.13471225164E+00 -0.73936876796E-02  0.89233928187E+00  0.88000000000E+00 0.  1.
        -11    1    4    4    0    0  0.22347492047E-01  0.43441397512E-01  0.80400703624E-02  0.49512314337E-01  0.51100000000E-03 0. -1.
         11    1    4    4    0    0  0.28419928917E-01  0.72812787748E-01 -0.10696580246E-01  0.78892790350E-01  0.51100000000E-03 0.  1.
</event>
<event>
 8    1  0.1091347E+005  0.1043930E+01  0.7957747E-01            NaN
         13   -1    0    0    0    0  0.00000000000E+00  0.00000000000E+00  0.74505805969E-08  0.10566000000E+00  0.10566000000E+00 0. -1.
     999900   -1    0    0    0    0 -0.00000000000E+00 -0.00000000000E+00 -0.74505805969E-08  0.93827000000E+00  0.93827000000E+00 0.  1.
     999902    2    1    2    0    0  0.12200045196E-01 -0.57351812134E-03  0.21397298119E-01  0.10192923379E+01  0.10189945318E+01 0.  0.
     999903    2    3    3    0    0 -0.59869678853E-02 -0.10675253046E+00  0.73862077540E-01  0.13117224290E+00  0.17849489172E-01 0.  0.
         14    1    1    2    0    0 -0.12200045196E-01  0.57351812134E-03 -0.21397298119E-01  0.24637662077E-01  0.00000000000E+00 0.  1.
     999901    1    3    3    0    0  0.18187013081E-01  0.10617901234E+00 -0.52464779421E-01  0.88812009502E+00  0.88000000000E+00 0.  1.
        -11    1    4    4    0    0 -0.45923532348E-02 -0.46119471061E-01  0.42530506249E-01  0.62906282691E-01  0.51100000000E-03 0.  1.
         11    1    4    4    0    0 -0.13946146505E-02 -0.60633059402E-01  0.31331571290E-01  0.68265960207E-01  0.51100000000E-03 0. -1.
</event>
<event>
 8    1  0.1091347E+005  0.1043930E+01  0.7957747E-01            NaN
         13   -1    0    0    0    0  0.00000000000E+00  0.00000000000E+00  0.74505805969E-08  0.10566000000E+00  0.10566000000E+00 0. -1.
     999900   -1    0    0    0    0 -0.00000000000E+00 -0.00000000000E+00 -0.74505805969E-08  0.93827000000E+00  0.93827000000E+00 0. -1.
     999902    2    1    2    0    0  0.77089031080E-02  0.27853855723E-01  0.96631655401E-02  0.10134563846E+01  0.10129981255E+01 0.  0.
     999903    2    3    3    0    0  0.12257289039E+00  0.51112462407E-02  0.20118205187E-03  0.12564982293E+00  0.27158778172E-01 0.  0.
         14    1    1    2    0    0 -0.77089031080E-02 -0.27853855723E-01 -0.96631655401E-02  0.30473615375E-01  0.00000000000E+00 0.  1.
     999901    1    3    3    0    0 -0.11486398728E+00  0.22742609482E-01  0.94619834882E-02  0.88780656170E+00  0.88000000000E+00 0. -1.
        -11    1    4    4    0    0  0.98401650146E-01 -0.17003531429E-03  0.10260655817E-01  0.98936625383E-01  0.51100000000E-03 0. -1.
         11    1    4    4    0    0  0.24171240241E-01  0.52812815550E-02 -0.10059473765E-01  0.26713197545E-01  0.51100000000E-03 0.  1.
</event>
<event>
 8    1  0.1091347E+005  0.1043930E+01  0.7957747E-01            NaN
         13   -1    0    0    0    0  0.00000000000E+00  0.00000000000E+00  0.74505805969E-08  0.10566000000E+00  0.10566000000E+00 0. -1.
     999900   -1    0    0    0    0 -0.00000000000E+00 -0.00000000000E+00 -0.74505805969E-08  0.93827000000E+00  0.93827000000E+00 0. -1.
     999902    2    1    2    0    0  0.74953790964E-02  0.16175085987E-01  0.13753216106E-01  0.10214141152E+01  0.10211659168E+01 0.  0.
     999903    2    3    3    0    0 -0.91241043525E-01  0.91831651569E-01 -0.17171340322E-01  0.13212837640E+00  0.20126417171E-01 0.  0.
         14    1    1    2    0    0 -0.74953790964E-02 -0.16175085987E-01 -0.13753216106E-01  0.22515884787E-01  0.00000000000E+00 0.  1.
     999901    1    3    3    0    0  0.98736422621E-01 -0.75656565582E-01  0.30924556428E-01  0.88928573881E+00  0.88000000000E+00 0.  1.
        -11    1    4    4    0    0 -0.57766573964E-01  0.48473377451E-01 -0.26537271026E-02  0.75458258512E-01  0.51100000000E-03 0. -1.
         11    1    4    4    0    0 -0.33474469560E-01  0.43358274117E-01 -0.14517613219E-01  0.56670117887E-01  0.51100000000E-03 0.  1.
</event>
<event>
 8    1  0.1091347E+005  0.1043930E+01  0.7957747E-01            NaN
         13   -1    0    0    0    0  0.00000000000E+00  0.00000000000E+00  0.74505805969E-08  0.10566000000E+00  0.10566000000E+00 0.  1.
     999900   -1    0    0    0    0 -0.00000000000E+00 -0.00000000000E+00 -0.74505805969E-08  0.93827000000E+00  0.93827000000E+00 0.  1.
     999902    2    1    2    0    0  0.21932334517E-01 -0.34524403622E-03  0.10936511717E-01  0.10194197209E+01  0.10191250236E+01 0.  0.
     999903    2    3    3    0    0 -0.11957773660E+00 -0.34160544043E-01  0.19326217250E-01  0.12743375586E+00  0.20002039881E-01 0.  0.
         14    1    1    2    0    0 -0.21932334517E-01  0.34524403622E-03 -0.10936511717E-01  0.24510279055E-01  0.00000000000E+00 0. -1.
     999901    1    3    3    0    0  0.14151007112E+00  0.33815300007E-01 -0.83897055332E-02  0.89198596508E+00  0.88000000000E+00 0.  1.
        -11    1    4    4    0    0 -0.77886734191E-01 -0.14326520232E-01  0.18146130358E-01  0.81247373576E-01  0.51100000000E-03 0. -1.
         11    1    4    4    0    0 -0.41691002413E-01 -0.19834023811E-01  0.11800868924E-02  0.46186382288E-01  0.51100000000E-03 0.  1.
</event>
<event>
 8    1  0.1091347E+005  0.1043930E+01  0.7957747E-01            NaN
         13   -1    0    0    0    0  0.00000000000E+00  0.00000000000E+00  0.74505805969E-08  0.10566000000E+00  0.10566000000E+00 0. -1.
     999900   -1    0    0    0    0 -0.00000000000E+00 -0.00000000000E+00 -0.74505805969E-08  0.93827000000E+00  0.93827000000E+00 0. -1.
     999902    2    1    2    0    0 -0.25389889482E-02 -0.16847850209E-01 -0.16773856117E-01  0.10200206133E+01  0.10197403556E+01 0.  0.
     999903    2    3    3    0    0  0.79927319645E-01  0.88082541220E-01 -0.46319117449E-01  0.12946797505E+00  0.21669919896E-01 0.  0.
         14    1    1    2    0    0  0.25389889482E-02  0.16847850209E-01  0.16773856117E-01  0.23909386662E-01  0.00000000000E+00 0. -1.
     999901    1    3    3    0    0 -0.82466308593E-01 -0.10493039143E+00  0.29545261331E-01  0.89055263829E+00  0.88000000000E+00 0.  1.
        -11    1    4    4    0    0  0.30414125730E-01  0.25626471109E-01 -0.62590229789E-02  0.40263774724E-01  0.51100000000E-03 0. -1.
         11    1    4    4    0    0  0.49513193915E-01  0.62456070111E-01 -0.40060094470E-01  0.89204200323E-01  0.51100000000E-03 0.  1.
</event>
<event>
 8    1  0.1091347E+005  0.1043930E+01  0.7957747E-01            NaN
         13   -1    0    0    0    0  0.00000000000E+00  0.00000000000E+00  0.74505805969E-08  0.10566000000E+00  0.10566000000E+00 0. -1.
     999900   -1    0    0    0    0 -0.00000000000E+00 -0.00000000000E+00 -0.74505805969E-08  0.93827000000E+00  0.93827000000E+00 0.  1.
     999902    2    1    2    0    0  0.25230765806E-01 -0.46358016305E-04  0.21467138046E-02  0.10186080318E+01  0.10182932389E+01 0.  0.
     999903    2    3    3    0    0  0.12294118333E+00 -0.27636781450E-01  0.35364639617E-01  0.13214766173E+00  0.18276228196E-01 0.  0.
         14    1    1    2    0    0 -0.25230765806E-01  0.46358016305E-04 -0.21467138046E-02  0.25321968177E-01  0.00000000000E+00 0. -1.
     999901    1    3    3    0    0 -0.97710417523E-01  0.27590423434E-01 -0.33217925812E-01  0.88646037010E+00  0.88000000000E+00 0. -1.
        -11    1    4    4    0    0  0.24873501848E-01 -0.97720730063E-02  0.14106840668E-01  0.30223311858E-01  0.51100000000E-03 0.  1.
         11    1    4    4    0    0  0.98067681480E-01 -0.17864708444E-01  0.21257798949E-01  0.10192434987E+00  0.51100000000E-03 0. -1.
</event>
<event>
 8    1  0.1091347E+005  0.1043930E+01  0.7957747E-01            NaN
         13   -1    0    0    0    0  0.00000000000E+00  0.00000000000E+00  0.74505805969E-08  0.10566000000E+00  0.10566000000E+00 0.  1.
     999900   -1    0    0    0    0 -0.00000000000E+00 -0.00000000000E+00 -0.74505805969E-08  0.93827000000E+00  0.93827000000E+00 0. -1.
     999902    2    1    2    0    0  0.10274486989E-01 -0.21705810240E-01  0.50953737626E-02  0.10193806596E+01  0.10190850107E+01 0.  0.
     999903    2    3    3    0    0  0.87763043716E-01 -0.60596755661E-01  0.75842052593E-01  0.13229437594E+00  0.19376953465E-01 0.  0.
         14    1    1    2    0    0 -0.10274486989E-01  0.21705810240E-01 -0.50953737626E-02  0.24549340415E-01  0.00000000000E+00 0.  1.
     999901    1    3    3    0    0 -0.77488556728E-01  0.38890945421E-01 -0.70746678831E-01  0.88708628364E+00  0.88000000000E+00 0. -1.
        -11    1    4    4    0    0  0.45910308564E-01 -0.22399377138E-01  0.43178967051E-01  0.66889258071E-01  0.51100000000E-03 0. -1.
         11    1    4    4    0    0  0.41852735152E-01 -0.38197378524E-01  0.32663085542E-01  0.65405117873E-01  0.51100000000E-03 0.  1.
</event>
<event>
 8    1  0.1091347E+005  0.1043930E+01  0.7957747E-01            NaN
         13   -1    0    0    0    0  0.00000000000E+00  0.00000000000E+00  0.74505805969E-08  0.10566000000E+00  0.10566000000E+00 0.  1.
     999900   -1    0    0    0    0 -0.00000000000E+00 -0.00000000000E+00 -0.74505805969E-08  0.93827000000E+00  0.93827000000E+00 0. -1.
     999902    2    1    2    0    0 -0.10347745639E-01  0.16454001092E-01 -0.14398216146E-01  0.10197407747E+01  0.10194538386E+01 0.  0.
     999903    2    3    3    0    0 -0.71492828493E-01 -0.53025555460E-01 -0.94301579285E-01  0.13128668058E+00  0.20505379421E-01 0.  0.
         14    1    1    2    0    0  0.10347745639E-01 -0.16454001092E-01  0.14398216146E-01  0.24189225286E-01  0.00000000000E+00 0.  1.
     999901    1    3    3    0    0  0.61145082853E-01  0.69479556552E-01  0.79903363139E-01  0.88845409413E+00  0.88000000000E+00 0.  1.
        -11    1    4    4    0    0 -0.31952310069E-01 -0.36339183893E-01 -0.48284498030E-01  0.68360370652E-01  0.51100000000E-03 0. -1.
         11    1    4    4    0    0 -0.39540518424E-01 -0.16686371568E-01 -0.46017081255E-01  0.62926309931E-01  0.51100000000E-03 0.  1.
</event>
<event>
 8    1  0.1091347E+005  0.1043930E+01  0.7957747E-01            NaN
         13   -1    0    0    0    0  0.00000000000E+00  0.00000000000E+00  0.74505805969E-08  0.10566000000E+00  0.10566000000E+00 0. -1.
     999900   -1    0    0    0    0 -0.00000000000E+00 -0.00000000000E+00 -0.74505805969E-08  0.93827000000E+00  0.93827000000E+00 0.  1.
     999902    2    1    2    0    0  0.15572891201E-01 -0.17937593085E-01  0.13640626388E-03  0.10201751943E+01  0.10198985912E+01 0.  0.
     999903    2    3    3    0    0  0.47948280099E-01  0.58398697085E-01 -0.10448397867E+00  0.13010732054E+00  0.17365703950E-01 0.  0.
         14    1    1    2    0    0 -0.15572891201E-01  0.17937593085E-01 -0.13640626388E-03  0.23754805676E-01  0.00000000000E+00 0.  1.
     999901    1    3    3    0    0 -0.32375388898E-01 -0.76336290170E-01  0.10462038493E+00  0.89006787379E+00  0.88000000000E+00 0. -1.
        -11    1    4    4    0    0  0.90624141858E-02  0.18526292393E-01 -0.39161421964E-01  0.44263178286E-01  0.51100000000E-03 0.  1.
         11    1    4    4    0    0  0.38885865913E-01  0.39872404691E-01 -0.65322556704E-01  0.85844142252E-01  0.51100000000E-03 0. -1.
</event>
<event>
 8    1  0.1091347E+005  0.1043930E+01  0.7957747E-01            NaN
         13   -1    0    0    0    0  0.00000000000E+00  0.00000000000E+00  0.74505805969E-08  0.10566000000E+00  0.10566000000E+00 0.  1.
     999900   -1    0    0    0    0 -0.00000000000E+00 -0.00000000000E+00 -0.74505805969E-08  0.93827000000E+00  0.93827000000E+00 0.  1.
     999902    2    1    2    0    0  0.26512488583E-02  0.21062058858E-01  0.75410076830E-02  0.10214021008E+01  0.10211536345E+01 0.  0.
     999903    2    3    3    0    0  0.56126872705E-03 -0.25772404309E-01  0.12786043444E+00  0.13197835514E+00  0.20136128781E-01 0.  0.
         14    1    1    2    0    0 -0.26512488583E-02 -0.21062058858E-01 -0.75410076830E-02  0.22527899164E-01  0.00000000000E+00 0. -1.
     999901    1    3    3    0    0  0.20899801313E-02  0.46834463168E-01 -0.12031942676E+00  0.88942374570E+00  0.88000000000E+00 0.  1.
        -11    1    4    4    0    0 -0.74759605953E-03 -0.16413270566E-01  0.35350152167E-01  0.38985237331E-01  0.51100000000E-03 0. -1.
         11    1    4    4    0    0  0.13088647866E-02 -0.93591337430E-02  0.92510282276E-01  0.92993117806E-01  0.51100000000E-03 0.  1.
</event>
<event>
 8    1  0.1091347E+005  0.1043930E+01  0.7957747E-01            NaN
         13   -1    0    0    0    0  0.00000000000E+00  0.00000000000E+00  0.74505805969E-08  0.10566000000E+00  0.10566000000E+00 0. -1.
     999900   -1    0    0    0    0 -0.00000000000E+00 -0.00000000000E+00 -0.74505805969E-08  0.93827000000E+00  0.93827000000E+00 0.  1.
     999902    2    1    2    0    0  0.74427339561E-02  0.21581924141E-01  0.45530619277E-02  0.10206511660E+01  0.10203856617E+01 0.  0.
     999903    2    3    3    0    0 -0.12185810214E+00 -0.16952099074E-01  0.36326662996E-01  0.12980149358E+00  0.19799761931E-01 0.  0.
         14    1    1    2    0    0 -0.74427339561E-02 -0.21581924141E-01 -0.45530619277E-02  0.23278833976E-01  0.00000000000E+00 0.  1.
     999901    1    3    3    0    0  0.12930083609E+00  0.38534023215E-01 -0.31773601069E-01  0.89084967244E+00  0.88000000000E+00 0.  1.
        -11    1    4    4    0    0 -0.13372237952E-01 -0.55200895555E-02  0.99637440356E-02  0.17573430307E-01  0.51100000000E-03 0. -1.
         11    1    4    4    0    0 -0.10848586419E+00 -0.11432009519E-01  0.26362918961E-01  0.11222806328E+00  0.51100000000E-03 0.  1.
</event>
<event>
 8    1  0.1091347E+005  0.1043930E+01  0.7957747E-01            NaN
         13   -1    0    0    0    0  0.00000000000E+00  0.00000000000E+00  0.74505805969E-08  0.10566000000E+00  0.10566000000E+00 0.  1.
     999900   -1    0    0    0    0 -0.00000000000E+00 -0.00000000000E+00 -0.74505805969E-08  0.93827000000E+00  0.93827000000E+00 0.  1.
     999902    2    1    2    0    0 -0.69829605133E-02  0.78996174059E-02  0.20454607624E-01  0.10209179018E+01  0.10206585156E+01 0.  0.
     999903    2    3    3    0    0  0.10949635037E+00 -0.35181714664E-01  0.60134812462E-01  0.13131239947E+00  0.19988666613E-01 0.  0.
         14    1    1    2    0    0  0.69829605133E-02 -0.78996174059E-02 -0.20454607624E-01  0.23012098247E-01  0.00000000000E+00 0. -1.
     999901    1    3    3    0    0 -0.11647931089E+00  0.43081332070E-01 -0.39680204839E-01  0.88960550228E+00  0.88000000000E+00 0.  1.
        -11    1    4    4    0    0  0.93300764818E-01 -0.24985552016E-01  0.43430228606E-01  0.10590446829E+00  0.51100000000E-03 0.  1.
         11    1    4    4    0    0  0.16195585553E-01 -0.10196162649E-01  0.16704583856E-01  0.25407931183E-01  0.51100000000E-03 0. -1.
</event>
<event>
 8    1  0.1091347E+005  0.1043930E+01  0.7957747E-01            NaN
         13   -1    0    0    0    0  0.00000000000E+00  0.00000000000E+00  0.74505805969E-08  0.10566000000E+00  0.10566000000E+00 0.  1.
     999900   -1    0    0    0    0 -0.00000000000E+00 -0.00000000000E+00 -0.74505805969E-08  0.93827000000E+00  0.93827000000E+00 0.  1.
     999902    2    1    2    0    0  0.83719927346E-02 -0.12774523701E-01  0.19179401110E-01  0.10194120852E+01  0.10191172020E+01 0.  0.
     999903    2    3    3    0    0  0.90140900131E-01  0.87637086933E-01  0.26025349629E-01  0.12990912695E+00  0.19834857158E-01 0.  0.
         14    1    1    2    0    0 -0.83719927346E-02  0.12774523701E-01 -0.19179401110E-01  0.24517914779E-01  0.00000000000E+00 0.  1.
     999901    1    3    3    0    0 -0.81768907396E-01 -0.10041161063E+00 -0.68459485183E-02  0.88950295827E+00  0.88000000000E+00 0. -1.
        -11    1    4    4    0    0  0.84384185855E-01  0.86643453584E-01  0.22366504540E-01  0.12299715654E+00  0.51100000000E-03 0.  1.
         11    1    4    4    0    0  0.57567142760E-02  0.99363334887E-03  0.36588450886E-02  0.69119704043E-02  0.51100000000E-03 0. -1.
</event>
<event>
 8    1  0.1091347E+005  0.1043930E+01  0.7957747E-01            NaN
         13   -1    0    0    0    0  0.00000000000E+00  0.00000000000E+00  0.74505805969E-08  0.10566000000E+00  0.10566000000E+00 0.  1.
     999900   -1    0    0    0    0 -0.00000000000E+00 -0.00000000000E+00 -0.74505805969E-08  0.93827000000E+00  0.93827000000E+00 0.  1.
     999902    2    1    2    0    0 -0.71091692654E-02  0.22905208201E-01  0.63412309906E-03  0.10199385231E+01  0.10196563146E+01 0.  0.
     999903    2    3    3    0    0 -0.78713242724E-01 -0.53243306178E-01 -0.85749362149E-01  0.12955217659E+00  0.20004727374E-01 0.  0.
         14    1    1    2    0    0  0.71091692654E-02 -0.22905208201E-01 -0.63412309906E-03  0.23991476872E-01  0.00000000000E+00 0. -1.
     999901    1    3    3    0    0  0.71604073459E-01  0.76148514379E-01  0.86383485248E-01  0.89038634654E+00  0.88000000000E+00 0.  1.
        -11    1    4    4    0    0 -0.16154761085E-01 -0.25282955761E-02 -0.17863113755E-01  0.24222314882E-01  0.51100000000E-03 0. -1.
         11    1    4    4    0    0 -0.62558481639E-01 -0.50715010602E-01 -0.67886248394E-01  0.10532986171E+00  0.51100000000E-03 0.  1.
</event>
<event>
 8    1  0.1091347E+005  0.1043930E+01  0.7957747E-01            NaN
         13   -1    0    0    0    0  0.00000000000E+00  0.00000000000E+00  0.74505805969E-08  0.10566000000E+00  0.10566000000E+00 0. -1.
     999900   -1    0    0    0    0 -0.00000000000E+00 -0.00000000000E+00 -0.74505805969E-08  0.93827000000E+00  0.93827000000E+00 0.  1.
     999902    2    1    2    0    0  0.15821388960E-01 -0.94115773113E-02 -0.15811109201E-01  0.10196630408E+01  0.10193742352E+01 0.  0.
     999903    2    3    3    0    0  0.86305545681E-01  0.95700934088E-01 -0.24862773971E-02  0.13050939401E+00  0.20474480436E-01 0.  0.
         14    1    1    2    0    0 -0.15821388960E-01  0.94115773113E-02  0.15811109201E-01  0.24266959230E-01  0.00000000000E+00 0.  1.
     999901    1    3    3    0    0 -0.70484156721E-01 -0.10511251140E+00 -0.13324831804E-01  0.88915364676E+00  0.88000000000E+00 0. -1.
        -11    1    4    4    0    0  0.25773605538E-01  0.16224010914E-01  0.18046670755E-02  0.30512541960E-01  0.51100000000E-03 0.  1.
         11    1    4    4    0    0  0.60531940143E-01  0.79476923174E-01 -0.42909444726E-02  0.99996852051E-01  0.51100000000E-03 0. -1.
</event>
<event>
 8    1  0.1091347E+005  0.1043930E+01  0.7957747E-01            NaN
         13   -1    0    0    0    0  0.00000000000E+00  0.00000000000E+00  0.74505805969E-08  0.10566000000E+00  0.10566000000E+00 0.  1.
     999900   -1    0    0    0    0 -0.00000000000E+00 -0.00000000000E+00 -0.74505805969E-08  0.93827000000E+00  0.93827000000E+00 0. -1.
     999902    2    1    2    0    0  0.20925653881E-01 -0.11016773771E-01 -0.31002489410E-02  0.10200791334E+01  0.10198002621E+01 0.  0.
     999903    2    3    3    0    0  0.97665470999E-01 -0.83436372166E-01  0.29215089704E-01  0.13318687450E+00  0.19622681956E-01 0.  0.
         14    1    1    2    0    0 -0.20925653881E-01  0.11016773771E-01  0.31002489410E-02  0.23850866612E-01  0.00000000000E+00 0. -1.
     999901    1    3    3    0    0 -0.76739817118E-01  0.72419598394E-01 -0.32315338645E-01  0.88689225889E+00  0.88000000000E+00 0. -1.
        -11    1    4    4    0    0  0.39195874896E-01 -0.39086092153E-01  0.36633759159E-02  0.55477208409E-01  0.51100000000E-03 0.  1.
         11    1    4    4    0    0  0.58469596102E-01 -0.44350280012E-01  0.25551713788E-01  0.77709666092E-01  0.51100000000E-03 0. -1.
</event>
<event>
 8    1  0.1091347E+005  0.1043930E+01  0.7957747E-01            NaN
         13   -1    0    0    0    0  0.00000000000E+00  0.00000000000E+00  0.74505805969E-08  0.10566000000E+00  0.10566000000E+00 0.  1.
     999900   -1    0    0    0    0 -0.00000000000E+00 -0.00000000000E+00 -0.74505805969E-08  0.93827000000E+00  0.93827000000E+00 0. -1.
     999902    2    1    2    0    0  0.14953322719E-01 -0.50382891033E-02 -0.18245935798E-01  0.10198073884E+01  0.10195220493E+01 0.  0.
     999903    2    3    3    0    0  0.19570428543E-01 -0.12557129384E+00 -0.29123707019E-01  0.13151247746E+00  0.17210168704E-01 0.  0.
         14    1    1    2    0    0 -0.14953322719E-01  0.50382891033E-02  0.18245935798E-01  0.24122611604E-01  0.00000000000E+00 0.  1.
     999901    1    3    3    0    0 -0.46171058238E-02  0.12053300473E+00  0.10877771221E-01  0.88829491094E+00  0.88000000000E+00 0.  1.
        -11    1    4    4    0    0  0.96601630513E-02 -0.24917880144E-01 -0.20394690783E-02  0.26807462695E-01  0.51100000000E-03 0. -1.
         11    1    4    4    0    0  0.99102654918E-02 -0.10065341369E+00 -0.27084237941E-01  0.10470501476E+00  0.51100000000E-03 0.  1.
</event>
<event>
 8    1  0.1091347E+005  0.1043930E+01  0.7957747E-01            NaN
         13   -1    0    0    0    0  0.00000000000E+00  0.00000000000E+00  0.74505805969E-08  0.10566000000E+00  0.10566000000E+00 0.  1.
     999900   -1    0    0    0    0 -0.00000000000E+00 -0.00000000000E+00 -0.74505805969E-08  0.93827000000E+00  0.93827000000E+00 0. -1.
     999902    2    1    2    0    0  0.26717725109E-02  0.21234475510E-01  0.11202364575E-01  0.10197735456E+01  0.10194873957E+01 0.  0.
     999903    2    3    3    0    0 -0.11913298567E+00 -0.63276427291E-02  0.47182310957E-01  0.13022836627E+00  0.22372965330E-01 0.  0.
         14    1    1    2    0    0 -0.26717725109E-02 -0.21234475510E-01 -0.11202364575E-01  0.24156454430E-01  0.00000000000E+00 0.  1.
     999901    1    3    3    0    0  0.12180475818E+00  0.27562118239E-01 -0.35979946381E-01  0.88954517930E+00  0.88000000000E+00 0.  1.
        -11    1    4    4    0    0 -0.65876268950E-01  0.42952848647E-02  0.17323885674E-01  0.68253281377E-01  0.51100000000E-03 0. -1.
         11    1    4    4    0    0 -0.53256716716E-01 -0.10622927594E-01  0.29858425283E-01  0.61975084892E-01  0.51100000000E-03 0.  1.
</event>
<event>
 8    1  0.1091347E+005  0.1043930E+01  0.7957747E-01            NaN
         13   -1    0    0    0    0  0.00000000000E+00  0.00000000000E+00  0.74505805969E-08  0.10566000000E+00  0.10566000000E+00 0.  1.
     999900   -1    0    0    0    0 -0.00000000000E+00 -0.00000000000E+00 -0.74505805969E-08  0.93827000000E+00  0.93827000000E+00 0.  1.
     999902    2    1    2    0    0 -0.67935116032E-02 -0.22181917535E-01  0.64453904015E-02  0.10198523688E+01  0.10195681056E+01 0.  0.
     999903    2    3    3    0    0  0.10911653903E+00 -0.57214908770E-03 -0.66337452414E-01  0.12901037154E+00  0.18337718716E-01 0.  0.
         14    1    1    2    0    0  0.67935116032E-02  0.22181917535E-01 -0.64453904015E-02  0.24077631172E-01  0.00000000000E+00 0.  1.
     999901    1    3    3    0    0 -0.11591005063E+00 -0.21609768447E-01  0.72782842815E-01  0.89084199729E+00  0.88000000000E+00 0. -1.
        -11    1    4    4    0    0  0.17174941673E-01 -0.24553458240E-02 -0.18433563046E-01  0.25319255758E-01  0.51100000000E-03 0.  1.
         11    1    4    4    0    0  0.91941597354E-01  0.18831967363E-02 -0.47903889367E-01  0.10369111578E+00  0.51100000000E-03 0. -1.
</event>
<event>
 7    1  0.1091347E+005  0.1043930E+01  0.7957747E-01            NaN
         13   -1    0    0    0    0  0.00000000000E+00  0.00000000000E+00  0.74505805969E-08  0.10566000000E+00  0.10566000000E+00 0.  1.
     999900   -1    0    0    0    0 -0.00000000000E+00 -0.00000000000E+00 -0.74505805969E-08  0.93827000000E+00  0.93827000000E+00 0. -1.
     999903    2    1    2    0    0 -0.26604881844E-01 -0.93262566945E-01  0.69649344386E-01  0.12098998119E+00  0.19540170007E-01 0.  0.
         14    1    1    2    0    0  0.46647317306E-02  0.37975968569E-01 -0.12036937782E-02  0.38280318567E-01  0.00000000000E+00 0.  1.
     999901    1    1    2    0    0  0.21940150114E-01  0.55286598377E-01 -0.68445650607E-01  0.88465970024E+00  0.88000000000E+00 0. -1.
        -11    1    3    3    0    0 -0.10720242741E-01 -0.38176365817E-01  0.16986742835E-01  0.43141268694E-01  0.51100000000E-03 0. -1.
         11    1    3    3    0    0 -0.15884639103E-01 -0.55086201129E-01  0.52662601551E-01  0.77848712496E-01  0.51100000000E-03 0.  1.
</event>
<event>
 8    1  0.1091347E+005  0.1043930E+01  0.7957747E-01            NaN
         13   -1    0    0    0    0  0.00000000000E+00  0.00000000000E+00  0.74505805969E-08  0.10566000000E+00  0.10566000000E+00 0. -1.
     999900   -1    0    0    0    0 -0.00000000000E+00 -0.00000000000E+00 -0.74505805969E-08  0.93827000000E+00  0.93827000000E+00 0. -1.
     999902    2    1    2    0    0  0.19231560449E-01  0.40093028048E-02 -0.85456751779E-02  0.10225067418E+01  0.10222822903E+01 0.  0.
     999903    2    3    3    0    0  0.34450422730E-01 -0.12011473842E+00  0.38983124928E-01  0.13239586210E+00  0.19864497461E-01 0.  0.
         14    1    1    2    0    0 -0.19231560449E-01 -0.40093028048E-02  0.85456751779E-02  0.21423258168E-01  0.00000000000E+00 0.  1.
     999901    1    3    3    0    0 -0.15218862281E-01  0.12412404123E+00 -0.47528800106E-01  0.89011087973E+00  0.88000000000E+00 0. -1.
        -11    1    4    4    0    0  0.99965477747E-02 -0.40112627749E-01  0.33904111210E-02  0.41481440198E-01  0.51100000000E-03 0. -1.
         11    1    4    4    0    0  0.24453874955E-01 -0.80002110673E-01  0.35592713807E-01  0.90914421901E-01  0.51100000000E-03 0.  1.
</event>
<event>
 8    1  0.1091347E+005  0.1043930E+01  0.7957747E-01            NaN
         13   -1    0    0    0    0  0.00000000000E+00  0.00000000000E+00  0.74505805969E-08  0.10566000000E+00  0.10566000000E+00 0.  1.
     999900   -1    0    0    0    0 -0.00000000000E+00 -0.00000000000E+00 -0.74505805969E-08  0.93827000000E+00  0.93827000000E+00 0. -1.
     999902    2    1    2    0    0  0.45871749175E-02  0.23092310931E-01  0.45355837861E-03  0.10203821187E+01  0.10201103693E+01 0.  0.
     999903    2    3    3    0    0 -0.74650604444E-02 -0.92730974815E-01 -0.86121255297E-01  0.12849900515E+00  0.20984825301E-01 0.  0.
         14    1    1    2    0    0 -0.45871749175E-02 -0.23092310931E-01 -0.45355837860E-03  0.23547881286E-01  0.00000000000E+00 0.  1.
     999901    1    3    3    0    0  0.12052235362E-01  0.11582328575E+00  0.86574813676E-01  0.89188311356E+00  0.88000000000E+00 0.  1.
        -11    1    4    4    0    0 -0.64278377532E-02 -0.47521773445E-01 -0.57941749849E-01  0.75213985043E-01  0.51100000000E-03 0.  1.
         11    1    4    4    0    0 -0.10372226913E-02 -0.45209201370E-01 -0.28179505448E-01  0.53285020106E-01  0.51100000000E-03 0. -1.
</event>
<event>
 8    1  0.1091347E+005  0.1043930E+01  0.7957747E-01            NaN
         13   -1    0    0    0    0  0.00000000000E+00  0.00000000000E+00  0.74505805969E-08  0.10566000000E+00  0.10566000000E+00 0. -1.
     999900   -1    0    0    0    0 -0.00000000000E+00 -0.00000000000E+00 -0.74505805969E-08  0.93827000000E+00  0.93827000000E+00 0.  1.
     999902    2    1    2    0    0  0.30634160999E-03 -0.19593520754E-01 -0.13612819608E-01  0.10200698081E+01  0.10197907161E+01 0.  0.
     999903    2    3    3    0    0  0.12286178384E+00 -0.29852888411E-01 -0.29077274970E-01  0.13138300137E+00  0.20731431524E-01 0.  0.
         14    1    1    2    0    0 -0.30634160999E-03  0.19593520754E-01  0.13612819608E-01  0.23860191919E-01  0.00000000000E+00 0. -1.
     999901    1    3    3    0    0 -0.12255544223E+00  0.10259367657E-01  0.15464455361E-01  0.88868680671E+00  0.88000000000E+00 0.  1.
        -11    1    4    4    0    0  0.15235249729E-01  0.16233769909E-02  0.74840851737E-03  0.15348271025E-01  0.51100000000E-03 0. -1.
         11    1    4    4    0    0  0.10762653412E+00 -0.31476265402E-01 -0.29825683487E-01  0.11603473034E+00  0.51100000000E-03 0.  1.
</event>
<event>
 8    1  0.1091347E+005  0.1043930E+01  0.7957747E-01            NaN
         13   -1    0    0    0    0  0.00000000000E+00  0.00000000000E+00  0.74505805969E-08  0.10566000000E+00  0.10566000000E+00 0. -1.
     999900   -1    0    0    0    0 -0.00000000000E+00 -0.00000000000E+00 -0.74505805969E-08  0.93827000000E+00  0.93827000000E+00 0. -1.
     999902    2    1    2    0    0  0.17656630184E-01 -0.13152367833E-01 -0.81193972307E-02  0.10204637267E+01  0.10201938794E+01 0.  0.
     999903    2    3    3    0    0 -0.63864841813E-01 -0.10543605191E+00  0.38167362294E-01  0.13068594952E+00  0.20654074542E-01 0.  0.
         14    1    1    2    0    0 -0.17656630184E-01  0.13152367833E-01  0.81193972307E-02  0.23466273254E-01  0.00000000000E+00 0. -1.
     999901    1    3    3    0    0  0.81521471996E-01  0.92283684075E-01 -0.46286759525E-01  0.88977777723E+00  0.88000000000E+00 0.  1.
        -11    1    4    4    0    0 -0.43910035754E-01 -0.70274464791E-01  0.35545773427E-01  0.90168479920E-01  0.51100000000E-03 0.  1.
         11    1    4    4    0    0 -0.19954806059E-01 -0.35161587117E-01  0.26215888677E-02  0.40517469598E-01  0.51100000000E-03 0. -1.
</event>
<event>
 8    1  0.1091347E+005  0.1043930E+01  0.7957747E-01            NaN
         13   -1    0    0    0    0  0.00000000000E+00  0.00000000000E+00  0.74505805969E-08  0.10566000000E+00  0.10566000000E+00 0. -1.
     999900   -1    0    0    0    0 -0.00000000000E+00 -0.00000000000E+00 -0.74505805969E-08  0.93827000000E+00  0.93827000000E+00 0. -1.
     999902    2    1    2    0    0  0.73201551887E-02  0.20225209591E-01 -0.94106864025E-02  0.10204522490E+01  0.10201821345E+01 0.  0.
     999903    2    3    3    0    0  0.14774548842E-01  0.55146996177E-01  0.11613374536E+00  0.13082507790E+00  0.19200930060E-01 0.  0.
         14    1    1    2    0    0 -0.73201551887E-02 -0.20225209591E-01  0.94106864025E-02  0.23477751032E-01  0.00000000000E+00 0. -1.
     999901    1    3    3    0    0 -0.74543936532E-02 -0.34921786586E-01 -0.12554443176E+00  0.88962717107E+00  0.88000000000E+00 0. -1.
        -11    1    4    4    0    0 -0.27073113455E-02  0.96540513664E-03  0.95726116463E-02  0.10007874726E-01  0.51100000000E-03 0.  1.
         11    1    4    4    0    0  0.17481860187E-01  0.54181591040E-01  0.10656113371E+00  0.12081720317E+00  0.51100000000E-03 0. -1.
</event>
<event>
 8    1  0.1091347E+005  0.1043930E+01  0.7957747E-01            NaN
         13   -1    0    0    0    0  0.00000000000E+00  0.00000000000E+00  0.74505805969E-08  0.10566000000E+00  0.10566000000E+00 0.  1.
     999900   -1    0    0    0    0 -0.00000000000E+00 -0.00000000000E+00 -0.74505805969E-08  0.93827000000E+00  0.93827000000E+00 0.  1.
     999902    2    1    2    0    0  0.70176589441E-02 -0.22430155270E-01 -0.61460254976E-02  0.10196373461E+01  0.10193479213E+01 0.  0.
     999903    2    3    3    0    0 -0.21070227974E-01 -0.11928226801E+00  0.45963014713E-01  0.13234674368E+00  0.27034198209E-01 0.  0.
         14    1    1    2    0    0 -0.70176589441E-02  0.22430155270E-01  0.61460254976E-02  0.24292653867E-01  0.00000000000E+00 0.  1.
     999901    1    3    3    0    0  0.28087886918E-01  0.96852112737E-01 -0.52109040211E-01  0.88729060245E+00  0.88000000000E+00 0. -1.
        -11    1    4    4    0    0 -0.20529757767E-01 -0.96659344754E-01  0.47538056424E-01  0.10965686395E+00  0.51100000000E-03 0.  1.
         11    1    4    4    0    0 -0.54047020657E-03 -0.22622923253E-01 -0.15750417115E-02  0.22689879726E-01  0.51100000000E-03 0. -1.
</event>
<event>
 8    1  0.1091347E+005  0.1043930E+01  0.7957747E-01            NaN
         13   -1    0    0    0    0  0.00000000000E+00  0.00000000000E+00  0.74505805969E-08  0.10566000000E+00  0.10566000000E+00 0. -1.
     999900   -1    0    0    0    0 -0.00000000000E+00 -0.00000000000E+00 -0.74505805969E-08  0.93827000000E+00  0.93827000000E+00 0.  1.
     999902    2    1    2    0    0 -0.10982098128E-01  0.20932937422E-01 -0.17773489791E-02  0.10202244454E+01  0.10199490015E+01 0.  0.
     999903    2    3    3    0    0 -0.94578985430E-01 -0.37555568985E-01  0.79451281443E-01  0.13061361177E+00  0.19794044822E-01 0.  0.
         14    1    1    2    0    0  0.10982098128E-01 -0.20932937422E-01  0.17773489791E-02  0.23705554577E-01  0.00000000000E+00 0. -1.
     999901    1    3    3    0    0  0.83596887302E-01  0.58488506407E-01 -0.81228630422E-01  0.88961083365E+00  0.88000000000E+00 0.  1.
        -11    1    4    4    0    0 -0.35723855690E-01 -0.42598980552E-02  0.25377320986E-01  0.44029650671E-01  0.51100000000E-03 0.  1.
         11    1    4    4    0    0 -0.58855129740E-01 -0.33295670929E-01  0.54073960458E-01  0.86583961101E-01  0.51100000000E-03 0. -1.
</event>
<event>
 8    1  0.1091347E+005  0.1043930E+01  0.7957747E-01            NaN
         13   -1    0    0    0    0  0.00000000000E+00  0.00000000000E+00  0.74505805969E-08  0.10566000000E+00  0.10566000000E+00 0. -1.
     999900   -1    0    0    0    0 -0.00000000000E+00 -0.00000000000E+00 -0.74505805969E-08  0.93827000000E+00  0.93827000000E+00 0. -1.
     999902    2    1    2    0    0  0.22879595867E-01 -0.56148186090E-02  0.58831144074E-02  0.10196480493E+01  0.10193588825E+01 0.  0.
     999903    2    3    3    0    0 -0.85971724392E-01  0.86419534995E-01  0.30731738444E-01  0.12783170818E+00  0.23173960461E-01 0.  0.
         14    1    1    2    0    0 -0.22879595867E-01  0.56148186090E-02 -0.58831144074E-02  0.24281950708E-01  0.00000000000E+00 0.  1.
     999901    1    3    3    0    0  0.10885132026E+00 -0.92034353604E-01 -0.24848624037E-01  0.89181634112E+00  0.88000000000E+00 0.  1.
        -11    1    4    4    0    0 -0.15450119604E-01  0.30050079143E-01  0.89417878910E-02  0.34956117404E-01  0.51100000000E-03 0. -1.
         11    1    4    4    0    0 -0.70521604788E-01  0.56369455852E-01  0.21789950553E-01  0.92875590771E-01  0.51100000000E-03 0.  1.
</event>
<event>
 8    1  0.1091347E+005  0.1043930E+01  0.7957747E-01            NaN
         13   -1    0    0    0    0  0.00000000000E+00  0.00000000000E+00  0.74505805969E-08  0.10566000000E+00  0.10566000000E+00 0. -1.
     999900   -1    0    0    0    0 -0.00000000000E+00 -0.00000000000E+00 -0.74505805969E-08  0.93827000000E+00  0.93827000000E+00 0. -1.
     999902    2    1    2    0    0  0.10411726498E-01 -0.70893776965E-02  0.19979202662E-01  0.10203115355E+01  0.10200381354E+01 0.  0.
     999903    2    3    3    0    0  0.11441869786E+00 -0.35869556219E-01  0.53613607112E-01  0.13308156426E+00  0.21401411048E-01 0.  0.
         14    1    1    2    0    0 -0.10411726498E-01  0.70893776965E-02 -0.19979202662E-01  0.23618464468E-01  0.00000000000E+00 0.  1.
     999901    1    3    3    0    0 -0.10400697136E+00  0.28780178522E-01 -0.33634404450E-01  0.88722997128E+00  0.88000000000E+00 0.  1.
        -11    1    4    4    0    0  0.40738112557E-01 -0.15746171942E-01  0.30523813651E-01  0.53286959627E-01  0.51100000000E-03 0. -1.
         11    1    4    4    0    0  0.73680585300E-01 -0.20123384277E-01  0.23089793462E-01  0.79794604630E-01  0.51100000000E-03 0.  1.
</event>
<event>
 8    1  0.1091347E+005  0.1043930E+01  0.7957747E-01            NaN
         13   -1    0    0    0    0  0.00000000000E+00  0.00000000000E+00  0.74505805969E-08  0.10566000000E+00  0.10566000000E+00 0. -1.
     999900   -1    0    0    0    0 -0.00000000000E+00 -0.00000000000E+00 -0.74505805969E-08  0.93827000000E+00  0.93827000000E+00 0.  1.
     999902    2    1    2    0    0  0.21496150756E-01  0.53216647977E-02 -0.84577862780E-02  0.10202247524E+01  0.10199493158E+01 0.  0.
     999903    2    3    3    0    0  0.43892603283E-01  0.31063379888E-01  0.11815674439E+00  0.13050823783E+00  0.13412296721E-01 0.  0.
         14    1    1    2    0    0 -0.21496150756E-01 -0.53216647977E-02  0.84577862780E-02  0.23705247568E-01  0.00000000000E+00 0. -1.
     999901    1    3    3    0    0 -0.22396452527E-01 -0.25741715091E-01 -0.12661453067E+00  0.88971651460E+00  0.88000000000E+00 0.  1.
        -11    1    4    4    0    0  0.12267401553E-01  0.13566527369E-01  0.51930723396E-01  0.55059976018E-01  0.51100000000E-03 0. -1.
         11    1    4    4    0    0  0.31625201730E-01  0.17496852519E-01  0.66226020994E-01  0.75448261810E-01  0.51100000000E-03 0.  1.
</event>
<event>
 8    1  0.1091347E+005  0.1043930E+01  0.7957747E-01            NaN
         13   -1    0    0    0    0  0.00000000000E+00  0.00000000000E+00  0.74505805969E-08  0.10566000000E+00  0.10566000000E+00 0. -1.
     999900   -1    0    0    0    0 -0.00000000000E+00 -0.00000000000E+00 -0.74505805969E-08  0.93827000000E+00  0.93827000000E+00 0.  1.
     999902    2    1    2    0    0 -0.11637848372E-02  0.23737040532E-01 -0.45065598059E-02  0.10197409411E+01  0.10194540090E+01 0.  0.
     999903    2    3    3    0    0  0.28029350220E-01 -0.12141156019E+00  0.15920546489E-01  0.12713933788E+00  0.19609589842E-01 0.  0.
         14    1    1    2    0    0  0.11637848372E-02 -0.23737040532E-01  0.45065598059E-02  0.24189058883E-01  0.00000000000E+00 0. -1.
     999901    1    3    3    0    0 -0.29193135057E-01  0.14514860073E+00 -0.20427106295E-01  0.89260160324E+00  0.88000000000E+00 0. -1.
        -11    1    4    4    0    0  0.11453156449E-01 -0.35409220106E-01 -0.36351876893E-02  0.37396034171E-01  0.51100000000E-03 0.  1.
         11    1    4    4    0    0  0.16576193771E-01 -0.86002340089E-01  0.19555734179E-01  0.89743303711E-01  0.51100000000E-03 0. -1.
</event>
<event>
 8    1  0.1091347E+005  0.1043930E+01  0.7957747E-01            NaN
         13   -1    0    0    0    0  0.00000000000E+00  0.00000000000E+00  0.74505805969E-08  0.10566000000E+00  0.10566000000E+00 0.  1.
     999900   -1    0    0    0    0 -0.00000000000E+00 -0.00000000000E+00 -0.74505805969E-08  0.93827000000E+00  0.93827000000E+00 0. -1.
     999902    2    1    2    0    0 -0.59727092027E-02 -0.15857590969E-02  0.24905268952E-01  0.10182695185E+01  0.10179461440E+01 0.  0.
     999903    2    3    3    0    0  0.11042329648E+00  0.46277575333E-01 -0.37815366675E-01  0.12710578103E+00  0.19772689022E-01 0.  0.
         14    1    1    2    0    0  0.59727092027E-02  0.15857590969E-02 -0.24905268952E-01  0.25660481459E-01  0.00000000000E+00 0. -1.
     999901    1    3    3    0    0 -0.11639600568E+00 -0.47863334430E-01  0.62720635628E-01  0.89116373751E+00  0.88000000000E+00 0.  1.
        -11    1    4    4    0    0  0.13539755784E-01  0.13353712967E-01 -0.58690795884E-02  0.19908637646E-01  0.51100000000E-03 0. -1.
         11    1    4    4    0    0  0.96883540692E-01  0.32923862366E-01 -0.31946287087E-01  0.10719714338E+00  0.51100000000E-03 0.  1.
</event>
<event>
 8    1  0.1091347E+005  0.1043930E+01  0.7957747E-01            NaN
         13   -1    0    0    0    0  0.00000000000E+00  0.00000000000E+00  0.74505805969E-08  0.10566000000E+00  0.10566000000E+00 0.  1.
     999900   -1    0    0    0    0 -0.00000000000E+00 -0.00000000000E+00 -0.74505805969E-08  0.93827000000E+00  0.93827000000E+00 0.  1.
     999902    2    1    2    0    0  0.16567147439E-01  0.44682622609E-02  0.17432349435E-01  0.10194693674E+01  0.10191758771E+01 0.  0.
     999903    2    3    3    0    0  0.82246865146E-01 -0.99552527220E-01 -0.12826890486E-02  0.13071495662E+00  0.20236157992E-01 0.  0.
         14    1    1    2    0    0 -0.16567147439E-01 -0.44682622609E-02 -0.17432349435E-01  0.24460632631E-01  0.00000000000E+00 0. -1.
     999901    1    3    3    0    0 -0.65679717706E-01  0.10402078948E+00  0.18715038484E-01  0.88875441075E+00  0.88000000000E+00 0. -1.
        -11    1    4    4    0    0  0.63963187302E-01 -0.63568885742E-01 -0.38971525950E-02  0.90264840794E-01  0.51100000000E-03 0. -1.
         11    1    4    4    0    0  0.18283677844E-01 -0.35983641478E-01  0.26144635464E-02  0.40450115824E-01  0.51100000000E-03 0.  1.
</event>
<event>
 8    1  0.1091347E+005  0.1043930E+01  0.7957747E-01            NaN
         13   -1    0    0    0    0  0.00000000000E+00  0.00000000000E+00  0.74505805969E-08  0.10566000000E+00  0.10566000000E+00 0.  1.
     999900   -1    0    0    0    0 -0.00000000000E+00 -0.00000000000E+00 -0.74505805969E-08  0.93827000000E+00  0.93827000000E+00 0. -1.
     999902    2    1    2    0    0  0.18785560540E-01  0.97926461180E-02  0.10634517121E-01  0.10202258620E+01  0.10199504514E+01 0.  0.
     999903    2    3    3    0    0  0.11169886316E+00  0.39676224918E-01  0.58148272116E-01  0.13355598716E+00  0.20128122109E-01 0.  0.
         14    1    1    2    0    0 -0.18785560540E-01 -0.97926461180E-02 -0.10634517121E-01  0.23704137976E-01  0.00000000000E+00 0. -1.
     999901    1    3    3    0    0 -0.92913302621E-01 -0.29883578800E-01 -0.47513754996E-01  0.88666987487E+00  0.88000000000E+00 0. -1.
        -11    1    4    4    0    0  0.71208518547E-01  0.30643722263E-01  0.46753642252E-01  0.90530961624E-01  0.51100000000E-03 0.  1.
         11    1    4    4    0    0  0.40490344614E-01  0.90325026546E-02  0.11394629864E-01  0.43025025531E-01  0.51100000000E-03 0. -1.
</event>
<event>
 8    1  0.1091347E+005  0.1043930E+01  0.7957747E-01            NaN
         13   -1    0    0    0    0  0.00000000000E+00  0.00000000000E+00  0.74505805969E-08  0.10566000000E+00  0.10566000000E+00 0.  1.
     999900   -1    0    0    0    0 -0.00000000000E+00 -0.00000000000E+00 -0.74505805969E-08  0.93827000000E+00  0.93827000000E+00 0.  1.
     999902    2    1    2    0    0  0.18883710612E-01 -0.77573042368E-02 -0.12499224837E-01  0.10199925624E+01  0.10197116389E+01 0.  0.
     999903    2    3    3    0    0  0.76566596126E-02  0.10884659929E+00 -0.68809352696E-01  0.13044585344E+00  0.19369745672E-01 0.  0.
         14    1    1    2    0    0 -0.18883710612E-01  0.77573042368E-02  0.12499224837E-01  0.23937437562E-01  0.00000000000E+00 0.  1.
     999901    1    3    3    0    0  0.11227051000E-01 -0.11660390353E+00  0.56310127859E-01  0.88954670900E+00  0.88000000000E+00 0.  1.
        -11    1    4    4    0    0  0.42264182651E-02  0.10289338184E+00 -0.68226552460E-01  0.12353151103E+00  0.51100000000E-03 0. -1.
         11    1    4    4    0    0  0.34302413475E-02  0.59532174547E-02 -0.58280023607E-03  0.69143424041E-02  0.51100000000E-03 0.  1.
</event>
<event>
 8    1  0.1091347E+005  0.1043930E+01  0.7957747E-01            NaN
         13   -1    0    0    0    0  0.00000000000E+00  0.00000000000E+00  0.74505805969E-08  0.10566000000E+00  0.10566000000E+00 0. -1.
     999900   -1    0    0    0    0 -0.00000000000E+00 -0.00000000000E+00 -0.74505805969E-08  0.93827000000E+00  0.93827000000E+00 0.  1.
     999902    2    1    2    0    0  0.22224617470E-01  0.53234284372E-02 -0.33046944741E-02  0.10208390165E+01  0.10205778286E+01 0.  0.
     999903    2    3    3    0    0 -0.70491562591E-01 -0.72382999711E-01  0.77811386915E-01  0.12886682095E+00  0.18538785441E-01 0.  0.
         14    1    1    2    0    0 -0.22224617470E-01 -0.53234284372E-02  0.33046944741E-02  0.23090983469E-01  0.00000000000E+00 0.  1.
     999901    1    3    3    0    0  0.92716180061E-01  0.77706428148E-01 -0.81116081390E-01  0.89197219558E+00  0.88000000000E+00 0.  1.
        -11    1    4    4    0    0 -0.53395143686E-01 -0.47693388509E-01  0.45910411747E-01  0.85051323944E-01  0.51100000000E-03 0.  1.
         11    1    4    4    0    0 -0.17096418905E-01 -0.24689611202E-01  0.31900975168E-01  0.43815497011E-01  0.51100000000E-03 0. -1.
</event>
<event>
 7    1  0.1091347E+005  0.1043930E+01  0.7957747E-01            NaN
         13   -1    0    0    0    0  0.00000000000E+00  0.00000000000E+00  0.74505805969E-08  0.10566000000E+00  0.10566000000E+00 0. -1.
     999900   -1    0    0    0    0 -0.00000000000E+00 -0.00000000000E+00 -0.74505805969E-08  0.93827000000E+00  0.93827000000E+00 0. -1.
     999902    2    1    2    0    0 -0.88629368061E-02  0.17458156397E-02  0.21373551794E-01  0.10207259435E+01  0.10204621617E+01 0.  0.
         14    1    1    2    0    0  0.88629368061E-02 -0.17458156397E-02 -0.21373551794E-01  0.23204056486E-01  0.00000000000E+00 0.  1.
     999901    1    3    3    0    0 -0.27309254608E-01 -0.63563433336E-01  0.12393872948E+00  0.89137361084E+00  0.88000000000E+00 0.  1.
        -11    1    3    3    0    0  0.30752440361E-01  0.44638243082E-01 -0.63724420046E-01  0.83662107103E-01  0.51100000000E-03 0.  1.
         11    1    3    3    0    0 -0.12306122560E-01  0.20671005893E-01 -0.38840757643E-01  0.45690225567E-01  0.51100000000E-03 0. -1.
</event>
<event>
 8    1  0.1091347E+005  0.1043930E+01  0.7957747E-01            NaN
         13   -1    0    0    0    0  0.00000000000E+00  0.00000000000E+00  0.74505805969E-08  0.10566000000E+00  0.10566000000E+00 0.  1.
     999900   -1    0    0    0    0 -0.00000000000E+00 -0.00000000000E+00 -0.74505805969E-08  0.93827000000E+00  0.93827000000E+00 0.  1.
     999902    2    1    2    0    0 -0.23301268425E-01 -0.32041524021E-02  0.25038753111E-02  0.10202765627E+01  0.10200023428E+01 0.  0.
     999903    2    3    3    0    0 -0.12994995305E+00  0.18682020184E-02 -0.23092120763E-01  0.13345367978E+00  0.19650906628E-01 0.  0.
         14    1    1    2    0    0  0.23301268425E-01  0.32041524021E-02 -0.25038753111E-02  0.23653437264E-01  0.00000000000E+00 0.  1.
     999901    1    3    3    0    0  0.10664868462E+00 -0.50723544205E-02  0.25595996074E-01  0.88682288295E+00  0.88000000000E+00 0.  1.
        -11    1    4    4    0    0 -0.10155017019E-01  0.52351952409E-02 -0.39010271302E-02  0.12083491777E-01  0.51100000000E-03 0. -1.
         11    1    4    4    0    0 -0.11979493603E+00 -0.33669932225E-02 -0.19191093633E-01  0.12137018801E+00  0.51100000000E-03 0.  1.
</event>
<event>
 8    1  0.1091347E+005  0.1043930E+01  0.7957747E-01            NaN
         13   -1    0    0    0    0  0.00000000000E+00  0.00000000000E+00  0.74505805969E-08  0.10566000000E+00  0.10566000000E+00 0.  1.
     999900   -1    0    0    0    0 -0.00000000000E+00 -0.00000000000E+00 -0.74505805969E-08  0.93827000000E+00  0.93827000000E+00 0. -1.
     999902    2    1    2    0    0 -0.19892377461E-01 -0.10717052489E-01  0.30878436869E-02  0.10211243719E+01  0.10208696715E+01 0.  0.
     999903    2    3    3    0    0  0.92747359437E-02 -0.84193979443E-01  0.99702656210E-01  0.13231393017E+00  0.19791653818E-01 0.  0.
         14    1    1    2    0    0  0.19892377461E-01  0.10717052489E-01 -0.30878436869E-02  0.22805628116E-01  0.00000000000E+00 0.  1.
     999901    1    3    3    0    0 -0.29167113405E-01  0.73476926954E-01 -0.96614812523E-01  0.88881044171E+00  0.88000000000E+00 0. -1.
        -11    1    4    4    0    0  0.79438416347E-03 -0.28118635551E-01  0.47632492783E-01  0.55320920105E-01  0.51100000000E-03 0.  1.
         11    1    4    4    0    0  0.84803517803E-02 -0.56075343892E-01  0.52070163426E-01  0.76993010067E-01  0.51100000000E-03 0. -1.
</event>
<event>
 8    1  0.1091347E+005  0.1043930E+01  0.7957747E-01            NaN
         13   -1    0    0    0    0  0.00000000000E+00  0.00000000000E+00  0.74505805969E-08  0.10566000000E+00  0.10566000000E+00 0.  1.
     999900   -1    0    0    0    0 -0.00000000000E+00 -0.00000000000E+00 -0.74505805969E-08  0.93827000000E+00  0.93827000000E+00 0. -1.
     999902    2    1    2    0    0  0.18322625316E-02  0.15043416696E-01 -0.17480152684E-01  0.10207952359E+01  0.10205330452E+01 0.  0.
     999903    2    3    3    0    0  0.58439081587E-01 -0.97367770158E-01 -0.61673961435E-01  0.13074259722E+00  0.19858003098E-01 0.  0.
         14    1    1    2    0    0 -0.18322625316E-02 -0.15043416696E-01  0.17480152684E-01  0.23134764095E-01  0.00000000000E+00 0.  1.
     999901    1    3    3    0    0 -0.56606819056E-01  0.11241118685E+00  0.44193808751E-01  0.89005263868E+00  0.88000000000E+00 0. -1.
        -11    1    4    4    0    0  0.21659838708E-01 -0.23479624296E-01 -0.10506699015E-01  0.33631729291E-01  0.51100000000E-03 0.  1.
         11    1    4    4    0    0  0.36779242879E-01 -0.73888145863E-01 -0.51167262420E-01  0.97110867931E-01  0.51100000000E-03 0. -1.
</event>
<event>
 8    1  0.1091347E+005  0.1043930E+01  0.7957747E-01            NaN
         13   -1    0    0    0    0  0.00000000000E+00  0.00000000000E+00  0.74505805969E-08  0.10566000000E+00  0.10566000000E+00 0.  1.
     999900   -1    0    0    0    0 -0.00000000000E+00 -0.00000000000E+00 -0.74505805969E-08  0.93827000000E+00  0.93827000000E+00 0. -1.
     999902    2    1    2    0    0  0.10486468536E-01  0.20348429414E-01  0.67287754735E-02  0.10200699702E+01  0.10197908821E+01 0.  0.
     999903    2    3    3    0    0 -0.10957375996E+00  0.47875483127E-01 -0.46371947694E-01  0.12990600557E+00  0.20657734501E-01 0.  0.
         14    1    1    2    0    0 -0.10486468536E-01 -0.20348429414E-01 -0.67287754735E-02  0.23860029785E-01  0.00000000000E+00 0.  1.
     999901    1    3    3    0    0  0.12006022849E+00 -0.27527053713E-01  0.53100723168E-01  0.89016396465E+00  0.88000000000E+00 0. -1.
        -11    1    4    4    0    0 -0.76071042053E-01  0.39000600015E-01 -0.41068585098E-01  0.94840603349E-01  0.51100000000E-03 0.  1.
         11    1    4    4    0    0 -0.33502717903E-01  0.88748831119E-02 -0.53033625960E-02  0.35065402221E-01  0.51100000000E-03 0. -1.
</event>
<event>
 8    1  0.1091347E+005  0.1043930E+01  0.7957747E-01            NaN
         13   -1    0    0    0    0  0.00000000000E+00  0.00000000000E+00  0.74505805969E-08  0.10566000000E+00  0.10566000000E+00 0. -1.
     999900   -1    0    0    0    0 -0.00000000000E+00 -0.00000000000E+00 -0.74505805969E-08  0.93827000000E+00  0.93827000000E+00 0. -1.
     999902    2    1    2    0    0 -0.96768194844E-02 -0.21046814868E-01  0.56579025800E-02  0.10200842223E+01  0.10198054714E+01 0.  0.
     999903    2    3    3    0    0  0.91314848849E-01 -0.57998073124E-01 -0.66679559891E-01  0.13059143369E+00  0.30096191429E-01 0.  0.
         14    1    1    2    0    0  0.96768194844E-02  0.21046814868E-01 -0.56579025800E-02  0.23845777677E-01  0.00000000000E+00 0.  1.
     999901    1    3    3    0    0 -0.10099166833E+00  0.36951258256E-01  0.72337462471E-01  0.88949278864E+00  0.88000000000E+00 0.  1.
        -11    1    4    4    0    0  0.93248296500E-02 -0.14544704053E-01 -0.20891955659E-01  0.27115231813E-01  0.51100000000E-03 0.  1.
         11    1    4    4    0    0  0.81990019199E-01 -0.43453369072E-01 -0.45787604232E-01  0.10347620187E+00  0.51100000000E-03 0. -1.
</event>
<event>
 8    1  0.1156520E+005  0.1043930E+01  0.7957747E-01            NaN
         13   -1    0    0    0    0  0.00000000000E+00  0.00000000000E+00  0.74505805969E-08  0.10566000000E+00  0.10566000000E+00 0.  1.
     999900   -1    0    0    0    0 -0.00000000000E+00 -0.00000000000E+00 -0.74505805969E-08  0.93827000000E+00  0.93827000000E+00 0. -1.
     999902    2    1    2    0    0  0.17612151615E-01 -0.14001094938E-01 -0.41164521032E-02  0.10210572275E+01  0.10208010081E+01 0.  0.
     999903    2    3    3    0    0 -0.53970170258E-01 -0.95567889980E-01 -0.70344284361E-01  0.13192096313E+00  0.20219329782E-01 0.  0.
         14    1    1    2    0    0 -0.17612151615E-01  0.14001094938E-01  0.41164521032E-02  0.22872772501E-01  0.00000000000E+00 0.  1.
     999901    1    3    3    0    0  0.71582321873E-01  0.81566795041E-01  0.66227832258E-01  0.88913626437E+00  0.88000000000E+00 0.  1.
        -11    1    4    4    0    0 -0.18501739567E-01 -0.53024271937E-01 -0.37344202732E-01  0.67444335419E-01  0.51100000000E-03 0. -1.
         11    1    4    4    0    0 -0.35468430691E-01 -0.42543618043E-01 -0.33000081629E-01  0.64476627707E-01  0.51100000000E-03 0.  1.
</event>
<event>
 8    1  0.1091347E+005  0.1043930E+01  0.7957747E-01            NaN
         13   -1    0    0    0    0  0.00000000000E+00  0.00000000000E+00  0.74505805969E-08  0.10566000000E+00  0.10566000000E+00 0. -1.
     999900   -1    0    0    0    0 -0.00000000000E+00 -0.00000000000E+00 -0.74505805969E-08  0.93827000000E+00  0.93827000000E+00 0.  1.
     999902    2    1    2    0    0  0.18302612557E-01 -0.13763513670E-01  0.25565992340E-02  0.10208875146E+01  0.10206274351E+01 0.  0.
     999903    2    3    3    0    0 -0.17403054518E-01 -0.11185359145E+00 -0.65110784285E-01  0.13213815012E+00  0.20173850919E-01 0.  0.
         14    1    1    2    0    0 -0.18302612557E-01  0.13763513670E-01 -0.25565992340E-02  0.23042485426E-01  0.00000000000E+00 0. -1.
     999901    1    3    3    0    0  0.35705667075E-01  0.98090077779E-01  0.67667383519E-01  0.88874936445E+00  0.88000000000E+00 0. -1.
        -11    1    4    4    0    0 -0.13285906150E-01 -0.78328712195E-01 -0.55836513728E-01  0.97107568411E-01  0.51100000000E-03 0. -1.
         11    1    4    4    0    0 -0.41171483684E-02 -0.33524879255E-01 -0.92742705573E-02  0.35030581712E-01  0.51100000000E-03 0.  1.
</event>
<event>
 8    1  0.1091347E+005  0.1043930E+01  0.7957747E-01            NaN
         13   -1    0    0    0    0  0.00000000000E+00  0.00000000000E+00  0.74505805969E-08  0.10566000000E+00  0.10566000000E+00 0. -1.
     999900   -1    0    0    0    0 -0.00000000000E+00 -0.00000000000E+00 -0.74505805969E-08  0.93827000000E+00  0.93827000000E+00 0.  1.
     999902    2    1    2    0    0 -0.12070651721E-01 -0.15532510792E-01  0.13735363941E-01  0.10199379232E+01  0.10196557005E+01 0.  0.
     999903    2    3    3    0    0 -0.21027347786E-02  0.87384100729E-01 -0.92582987611E-01  0.12752838712E+00  0.71747732925E-02 0.  0.
         14    1    1    2    0    0  0.12070651721E-01  0.15532510792E-01 -0.13735363941E-01  0.23992076756E-01  0.00000000000E+00 0.  1.
     999901    1    3    3    0    0 -0.99679169425E-02 -0.10291661152E+00  0.10631835155E+00  0.89240953613E+00  0.88000000000E+00 0. -1.
        -11    1    4    4    0    0 -0.35445074992E-02  0.49297761518E-01 -0.48448999856E-01  0.69212712215E-01  0.51100000000E-03 0. -1.
         11    1    4    4    0    0  0.14417727205E-02  0.38086339211E-01 -0.44133987755E-01  0.58315674902E-01  0.51100000000E-03 0.  1.
</event>
<event>
 8    1  0.1091347E+005  0.1043930E+01  0.7957747E-01            NaN
         13   -1    0    0    0    0  0.00000000000E+00  0.00000000000E+00  0.74505805969E-08  0.10566000000E+00  0.10566000000E+00 0.  1.
     999900   -1    0    0    0    0 -0.00000000000E+00 -0.00000000000E+00 -0.74505805969E-08  0.93827000000E+00  0.93827000000E+00 0. -1.
     999902    2    1    2    0    0  0.42854905073E-02  0.25035181240E-02 -0.12588626733E-01  0.10303983129E+01  0.10303094568E+01 0.  0.
     999903    2    3    3    0    0  0.93784715154E-01 -0.99470403053E-01 -0.23085510284E-01  0.13993833271E+00  0.18970036803E-01 0.  0.
         14    1    1    2    0    0 -0.42854905073E-02 -0.25035181240E-02  0.12588626733E-01  0.13531687068E-01  0.00000000000E+00 0.  1.
     999901    1    3    3    0    0 -0.89499224647E-01  0.10197392118E+00  0.10496883551E-01  0.89045998022E+00  0.88000000000E+00 0.  1.
        -11    1    4    4    0    0  0.71986852392E-01 -0.81908447588E-01 -0.24998063948E-01  0.11187611463E+00  0.51100000000E-03 0. -1.
         11    1    4    4    0    0  0.21797862762E-01 -0.17561955466E-01  0.19125536641E-02  0.28062218075E-01  0.51100000000E-03 0.  1.
</event>
<event>
 8    1  0.1091347E+005  0.1043930E+01  0.7957747E-01            NaN
         13   -1    0    0    0    0  0.00000000000E+00  0.00000000000E+00  0.74505805969E-08  0.10566000000E+00  0.10566000000E+00 0. -1.
     999900   -1    0    0    0    0 -0.00000000000E+00 -0.00000000000E+00 -0.74505805969E-08  0.93827000000E+00  0.93827000000E+00 0. -1.
     999902    2    1    2    0    0  0.28471593998E-02 -0.24298455550E-02  0.22929249382E-01  0.10206972442E+01  0.10204328020E+01 0.  0.
     999903    2    3    3    0    0  0.44975788643E-01 -0.90401197780E-01  0.85857998702E-01  0.13307468491E+00  0.11919635056E-01 0.  0.
         14    1    1    2    0    0 -0.28471593998E-02  0.24298455550E-02 -0.22929249382E-01  0.23232755827E-01  0.00000000000E+00 0.  1.
     999901    1    3    3    0    0 -0.42128629243E-01  0.87971352225E-01 -0.62928749320E-01  0.88762255926E+00  0.88000000000E+00 0.  1.
        -11    1    4    4    0    0  0.12052704503E-01 -0.14215675832E-01  0.17047207356E-01  0.25263046626E-01  0.51100000000E-03 0.  1.
         11    1    4    4    0    0  0.32923084140E-01 -0.76185521948E-01  0.68810791346E-01  0.10781163829E+00  0.51100000000E-03 0. -1.
</event>
<event>
 8    1  0.1091347E+005  0.1043930E+01  0.7957747E-01            NaN
         13   -1    0    0    0    0  0.00000000000E+00  0.00000000000E+00  0.74505805969E-08  0.10566000000E+00  0.10566000000E+00 0.  1.
     999900   -1    0    0    0    0 -0.00000000000E+00 -0.00000000000E+00 -0.74505805969E-08  0.93827000000E+00  0.93827000000E+00 0. -1.
     999902    2    1    2    0    0 -0.10775354713E-01  0.21363665666E-01  0.29546918199E-03  0.10200009009E+01  0.10197201754E+01 0.  0.
     999903    2    3    3    0    0  0.28046110544E-01 -0.10566555789E+00 -0.63121068350E-01  0.12777604865E+00  0.19764991768E-01 0.  0.
         14    1    1    2    0    0  0.10775354713E-01 -0.21363665666E-01 -0.29546918199E-03  0.23929099062E-01  0.00000000000E+00 0.  1.
     999901    1    3    3    0    0 -0.38821465257E-01  0.12702922355E+00  0.63416537532E-01  0.89222485228E+00  0.88000000000E+00 0.  1.
        -11    1    4    4    0    0  0.11478191054E-01 -0.54419814894E-01 -0.21193080017E-01  0.59520356892E-01  0.51100000000E-03 0.  1.
         11    1    4    4    0    0  0.16567919490E-01 -0.51245742993E-01 -0.41927988333E-01  0.68255691761E-01  0.51100000000E-03 0. -1.
</event>
<event>
 8    1  0.1091347E+005  0.1043930E+01  0.7957747E-01            NaN
         13   -1    0    0    0    0  0.00000000000E+00  0.00000000000E+00  0.74505805969E-08  0.10566000000E+00  0.10566000000E+00 0.  1.
     999900   -1    0    0    0    0 -0.00000000000E+00 -0.00000000000E+00 -0.74505805969E-08  0.93827000000E+00  0.93827000000E+00 0.  1.
     999902    2    1    2    0    0  0.16665994322E-01  0.15507272269E-01 -0.28863670265E-02  0.10209830618E+01  0.10207251591E+01 0.  0.
     999903    2    3    3    0    0 -0.11266969440E+00 -0.57919436341E-01 -0.47271390261E-02  0.12850191890E+00  0.21006574604E-01 0.  0.
         14    1    1    2    0    0 -0.16665994322E-01 -0.15507272269E-01  0.28863670265E-02  0.22946938240E-01  0.00000000000E+00 0. -1.
     999901    1    3    3    0    0  0.12933568872E+00  0.73426708610E-01  0.18407719996E-02  0.89248114286E+00  0.88000000000E+00 0.  1.
        -11    1    4    4    0    0 -0.29607428318E-01 -0.14288301710E-01 -0.10456095496E-01  0.34501397529E-01  0.51100000000E-03 0. -1.
         11    1    4    4    0    0 -0.83062266080E-01 -0.43631134631E-01  0.57289564702E-02  0.94000521375E-01  0.51100000000E-03 0.  1.
</event>
<event>
 8    1  0.1091347E+005  0.1043930E+01  0.7957747E-01            NaN
         13   -1    0    0    0    0  0.00000000000E+00  0.00000000000E+00  0.74505805969E-08  0.10566000000E+00  0.10566000000E+00 0. -1.
     999900   -1    0    0    0    0 -0.00000000000E+00 -0.00000000000E+00 -0.74505805969E-08  0.93827000000E+00  0.93827000000E+00 0.  1.
     999902    2    1    2    0    0  0.32200873678E-02  0.60576280170E-02  0.22289427601E-01  0.10206087135E+01  0.10203422287E+01 0.  0.
     999903    2    3    3    0    0 -0.74970598585E-01  0.10584675237E+00 -0.12706423597E-02  0.13121187881E+00  0.19769091269E-01 0.  0.
         14    1    1    2    0    0 -0.32200873678E-02 -0.60576280170E-02 -0.22289427601E-01  0.23321286470E-01  0.00000000000E+00 0.  1.
     999901    1    3    3    0    0  0.78190685952E-01 -0.99789124355E-01  0.23560069961E-01  0.88939683472E+00  0.88000000000E+00 0. -1.
        -11    1    4    4    0    0 -0.25808340869E-01  0.30797890797E-01  0.81377993614E-02  0.41000797985E-01  0.51100000000E-03 0.  1.
         11    1    4    4    0    0 -0.49162257715E-01  0.75048861575E-01 -0.94084417212E-02  0.90211080827E-01  0.51100000000E-03 0. -1.
</event>
<event>
 8    1  0.1091347E+005  0.1043930E+01  0.7957747E-01            NaN
         13   -1    0    0    0    0  0.00000000000E+00  0.00000000000E+00  0.74505805969E-08  0.10566000000E+00  0.10566000000E+00 0. -1.
     999900   -1    0    0    0    0 -0.00000000000E+00 -0.00000000000E+00 -0.74505805969E-08  0.93827000000E+00  0.93827000000E+00 0.  1.
     999902    2    1    2    0    0 -0.83409341743E-02  0.12418852001E-01 -0.18149490302E-01  0.10204097307E+01  0.10201386256E+01 0.  0.
     999903    2    3    3    0    0 -0.16133947424E-01 -0.37694967474E-01 -0.12457069297E+00  0.13254848125E+00  0.19236098952E-01 0.  0.
         14    1    1    2    0    0  0.83409341743E-02 -0.12418852001E-01  0.18149490302E-01  0.23520269261E-01  0.00000000000E+00 0. -1.
     999901    1    3    3    0    0  0.77930132495E-02  0.50113819475E-01  0.10642120267E+00  0.88786124948E+00  0.88000000000E+00 0. -1.
        -11    1    4    4    0    0 -0.10263475979E-01 -0.64532477094E-02 -0.50605263147E-01  0.52039764838E-01  0.51100000000E-03 0. -1.
         11    1    4    4    0    0 -0.58704714449E-02 -0.31241719765E-01 -0.73965429825E-01  0.80508716417E-01  0.51100000000E-03 0.  1.
</event>
<event>
 8    1  0.1091347E+005  0.1043930E+01  0.7957747E-01            NaN
         13   -1    0    0    0    0  0.00000000000E+00  0.00000000000E+00  0.74505805969E-08  0.10566000000E+00  0.10566000000E+00 0. -1.
     999900   -1    0    0    0    0 -0.00000000000E+00 -0.00000000000E+00 -0.74505805969E-08  0.93827000000E+00  0.93827000000E+00 0. -1.
     999902    2    1    2    0    0  0.26332983158E-02  0.20624334420E-01  0.73059793667E-02  0.10218919700E+01  0.10216543073E+01 0.  0.
     999903    2    3    3    0    0 -0.11790300808E+00  0.54649791718E-01 -0.17751079524E-01  0.13267063139E+00  0.19966886562E-01 0.  0.
         14    1    1    2    0    0 -0.26332983158E-02 -0.20624334420E-01 -0.73059793667E-02  0.22038029967E-01  0.00000000000E+00 0.  1.
     999901    1    3    3    0    0  0.12053630640E+00 -0.34025457298E-01  0.25057058890E-01  0.88922133865E+00  0.88000000000E+00 0.  1.
        -11    1    4    4    0    0 -0.86097728525E-01  0.42478316304E-01 -0.21563083953E-01  0.98399460993E-01  0.51100000000E-03 0. -1.
         11    1    4    4    0    0 -0.31805279556E-01  0.12171475414E-01  0.38120044290E-02  0.34271170394E-01  0.51100000000E-03 0.  1.
</event>
<event>
 8    1  0.1091347E+005  0.1043930E+01  0.7957747E-01            NaN
         13   -1    0    0    0    0  0.00000000000E+00  0.00000000000E+00  0.74505805969E-08  0.10566000000E+00  0.10566000000E+00 0. -1.
     999900   -1    0    0    0    0 -0.00000000000E+00 -0.00000000000E+00 -0.74505805969E-08  0.93827000000E+00  0.93827000000E+00 0. -1.
     999902    2    1    2    0    0 -0.17832077930E-01 -0.12140297876E-01  0.95611355031E-02  0.10203337048E+01  0.10200608237E+01 0.  0.
     999903    2    3    3    0    0 -0.20501253593E-01  0.90116807126E-02  0.12862599784E+00  0.13205955108E+00  0.19838495991E-01 0.  0.
         14    1    1    2    0    0  0.17832077930E-01  0.12140297876E-01 -0.95611355031E-02  0.23596295217E-01  0.00000000000E+00 0.  1.
     999901    1    3    3    0    0  0.26691756623E-02 -0.21151978589E-01 -0.11906486233E+00  0.88827415370E+00  0.88000000000E+00 0. -1.
        -11    1    4    4    0    0 -0.17754232184E-01 -0.41635441096E-03  0.10461694399E+00  0.10611480670E+00  0.51100000000E-03 0.  1.
         11    1    4    4    0    0 -0.27470214092E-02  0.94280351235E-02  0.24009053851E-01  0.25944744376E-01  0.51100000000E-03 0. -1.
</event>
<event>
 8    1  0.1091347E+005  0.1043930E+01  0.7957747E-01            NaN
         13   -1    0    0    0    0  0.00000000000E+00  0.00000000000E+00  0.74505805969E-08  0.10566000000E+00  0.10566000000E+00 0.  1.
     999900   -1    0    0    0    0 -0.00000000000E+00 -0.00000000000E+00 -0.74505805969E-08  0.93827000000E+00  0.93827000000E+00 0.  1.
     999902    2    1    2    0    0 -0.82816523330E-02 -0.20948948399E-01 -0.86046541212E-02  0.10198160149E+01  0.10195308823E+01 0.  0.
     999903    2    3    3    0    0  0.10284882611E+00  0.29204570167E-01  0.67967532232E-01  0.12811614478E+00  0.19062349399E-01 0.  0.
         14    1    1    2    0    0  0.82816523330E-02  0.20948948399E-01  0.86046541212E-02  0.24113985090E-01  0.00000000000E+00 0.  1.
     999901    1    3    3    0    0 -0.11113047845E+00 -0.50153518566E-01 -0.76572186354E-01  0.89169987013E+00  0.88000000000E+00 0.  1.
        -11    1    4    4    0    0  0.10731350223E-01  0.53926812760E-02  0.16399455783E-02  0.12132330009E-01  0.51100000000E-03 0.  1.
         11    1    4    4    0    0  0.92117475890E-01  0.23811888891E-01  0.66327586654E-01  0.11598381477E+00  0.51100000000E-03 0. -1.
</event>
<event>
 8    1  0.1218717E+005  0.1043930E+01  0.7957747E-01            NaN
         13   -1    0    0    0    0  0.00000000000E+00  0.00000000000E+00  0.74505805969E-08  0.10566000000E+00  0.10566000000E+00 0. -1.
     999900   -1    0    0    0    0 -0.00000000000E+00 -0.00000000000E+00 -0.74505805969E-08  0.93827000000E+00  0.93827000000E+00 0. -1.
     999902    2    1    2    0    0  0.10809224473E-01  0.26502143399E-02  0.21443551268E-01  0.10197703464E+01  0.10194841198E+01 0.  0.
     999903    2    3    3    0    0  0.52455243994E-01  0.11079635832E+00 -0.38914557921E-01  0.13012261797E+00  0.19752651766E-01 0.  0.
         14    1    1    2    0    0 -0.10809224473E-01 -0.26502143399E-02 -0.21443551268E-01  0.24159653572E-01  0.00000000000E+00 0.  1.
     999901    1    3    3    0    0 -0.41646019521E-01 -0.10814614398E+00  0.60358109189E-01  0.88964772845E+00  0.88000000000E+00 0. -1.
        -11    1    4    4    0    0  0.16670841235E-01  0.58172747054E-01 -0.19837623535E-01  0.63684989407E-01  0.51100000000E-03 0.  1.
         11    1    4    4    0    0  0.35784402759E-01  0.52623611262E-01 -0.19076934386E-01  0.66437628567E-01  0.51100000000E-03 0. -1.
</event>
<event>
 8    1  0.1091347E+005  0.1043930E+01  0.7957747E-01            NaN
         13   -1    0    0    0    0  0.00000000000E+00  0.00000000000E+00  0.74505805969E-08  0.10566000000E+00  0.10566000000E+00 0. -1.
     999900   -1    0    0    0    0 -0.00000000000E+00 -0.00000000000E+00 -0.74505805969E-08  0.93827000000E+00  0.93827000000E+00 0. -1.
     999902    2    1    2    0    0  0.46615353970E-02  0.52339466230E-02  0.22340519722E-01  0.10205158391E+01  0.10202472028E+01 0.  0.
     999903    2    3    3    0    0 -0.60400523120E-01  0.82283454350E-01 -0.77000590270E-01  0.12920312504E+00  0.18589420791E-01 0.  0.
         14    1    1    2    0    0 -0.46615353970E-02 -0.52339466230E-02 -0.22340519722E-01  0.23414160906E-01  0.00000000000E+00 0.  1.
     999901    1    3    3    0    0  0.65062058517E-01 -0.77049507727E-01  0.99341109991E-01  0.89131271405E+00  0.88000000000E+00 0.  1.
        -11    1    4    4    0    0 -0.26104420473E-01  0.51144575450E-01 -0.42255434568E-01  0.71295099676E-01  0.51100000000E-03 0. -1.
         11    1    4    4    0    0 -0.34296102647E-01  0.31138878900E-01 -0.34745155702E-01  0.57908025365E-01  0.51100000000E-03 0.  1.
</event>
<event>
 8    1  0.1091347E+005  0.1043930E+01  0.7957747E-01            NaN
         13   -1    0    0    0    0  0.00000000000E+00  0.00000000000E+00  0.74505805969E-08  0.10566000000E+00  0.10566000000E+00 0. -1.
     999900   -1    0    0    0    0 -0.00000000000E+00 -0.00000000000E+00 -0.74505805969E-08  0.93827000000E+00  0.93827000000E+00 0. -1.
     999902    2    1    2    0    0  0.68511437167E-02  0.49552094447E-02 -0.24315857118E-01  0.10181860069E+01  0.10178604971E+01 0.  0.
     999903    2    3    3    0    0 -0.87928246494E-01  0.46594842073E-01 -0.81725126338E-01  0.13025987488E+00  0.19651536581E-01 0.  0.
         14    1    1    2    0    0 -0.68511437167E-02 -0.49552094447E-02  0.24315857118E-01  0.25743993051E-01  0.00000000000E+00 0. -1.
     999901    1    3    3    0    0  0.94779390211E-01 -0.41639632628E-01  0.57409269220E-01  0.88792613207E+00  0.88000000000E+00 0. -1.
        -11    1    4    4    0    0 -0.53241441851E-01  0.37749588470E-01 -0.57967590891E-01  0.87293672593E-01  0.51100000000E-03 0. -1.
         11    1    4    4    0    0 -0.34686804643E-01  0.88452536026E-02 -0.23757535447E-01  0.42966202289E-01  0.51100000000E-03 0.  1.
</event>
<event>
 8    1  0.1091347E+005  0.1043930E+01  0.7957747E-01            NaN
         13   -1    0    0    0    0  0.00000000000E+00  0.00000000000E+00  0.74505805969E-08  0.10566000000E+00  0.10566000000E+00 0. -1.
     999900   -1    0    0    0    0 -0.00000000000E+00 -0.00000000000E+00 -0.74505805969E-08  0.93827000000E+00  0.93827000000E+00 0. -1.
     999902    2    1    2    0    0 -0.85923382975E-02 -0.42563270843E-02 -0.20815999545E-01  0.10210116572E+01  0.10207544042E+01 0.  0.
     999903    2    3    3    0    0 -0.73342351001E-01  0.69530403548E-01  0.79255677562E-01  0.12991604715E+00  0.19573947329E-01 0.  0.
         14    1    1    2    0    0  0.85923382975E-02  0.42563270843E-02  0.20815999545E-01  0.22918342757E-01  0.00000000000E+00 0. -1.
     999901    1    3    3    0    0  0.64750012704E-01 -0.73786730632E-01 -0.10007167711E+00  0.89109561009E+00  0.88000000000E+00 0. -1.
        -11    1    4    4    0    0 -0.50352869093E-01  0.34746978174E-01  0.49351033757E-01  0.78603750369E-01  0.51100000000E-03 0. -1.
         11    1    4    4    0    0 -0.22989481908E-01  0.34783425374E-01  0.29904643806E-01  0.51312296784E-01  0.51100000000E-03 0.  1.
</event>
<event>
 8    1  0.1091347E+005  0.1043930E+01  0.7957747E-01            NaN
         13   -1    0    0    0    0  0.00000000000E+00  0.00000000000E+00  0.74505805969E-08  0.10566000000E+00  0.10566000000E+00 0.  1.
     999900   -1    0    0    0    0 -0.00000000000E+00 -0.00000000000E+00 -0.74505805969E-08  0.93827000000E+00  0.93827000000E+00 0. -1.
     999902    2    1    2    0    0 -0.12924321859E-01  0.16868076259E-01  0.63121962648E-02  0.10217621423E+01  0.10215216403E+01 0.  0.
     999903    2    3    3    0    0 -0.18059181734E-01  0.72253654584E-01  0.10944774151E+00  0.13399479118E+00  0.20714036199E-01 0.  0.
         14    1    1    2    0    0  0.12924321859E-01 -0.16868076259E-01 -0.63121962648E-02  0.22167857674E-01  0.00000000000E+00 0. -1.
     999901    1    3    3    0    0  0.51348598755E-02 -0.55385578326E-01 -0.10313554524E+00  0.88776735115E+00  0.88000000000E+00 0. -1.
        -11    1    4    4    0    0  0.37846093912E-02  0.22952560310E-01  0.29783487120E-01  0.37794980077E-01  0.51100000000E-03 0.  1.
         11    1    4    4    0    0 -0.21843791126E-01  0.49301094274E-01  0.79664254389E-01  0.96199811100E-01  0.51100000000E-03 0. -1.
</event>
<event>
 8    1  0.1091347E+005  0.1043930E+01  0.7957747E-01            NaN
         13   -1    0    0    0    0  0.00000000000E+00  0.00000000000E+00  0.74505805969E-08  0.10566000000E+00  0.10566000000E+00 0.  1.
     999900   -1    0    0    0    0 -0.00000000000E+00 -0.00000000000E+00 -0.74505805969E-08  0.93827000000E+00  0.93827000000E+00 0. -1.
     999902    2    1    2    0    0  0.22505930094E-01  0.65483296516E-02  0.27625270985E-02  0.10203285368E+01  0.10200555347E+01 0.  0.
     999903    2    3    3    0    0 -0.11174209096E-02  0.12793768249E+00  0.22279727786E-01  0.13146726592E+00  0.20443984664E-01 0.  0.
         14    1    1    2    0    0 -0.22505930094E-01 -0.65483296516E-02 -0.27625270985E-02  0.23601463230E-01  0.00000000000E+00 0.  1.
     999901    1    3    3    0    0  0.23623351003E-01 -0.12138935283E+00 -0.19517200687E-01  0.88886127085E+00  0.88000000000E+00 0. -1.
        -11    1    4    4    0    0 -0.10279461144E-01  0.69554814246E-01  0.15293378228E-01  0.71956153627E-01  0.51100000000E-03 0. -1.
         11    1    4    4    0    0  0.91620402346E-02  0.58382868241E-01  0.69863495579E-02  0.59511112293E-01  0.51100000000E-03 0.  1.
</event>
<event>
 8    1  0.1091347E+005  0.1043930E+01  0.7957747E-01            NaN
         13   -1    0    0    0    0  0.00000000000E+00  0.00000000000E+00  0.74505805969E-08  0.10566000000E+00  0.10566000000E+00 0.  1.
     999900   -1    0    0    0    0 -0.00000000000E+00 -0.00000000000E+00 -0.74505805969E-08  0.93827000000E+00  0.93827000000E+00 0. -1.
     999902    2    1    2    0    0 -0.23489371693E-01  0.20077600493E-02  0.40537914201E-02  0.10200089861E+01  0.10197284525E+01 0.  0.
     999903    2    3    3    0    0  0.75358831679E-01  0.10255173804E+00  0.31627112022E-02  0.12878463000E+00  0.19485012058E-01 0.  0.
         14    1    1    2    0    0  0.23489371693E-01 -0.20077600493E-02 -0.40537914201E-02  0.23921013938E-01  0.00000000000E+00 0. -1.
     999901    1    3    3    0    0 -0.98848203372E-01 -0.10054397799E+00  0.89108021791E-03  0.89122435606E+00  0.88000000000E+00 0. -1.
        -11    1    4    4    0    0  0.48169347465E-01  0.56884760220E-01  0.99488646869E-02  0.75202413592E-01  0.51100000000E-03 0. -1.
         11    1    4    4    0    0  0.27189484214E-01  0.45666977817E-01 -0.67861534847E-02  0.53582216405E-01  0.51100000000E-03 0.  1.
</event>
<event>
 8    1  0.1091347E+005  0.1043930E+01  0.7957747E-01            NaN
         13   -1    0    0    0    0  0.00000000000E+00  0.00000000000E+00  0.74505805969E-08  0.10566000000E+00  0.10566000000E+00 0.  1.
     999900   -1    0    0    0    0 -0.00000000000E+00 -0.00000000000E+00 -0.74505805969E-08  0.93827000000E+00  0.93827000000E+00 0.  1.
     999902    2    1    2    0    0  0.16601993978E-01  0.85222046133E-02  0.23938158727E-01  0.10135772469E+01  0.10131226707E+01 0.  0.
     999903    2    3    3    0    0 -0.88957505231E-01 -0.23827679621E-01  0.81639074987E-01  0.12480353073E+00  0.20731296724E-01 0.  0.
         14    1    1    2    0    0 -0.16601993978E-01 -0.85222046133E-02 -0.23938158727E-01  0.30352753067E-01  0.00000000000E+00 0. -1.
     999901    1    3    3    0    0  0.10555949921E+00  0.32349884235E-01 -0.57700916261E-01  0.88877371621E+00  0.88000000000E+00 0.  1.
        -11    1    4    4    0    0 -0.69250850992E-01 -0.94140647866E-02  0.62820125692E-01  0.93973050881E-01  0.51100000000E-03 0.  1.
         11    1    4    4    0    0 -0.19706654239E-01 -0.14413614835E-01  0.18818949295E-01  0.30830479845E-01  0.51100000000E-03 0. -1.
</event>
<event>
 8    1  0.1091347E+005  0.1043930E+01  0.7957747E-01            NaN
         13   -1    0    0    0    0  0.00000000000E+00  0.00000000000E+00  0.74505805969E-08  0.10566000000E+00  0.10566000000E+00 0. -1.
     999900   -1    0    0    0    0 -0.00000000000E+00 -0.00000000000E+00 -0.74505805969E-08  0.93827000000E+00  0.93827000000E+00 0. -1.
     999902    2    1    2    0    0  0.18812297773E-01 -0.15196745998E-02 -0.72117242513E-02  0.10237255222E+01  0.10235261227E+01 0.  0.
     999903    2    3    3    0    0  0.59008848349E-01  0.34779754571E-01  0.11323658673E+00  0.13387092344E+00  0.20179793296E-01 0.  0.
         14    1    1    2    0    0 -0.18812297773E-01  0.15196745998E-02  0.72117242513E-02  0.20204477847E-01  0.00000000000E+00 0. -1.
     999901    1    3    3    0    0 -0.40196550576E-01 -0.36299429171E-01 -0.12044831098E+00  0.88985459871E+00  0.88000000000E+00 0. -1.
        -11    1    4    4    0    0  0.88651111332E-02  0.60124318135E-02  0.66585818175E-02  0.12622890498E-01  0.51100000000E-03 0. -1.
         11    1    4    4    0    0  0.50143737216E-01  0.28767322758E-01  0.10657800491E+00  0.12124803294E+00  0.51100000000E-03 0.  1.
</event>
<event>
 8    1  0.1091347E+005  0.1043930E+01  0.7957747E-01            NaN
         13   -1    0    0    0    0  0.00000000000E+00  0.00000000000E+00  0.74505805969E-08  0.10566000000E+00  0.10566000000E+00 0.  1.
     999900   -1    0    0    0    0 -0.00000000000E+00 -0.00000000000E+00 -0.74505805969E-08  0.93827000000E+00  0.93827000000E+00 0.  1.
     999902    2    1    2    0    0 -0.18247063195E-02  0.32864745562E-02  0.23262042029E-01  0.10203661916E+01  0.10200940701E+01 0.  0.
     999903    2    3    3    0    0 -0.10147818515E+00  0.27050150883E-01  0.78521973944E-01  0.13270117129E+00  0.20356024845E-01 0.  0.
         14    1    1    2    0    0  0.18247063195E-02 -0.32864745562E-02 -0.23262042029E-01  0.23563808425E-01  0.00000000000E+00 0. -1.
     999901    1    3    3    0    0  0.99653478826E-01 -0.23763676326E-01 -0.55259931915E-01  0.88766502028E+00  0.88000000000E+00 0. -1.
        -11    1    4    4    0    0 -0.25883407992E-01  0.47630674129E-02  0.31004257624E-01  0.40671399438E-01  0.51100000000E-03 0. -1.
         11    1    4    4    0    0 -0.75594777154E-01  0.22287083470E-01  0.47517716320E-01  0.92029771856E-01  0.51100000000E-03 0.  1.
</event>
<event>
 8    1  0.1091347E+005  0.1043930E+01  0.7957747E-01            NaN
         13   -1    0    0    0    0  0.00000000000E+00  0.00000000000E+00  0.74505805969E-08  0.10566000000E+00  0.10566000000E+00 0. -1.
     999900   -1    0    0    0    0 -0.00000000000E+00 -0.00000000000E+00 -0.74505805969E-08  0.93827000000E+00  0.93827000000E+00 0.  1.
     999902    2    1    2    0    0  0.22732651661E-01  0.30209338169E-03 -0.35151517810E-02  0.10209251961E+01  0.10206659762E+01 0.  0.
     999903    2    3    3    0    0 -0.14317383266E-02  0.12952988700E+00 -0.39614497666E-02  0.13115896858E+00  0.20172765203E-01 0.  0.
         14    1    1    2    0    0 -0.22732651661E-01 -0.30209338169E-03  0.35151517810E-02  0.23004803933E-01  0.00000000000E+00 0.  1.
     999901    1    3    3    0    0  0.24164389988E-01 -0.12922779361E+00  0.44629798568E-03  0.88976622748E+00  0.88000000000E+00 0. -1.
        -11    1    4    4    0    0  0.60543737846E-03  0.30603008424E-01  0.75834976774E-02  0.31538567454E-01  0.51100000000E-03 0. -1.
         11    1    4    4    0    0 -0.20371757050E-02  0.98926878572E-01 -0.11544947444E-01  0.99620401130E-01  0.51100000000E-03 0.  1.
</event>
<event>
 8    1  0.1091347E+005  0.1043930E+01  0.7957747E-01            NaN
         13   -1    0    0    0    0  0.00000000000E+00  0.00000000000E+00  0.74505805969E-08  0.10566000000E+00  0.10566000000E+00 0.  1.
     999900   -1    0    0    0    0 -0.00000000000E+00 -0.00000000000E+00 -0.74505805969E-08  0.93827000000E+00  0.93827000000E+00 0. -1.
     999902    2    1    2    0    0  0.78732296502E-02 -0.19820951995E-01  0.98840205357E-02  0.10204235808E+01  0.10201527986E+01 0.  0.
     999903    2    3    3    0    0  0.47773017556E-01  0.20159944341E-01 -0.11705637793E+00  0.12952272775E+00  0.19627960365E-01 0.  0.
         14    1    1    2    0    0 -0.78732296502E-02  0.19820951995E-01 -0.98840205357E-02  0.23506419231E-01  0.00000000000E+00 0. -1.
     999901    1    3    3    0    0 -0.39899787906E-01 -0.39980896336E-01  0.12694039846E+00  0.89090085302E+00  0.88000000000E+00 0.  1.
        -11    1    4    4    0    0  0.26351903393E-01  0.21437129721E-01 -0.72477709926E-01  0.80045317791E-01  0.51100000000E-03 0.  1.
         11    1    4    4    0    0  0.21421114163E-01 -0.12771853805E-02 -0.44578668002E-01  0.49477409960E-01  0.51100000000E-03 0. -1.
</event>
<event>
 8    1  0.1091347E+005  0.1043930E+01  0.7957747E-01            NaN
         13   -1    0    0    0    0  0.00000000000E+00  0.00000000000E+00  0.74505805969E-08  0.10566000000E+00  0.10566000000E+00 0.  1.
     999900   -1    0    0    0    0 -0.00000000000E+00 -0.00000000000E+00 -0.74505805969E-08  0.93827000000E+00  0.93827000000E+00 0. -1.
     999902    2    1    2    0    0  0.11088918834E-01  0.20026433667E-01 -0.36953209403E-02  0.10207421247E+01  0.10204787149E+01 0.  0.
     999903    2    3    3    0    0 -0.19370530242E-01  0.12773432933E+00  0.24954292203E-01  0.13318955203E+00  0.20626772410E-01 0.  0.
         14    1    1    2    0    0 -0.11088918834E-01 -0.20026433667E-01  0.36953209403E-02  0.23187875348E-01  0.00000000000E+00 0.  1.
     999901    1    3    3    0    0  0.30459449076E-01 -0.10770789567E+00 -0.28649613144E-01  0.88755257262E+00  0.88000000000E+00 0. -1.
        -11    1    4    4    0    0 -0.39807233209E-02  0.26006630700E-01 -0.32314369302E-02  0.26512153896E-01  0.51100000000E-03 0. -1.
         11    1    4    4    0    0 -0.15389806921E-01  0.10172769863E+00  0.28185729134E-01  0.10667739814E+00  0.51100000000E-03 0.  1.
</event>
<event>
 8    1  0.1091347E+005  0.1043930E+01  0.7957747E-01            NaN
         13   -1    0    0    0    0  0.00000000000E+00  0.00000000000E+00  0.74505805969E-08  0.10566000000E+00  0.10566000000E+00 0. -1.
     999900   -1    0    0    0    0 -0.00000000000E+00 -0.00000000000E+00 -0.74505805969E-08  0.93827000000E+00  0.93827000000E+00 0. -1.
     999902    2    1    2    0    0  0.21277055294E-01 -0.51632622286E-02 -0.73784045276E-02  0.10208256019E+01  0.10205641069E+01 0.  0.
     999903    2    3    3    0    0  0.77072014964E-01 -0.36299338894E-01 -0.10084395078E+00  0.13357234541E+00  0.20355135838E-01 0.  0.
         14    1    1    2    0    0 -0.21277055294E-01  0.51632622286E-02  0.73784045276E-02  0.23104398114E-01  0.00000000000E+00 0. -1.
     999901    1    3    3    0    0 -0.55794959670E-01  0.31136076665E-01  0.93465546249E-01  0.88725325648E+00  0.88000000000E+00 0.  1.
        -11    1    4    4    0    0  0.41129153278E-01 -0.30235913669E-01 -0.55893408755E-01  0.75697767391E-01  0.51100000000E-03 0.  1.
         11    1    4    4    0    0  0.35942861686E-01 -0.60634252245E-02 -0.44950542022E-01  0.57874578017E-01  0.51100000000E-03 0. -1.
</event>
<event>
 8    1  0.1091347E+005  0.1043930E+01  0.7957747E-01            NaN
         13   -1    0    0    0    0  0.00000000000E+00  0.00000000000E+00  0.74505805969E-08  0.10566000000E+00  0.10566000000E+00 0.  1.
     999900   -1    0    0    0    0 -0.00000000000E+00 -0.00000000000E+00 -0.74505805969E-08  0.93827000000E+00  0.93827000000E+00 0.  1.
     999902    2    1    2    0    0  0.18818919402E-01 -0.11432368691E-01  0.85254791649E-02  0.10203178299E+01  0.10200445772E+01 0.  0.
     999903    2    3    3    0    0 -0.22446235561E-01 -0.11694790532E+00 -0.52472395980E-01  0.13096015031E+00  0.14716065375E-01 0.  0.
         14    1    1    2    0    0 -0.18818919402E-01  0.11432368691E-01 -0.85254791649E-02  0.23612170090E-01  0.00000000000E+00 0.  1.
     999901    1    3    3    0    0  0.41265154963E-01  0.10551553663E+00  0.60997875145E-01  0.88935767960E+00  0.88000000000E+00 0.  1.
        -11    1    4    4    0    0 -0.19947945679E-02 -0.48610517832E-01 -0.21439940481E-01  0.53168541621E-01  0.51100000000E-03 0.  1.
         11    1    4    4    0    0 -0.20451440993E-01 -0.68337387490E-01 -0.31032455498E-01  0.77791608693E-01  0.51100000000E-03 0. -1.
</event>
<event>
 8    1  0.1091347E+005  0.1043930E+01  0.7957747E-01            NaN
         13   -1    0    0    0    0  0.00000000000E+00  0.00000000000E+00  0.74505805969E-08  0.10566000000E+00  0.10566000000E+00 0. -1.
     999900   -1    0    0    0    0 -0.00000000000E+00 -0.00000000000E+00 -0.74505805969E-08  0.93827000000E+00  0.93827000000E+00 0. -1.
     999902    2    1    2    0    0 -0.13831292851E-01 -0.13567264647E-01 -0.14057096632E-01  0.10199930558E+01  0.10197121440E+01 0.  0.
     999903    2    3    3    0    0  0.77720813259E-01  0.57803207545E-01  0.80346739128E-01  0.12736344804E+00  0.19598821221E-01 0.  0.
         14    1    1    2    0    0  0.13831292851E-01  0.13567264647E-01  0.14057096632E-01  0.23936944200E-01  0.00000000000E+00 0. -1.
     999901    1    3    3    0    0 -0.91552106110E-01 -0.71370472192E-01 -0.94403835760E-01  0.89262960775E+00  0.88000000000E+00 0.  1.
        -11    1    4    4    0    0  0.63371744158E-01  0.37389759894E-01  0.64080229132E-01  0.97573095621E-01  0.51100000000E-03 0.  1.
         11    1    4    4    0    0  0.14349069101E-01  0.20413447651E-01  0.16266509996E-01  0.29790352424E-01  0.51100000000E-03 0. -1.
</event>
<event>
 8    1  0.1091347E+005  0.1043930E+01  0.7957747E-01            NaN
         13   -1    0    0    0    0  0.00000000000E+00  0.00000000000E+00  0.74505805969E-08  0.10566000000E+00  0.10566000000E+00 0.  1.
     999900   -1    0    0    0    0 -0.00000000000E+00 -0.00000000000E+00 -0.74505805969E-08  0.93827000000E+00  0.93827000000E+00 0.  1.
     999902    2    1    2    0    0  0.22418635288E-01  0.59591811589E-02  0.16331360862E-02  0.10206754482E+01  0.10204105038E+01 0.  0.
     999903    2    3    3    0    0 -0.69476640161E-01 -0.76275133625E-01 -0.74536174717E-01  0.12881840350E+00  0.19840367997E-01 0.  0.
         14    1    1    2    0    0 -0.22418635288E-01 -0.59591811589E-02 -0.16331360862E-02  0.23254551850E-01  0.00000000000E+00 0.  1.
     999901    1    3    3    0    0  0.91895275449E-01  0.82234314783E-01  0.76169310803E-01  0.89185704465E+00  0.88000000000E+00 0. -1.
        -11    1    4    4    0    0 -0.39602300128E-01 -0.38681848526E-01 -0.51282079445E-01  0.75463503589E-01  0.51100000000E-03 0. -1.
         11    1    4    4    0    0 -0.29874340033E-01 -0.37593285099E-01 -0.23254095272E-01  0.53354899914E-01  0.51100000000E-03 0.  1.
</event>
<event>
 8    1  0.1091347E+005  0.1043930E+01  0.7957747E-01            NaN
         13   -1    0    0    0    0  0.00000000000E+00  0.00000000000E+00  0.74505805969E-08  0.10566000000E+00  0.10566000000E+00 0.  1.
     999900   -1    0    0    0    0 -0.00000000000E+00 -0.00000000000E+00 -0.74505805969E-08  0.93827000000E+00  0.93827000000E+00 0. -1.
     999902    2    1    2    0    0 -0.93644695398E-02  0.20699513001E-01  0.35895277364E-02  0.10209289601E+01  0.10206698260E+01 0.  0.
     999903    2    3    3    0    0 -0.29139711039E-02  0.13200026397E-01 -0.12870430369E+00  0.13098541745E+00  0.20239809052E-01 0.  0.
         14    1    1    2    0    0  0.93644695398E-02 -0.20699513001E-01 -0.35895277364E-02  0.23001039925E-01  0.00000000000E+00 0. -1.
     999901    1    3    3    0    0 -0.64504984359E-02  0.74994866048E-02  0.13229383143E+00  0.88994354263E+00  0.88000000000E+00 0.  1.
        -11    1    4    4    0    0 -0.47598642975E-02  0.13780767915E-01 -0.46021974825E-01  0.48278868672E-01  0.51100000000E-03 0.  1.
         11    1    4    4    0    0  0.18458931937E-02 -0.58074151843E-03 -0.82682328868E-01  0.82706548776E-01  0.51100000000E-03 0. -1.
</event>
<event>
 8    1  0.1091347E+005  0.1043930E+01  0.7957747E-01            NaN
         13   -1    0    0    0    0  0.00000000000E+00  0.00000000000E+00  0.74505805969E-08  0.10566000000E+00  0.10566000000E+00 0. -1.
     999900   -1    0    0    0    0 -0.00000000000E+00 -0.00000000000E+00 -0.74505805969E-08  0.93827000000E+00  0.93827000000E+00 0.  1.
     999902    2    1    2    0    0  0.12398112441E-01  0.19441863973E-01  0.15583992565E-01  0.10160990803E+01  0.10157178648E+01 0.  0.
     999903    2    3    3    0    0  0.52705399564E-01  0.10592265126E+00  0.51005122078E-01  0.13023325503E+00  0.19018702529E-01 0.  0.
         14    1    1    2    0    0 -0.12398112441E-01 -0.19441863973E-01 -0.15583992565E-01  0.27830919696E-01  0.00000000000E+00 0.  1.
     999901    1    3    3    0    0 -0.40307287122E-01 -0.86480787286E-01 -0.35421129513E-01  0.88586582527E+00  0.88000000000E+00 0.  1.
        -11    1    4    4    0    0  0.23131171698E-02  0.52319578403E-02  0.76751051085E-02  0.95860447167E-02  0.51100000000E-03 0.  1.
         11    1    4    4    0    0  0.50392282394E-01  0.10069069342E+00  0.43330016970E-01  0.12064721032E+00  0.51100000000E-03 0. -1.
</event>
<event>
 8    1  0.1091347E+005  0.1043930E+01  0.7957747E-01            NaN
         13   -1    0    0    0    0  0.00000000000E+00  0.00000000000E+00  0.74505805969E-08  0.10566000000E+00  0.10566000000E+00 0.  1.
     999900   -1    0    0    0    0 -0.00000000000E+00 -0.00000000000E+00 -0.74505805969E-08  0.93827000000E+00  0.93827000000E+00 0.  1.
     999902    2    1    2    0    0  0.63776611079E-02 -0.12841551069E-01 -0.18784362199E-01  0.10202988287E+01  0.10200251308E+01 0.  0.
     999903    2    3    3    0    0  0.81541566173E-01 -0.10188323382E+00  0.77037338461E-02  0.13222245069E+00  0.19854687213E-01 0.  0.
         14    1    1    2    0    0 -0.63776611079E-02  0.12841551069E-01  0.18784362199E-01  0.23631171327E-01  0.00000000000E+00 0.  1.
     999901    1    3    3    0    0 -0.75163905065E-01  0.89041682753E-01 -0.26488096046E-01  0.88807637798E+00  0.88000000000E+00 0.  1.
        -11    1    4    4    0    0  0.41746788011E-01 -0.55508967723E-01  0.13779847416E-01  0.70810911043E-01  0.51100000000E-03 0.  1.
         11    1    4    4    0    0  0.39794778161E-01 -0.46374266100E-01 -0.60761135701E-02  0.61411539651E-01  0.51100000000E-03 0. -1.
</event>
<event>
 8    1  0.1091347E+005  0.1043930E+01  0.7957747E-01            NaN
         13   -1    0    0    0    0  0.00000000000E+00  0.00000000000E+00  0.74505805969E-08  0.10566000000E+00  0.10566000000E+00 0. -1.
     999900   -1    0    0    0    0 -0.00000000000E+00 -0.00000000000E+00 -0.74505805969E-08  0.93827000000E+00  0.93827000000E+00 0. -1.
     999902    2    1    2    0    0  0.14160347819E-01  0.91515278376E-02 -0.16598781373E-01  0.10202702144E+01  0.10199958455E+01 0.  0.
     999903    2    3    3    0    0 -0.10913037640E+00  0.44751462291E-01  0.47088369765E-01  0.12868510279E+00  0.20746293194E-01 0.  0.
         14    1    1    2    0    0 -0.14160347819E-01 -0.91515278376E-02  0.16598781373E-01  0.23659785611E-01  0.00000000000E+00 0. -1.
     999901    1    3    3    0    0  0.12329072422E+00 -0.35599934454E-01 -0.63687151137E-01  0.89158511160E+00  0.88000000000E+00 0. -1.
        -11    1    4    4    0    0 -0.10394834334E-01  0.28793982733E-02  0.11282871076E-01  0.15617548334E-01  0.51100000000E-03 0. -1.
         11    1    4    4    0    0 -0.98735542067E-01  0.41872064018E-01  0.35805498689E-01  0.11306755445E+00  0.51100000000E-03 0.  1.
</event>
<event>
 8    1  0.1091347E+005  0.1043930E+01  0.7957747E-01            NaN
         13   -1    0    0    0    0  0.00000000000E+00  0.00000000000E+00  0.74505805969E-08  0.10566000000E+00  0.10566000000E+00 0. -1.
     999900   -1    0    0    0    0 -0.00000000000E+00 -0.00000000000E+00 -0.74505805969E-08  0.93827000000E+00  0.93827000000E+00 0. -1.
     999902    2    1    2    0    0  0.60533854021E-02 -0.13112023532E-01 -0.20979841346E-01  0.10184599710E+01  0.10181414391E+01 0.  0.
     999903    2    3    3    0    0  0.10662960131E+00  0.66720491141E-01 -0.21460583270E-01  0.12914054764E+00  0.19880357060E-01 0.  0.
         14    1    1    2    0    0 -0.60533854021E-02  0.13112023532E-01  0.20979841346E-01  0.25470029031E-01  0.00000000000E+00 0. -1.
     999901    1    3    3    0    0 -0.10057621590E+00 -0.79832514673E-01  0.48074192391E-03  0.88931942333E+00  0.88000000000E+00 0. -1.
        -11    1    4    4    0    0  0.48884948644E-01  0.39370059988E-01 -0.17294912133E-01  0.65108485884E-01  0.51100000000E-03 0. -1.
         11    1    4    4    0    0  0.57744652661E-01  0.27350431152E-01 -0.41656711372E-02  0.64032061752E-01  0.51100000000E-03 0.  1.
</event>
<event>
 8    1  0.1091347E+005  0.1043930E+01  0.7957747E-01            NaN
         13   -1    0    0    0    0  0.00000000000E+00  0.00000000000E+00  0.74505805969E-08  0.10566000000E+00  0.10566000000E+00 0. -1.
     999900   -1    0    0    0    0 -0.00000000000E+00 -0.00000000000E+00 -0.74505805969E-08  0.93827000000E+00  0.93827000000E+00 0.  1.
     999902    2    1    2    0    0  0.98287152948E-02 -0.20994950124E-01 -0.41098680968E-02  0.10203867931E+01  0.10201151528E+01 0.  0.
     999903    2    3    3    0    0 -0.67118489255E-01  0.10507059820E+00  0.19471592567E-01  0.12776734449E+00  0.20015723707E-01 0.  0.
         14    1    1    2    0    0 -0.98287152948E-02  0.20994950124E-01  0.41098680968E-02  0.23543206893E-01  0.00000000000E+00 0.  1.
     999901    1    3    3    0    0  0.76947204550E-01 -0.12606554832E+00 -0.23581460664E-01  0.89261944862E+00  0.88000000000E+00 0.  1.
        -11    1    4    4    0    0 -0.49362402486E-01  0.80240894149E-01  0.23162418367E-01  0.97015496796E-01  0.51100000000E-03 0. -1.
         11    1    4    4    0    0 -0.17756086770E-01  0.24829704048E-01 -0.36908258005E-02  0.30751847694E-01  0.51100000000E-03 0.  1.
</event>
<event>
 8    1  0.1091347E+005  0.1043930E+01  0.7957747E-01            NaN
         13   -1    0    0    0    0  0.00000000000E+00  0.00000000000E+00  0.74505805969E-08  0.10566000000E+00  0.10566000000E+00 0. -1.
     999900   -1    0    0    0    0 -0.00000000000E+00 -0.00000000000E+00 -0.74505805969E-08  0.93827000000E+00  0.93827000000E+00 0.  1.
     999902    2    1    2    0    0 -0.10984522187E-01  0.41360252811E-02 -0.20683559030E-01  0.10201481572E+01  0.10198709166E+01 0.  0.
     999903    2    3    3    0    0 -0.52259263594E-01  0.11807107799E+00  0.12884195079E-01  0.13120969216E+00  0.19446612708E-01 0.  0.
         14    1    1    2    0    0  0.10984522187E-01 -0.41360252811E-02  0.20683559030E-01  0.23781842800E-01  0.00000000000E+00 0. -1.
     999901    1    3    3    0    0  0.41274741407E-01 -0.11393505270E+00 -0.33567754109E-01  0.88893846504E+00  0.88000000000E+00 0.  1.
        -11    1    4    4    0    0 -0.80804998196E-02  0.29430058046E-01  0.10021890705E-01  0.32126658840E-01  0.51100000000E-03 0.  1.
         11    1    4    4    0    0 -0.44178763774E-01  0.88641019939E-01  0.28623043745E-02  0.99083033319E-01  0.51100000000E-03 0. -1.
</event>
<event>
 8    1  0.1179746E+005  0.1043930E+01  0.7957747E-01            NaN
         13   -1    0    0    0    0  0.00000000000E+00  0.00000000000E+00  0.74505805969E-08  0.10566000000E+00  0.10566000000E+00 0. -1.
     999900   -1    0    0    0    0 -0.00000000000E+00 -0.00000000000E+00 -0.74505805969E-08  0.93827000000E+00  0.93827000000E+00 0.  1.
     999902    2    1    2    0    0  0.20609821700E-02 -0.22310204887E-01 -0.47938764691E-02  0.10210176858E+01  0.10207605697E+01 0.  0.
     999903    2    3    3    0    0  0.28224748189E-01  0.50308042630E-01  0.11396617414E+00  0.12969176218E+00  0.22452812001E-01 0.  0.
         14    1    1    2    0    0 -0.20609821700E-02  0.22310204887E-01  0.47938764691E-02  0.22912314183E-01  0.00000000000E+00 0.  1.
     999901    1    3    3    0    0 -0.26163766019E-01 -0.72618247517E-01 -0.11876005061E+00  0.89132592364E+00  0.88000000000E+00 0.  1.
        -11    1    4    4    0    0  0.23938467201E-01  0.19833645881E-01  0.55242911311E-01  0.63391356603E-01  0.51100000000E-03 0.  1.
         11    1    4    4    0    0  0.42862809874E-02  0.30474396749E-01  0.58723262826E-01  0.66300405578E-01  0.51100000000E-03 0. -1.
</event>
<event>
 8    1  0.1091347E+005  0.1043930E+01  0.7957747E-01            NaN
         13   -1    0    0    0    0  0.00000000000E+00  0.00000000000E+00  0.74505805969E-08  0.10566000000E+00  0.10566000000E+00 0.  1.
     999900   -1    0    0    0    0 -0.00000000000E+00 -0.00000000000E+00 -0.74505805969E-08  0.93827000000E+00  0.93827000000E+00 0. -1.
     999902    2    1    2    0    0  0.14246360728E-01 -0.16462257809E-01 -0.90383034889E-02  0.10203576506E+01  0.10200853295E+01 0.  0.
     999903    2    3    3    0    0  0.90940476605E-01 -0.95831712825E-01  0.35585849370E-02  0.13337389686E+00  0.17945622573E-01 0.  0.
         14    1    1    2    0    0 -0.14246360728E-01  0.16462257809E-01  0.90383034889E-02  0.23572349398E-01  0.00000000000E+00 0.  1.
     999901    1    3    3    0    0 -0.76694115876E-01  0.79369455016E-01 -0.12596888426E-01  0.88698375374E+00  0.88000000000E+00 0. -1.
        -11    1    4    4    0    0  0.26135394192E-01 -0.35783712633E-01 -0.50688121085E-02  0.44603664609E-01  0.51100000000E-03 0. -1.
         11    1    4    4    0    0  0.64805082413E-01 -0.60048000192E-01  0.86273970455E-02  0.88770232254E-01  0.51100000000E-03 0.  1.
</event>
<event>
 8    1  0.1091347E+005  0.1043930E+01  0.7957747E-01            NaN
         13   -1    0    0    0    0  0.00000000000E+00  0.00000000000E+00  0.74505805969E-08  0.10566000000E+00  0.10566000000E+00 0.  1.
     999900   -1    0    0    0    0 -0.00000000000E+00 -0.00000000000E+00 -0.74505805969E-08  0.93827000000E+00  0.93827000000E+00 0. -1.
     999902    2    1    2    0    0 -0.12766328422E-01  0.19215328814E-01 -0.49673340537E-02  0.10203316439E+01  0.10200587146E+01 0.  0.
     999903    2    3    3    0    0 -0.38583674440E-01  0.62684793318E-01 -0.10922749862E+00  0.13273583972E+00  0.16433911423E-01 0.  0.
         14    1    1    2    0    0  0.12766328422E-01 -0.19215328814E-01  0.49673340537E-02  0.23598356096E-01  0.00000000000E+00 0.  1.
     999901    1    3    3    0    0  0.25817346017E-01 -0.43469464504E-01  0.10426016456E+00  0.88759580419E+00  0.88000000000E+00 0.  1.
        -11    1    4    4    0    0 -0.16543647637E-03  0.34593603340E-02 -0.12286335152E-02  0.37101488465E-02  0.51100000000E-03 0. -1.
         11    1    4    4    0    0 -0.38418237963E-01  0.59225432984E-01 -0.10799886510E+00  0.12902569087E+00  0.51100000000E-03 0.  1.
</event>
<event>
 8    1  0.1091347E+005  0.1043930E+01  0.7957747E-01            NaN
         13   -1    0    0    0    0  0.00000000000E+00  0.00000000000E+00  0.74505805969E-08  0.10566000000E+00  0.10566000000E+00 0.  1.
     999900   -1    0    0    0    0 -0.00000000000E+00 -0.00000000000E+00 -0.74505805969E-08  0.93827000000E+00  0.93827000000E+00 0.  1.
     999902    2    1    2    0    0  0.21002501222E-01 -0.74014203520E-02 -0.36758596039E-02  0.10213601523E+01  0.10211107495E+01 0.  0.
     999903    2    3    3    0    0  0.80250537405E-01 -0.10332931426E+00 -0.20093445382E-01  0.13401465717E+00  0.20954375463E-01 0.  0.
         14    1    1    2    0    0 -0.21002501222E-01  0.74014203520E-02  0.36758596039E-02  0.22569847687E-01  0.00000000000E+00 0. -1.
     999901    1    3    3    0    0 -0.59248036183E-01  0.95927893907E-01  0.16417585778E-01  0.88734549514E+00  0.88000000000E+00 0.  1.
        -11    1    4    4    0    0  0.30209116395E-01 -0.48822335155E-01 -0.29472832208E-03  0.57415669544E-01  0.51100000000E-03 0.  1.
         11    1    4    4    0    0  0.50041421010E-01 -0.54506979104E-01 -0.19798717060E-01  0.76598987630E-01  0.51100000000E-03 0. -1.
</event>
<event>
 8    1  0.1091347E+005  0.1043930E+01  0.7957747E-01            NaN
         13   -1    0    0    0    0  0.00000000000E+00  0.00000000000E+00  0.74505805969E-08  0.10566000000E+00  0.10566000000E+00 0. -1.
     999900   -1    0    0    0    0 -0.00000000000E+00 -0.00000000000E+00 -0.74505805969E-08  0.93827000000E+00  0.93827000000E+00 0. -1.
     999902    2    1    2    0    0  0.19097877206E-01 -0.12220207739E-02 -0.12600526764E-01  0.10210172192E+01  0.10207600925E+01 0.  0.
     999903    2    3    3    0    0  0.94580234683E-01  0.83513510611E-01 -0.37946619377E-01  0.13336857196E+00  0.20671304179E-01 0.  0.
         14    1    1    2    0    0 -0.19097877206E-01  0.12220207739E-02  0.12600526764E-01  0.22912780785E-01  0.00000000000E+00 0. -1.
     999901    1    3    3    0    0 -0.75482357477E-01 -0.84735531385E-01  0.25346092612E-01  0.88764864726E+00  0.88000000000E+00 0. -1.
        -11    1    4    4    0    0  0.25770433017E-01  0.35226175310E-01 -0.15976543440E-01  0.46481283396E-01  0.51100000000E-03 0.  1.
         11    1    4    4    0    0  0.68809801666E-01  0.48287335301E-01 -0.21970075936E-01  0.86887288561E-01  0.51100000000E-03 0. -1.
</event>
<event>
 8    1  0.1091347E+005  0.1043930E+01  0.7957747E-01            NaN
         13   -1    0    0    0    0  0.00000000000E+00  0.00000000000E+00  0.74505805969E-08  0.10566000000E+00  0.10566000000E+00 0.  1.
     999900   -1    0    0    0    0 -0.00000000000E+00 -0.00000000000E+00 -0.74505805969E-08  0.93827000000E+00  0.93827000000E+00 0. -1.
     999902    2    1    2    0    0  0.35209402937E-02  0.70579630388E-02 -0.22302135411E-01  0.10202741951E+01  0.10199999196E+01 0.  0.
     999903    2    3    3    0    0  0.35613034737E-01 -0.46058604829E-02 -0.12688087972E+00  0.13342434247E+00  0.20341959823E-01 0.  0.
         14    1    1    2    0    0 -0.35209402937E-02 -0.70579630388E-02  0.22302135411E-01  0.23655804927E-01  0.00000000000E+00 0.  1.
     999901    1    3    3    0    0 -0.32092094443E-01  0.11663823522E-01  0.10457874431E+00  0.88684985261E+00  0.88000000000E+00 0.  1.
        -11    1    4    4    0    0  0.17917357076E-01  0.70633371175E-02 -0.73593254600E-01  0.76073324230E-01  0.51100000000E-03 0. -1.
         11    1    4    4    0    0  0.17695677661E-01 -0.11669197600E-01 -0.53287625124E-01  0.57351018237E-01  0.51100000000E-03 0.  1.
</event>
<event>
 8    1  0.1091347E+005  0.1043930E+01  0.7957747E-01            NaN
         13   -1    0    0    0    0  0.00000000000E+00  0.00000000000E+00  0.74505805969E-08  0.10566000000E+00  0.10566000000E+00 0.  1.
     999900   -1    0    0    0    0 -0.00000000000E+00 -0.00000000000E+00 -0.74505805969E-08  0.93827000000E+00  0.93827000000E+00 0.  1.
     999902    2    1    2    0    0 -0.17793881144E-01  0.14285578823E-01 -0.44885894128E-02  0.10206738739E+01  0.10204088932E+01 0.  0.
     999903    2    3    3    0    0  0.27630998824E-01  0.12654133169E+00  0.16226277019E-01  0.13213919278E+00  0.20525435004E-01 0.  0.
         14    1    1    2    0    0  0.17793881144E-01 -0.14285578823E-01  0.44885894128E-02  0.23256126147E-01  0.00000000000E+00 0. -1.
     999901    1    3    3    0    0 -0.45424879968E-01 -0.11225575287E+00 -0.20714866432E-01  0.88853468107E+00  0.88000000000E+00 0. -1.
        -11    1    4    4    0    0  0.27319204643E-02  0.10946351246E-01 -0.43735656599E-02  0.12110953415E-01  0.51100000000E-03 0.  1.
         11    1    4    4    0    0  0.24899078360E-01  0.11559498044E+00  0.20599842679E-01  0.12002823937E+00  0.51100000000E-03 0. -1.
</event>
<event>
 8    1  0.1091347E+005  0.1043930E+01  0.7957747E-01            NaN
         13   -1    0    0    0    0  0.00000000000E+00  0.00000000000E+00  0.74505805969E-08  0.10566000000E+00  0.10566000000E+00 0.  1.
     999900   -1    0    0    0    0 -0.00000000000E+00 -0.00000000000E+00 -0.74505805969E-08  0.93827000000E+00  0.93827000000E+00 0. -1.
     999902    2    1    2    0    0  0.58078883124E-02  0.15933205918E-01  0.17603127503E-01  0.10194868268E+01  0.10191937604E+01 0.  0.
     999903    2    3    3    0    0  0.11334677181E-01 -0.22614489591E-01 -0.12329627494E+00  0.12742790957E+00  0.19900017053E-01 0.  0.
         14    1    1    2    0    0 -0.58078883124E-02 -0.15933205918E-01 -0.17603127503E-01  0.24443173185E-01  0.00000000000E+00 0. -1.
     999901    1    3    3    0    0 -0.55267888689E-02  0.38547695509E-01  0.14089940244E+00  0.89205891724E+00  0.88000000000E+00 0.  1.
        -11    1    4    4    0    0  0.85021079855E-02 -0.25359136401E-01 -0.89902882608E-01  0.93798513109E-01  0.51100000000E-03 0. -1.
         11    1    4    4    0    0  0.28325691959E-02  0.27446468096E-02 -0.33393392328E-01  0.33629396464E-01  0.51100000000E-03 0.  1.
</event>
<event>
 8    1  0.1091347E+005  0.1043930E+01  0.7957747E-01            NaN
         13   -1    0    0    0    0  0.00000000000E+00  0.00000000000E+00  0.74505805969E-08  0.10566000000E+00  0.10566000000E+00 0. -1.
     999900   -1    0    0    0    0 -0.00000000000E+00 -0.00000000000E+00 -0.74505805969E-08  0.93827000000E+00  0.93827000000E+00 0. -1.
     999902    2    1    2    0    0 -0.18209808782E-02  0.86133794651E-02  0.21946164399E-01  0.10202838500E+01  0.10200098010E+01 0.  0.
     999903    2    3    3    0    0  0.12021648764E+00 -0.38192299992E-01 -0.21805238029E-01  0.12955487858E+00  0.19958518929E-01 0.  0.
         14    1    1    2    0    0  0.18209808782E-02 -0.86133794651E-02 -0.21946164399E-01  0.23646149983E-01  0.00000000000E+00 0.  1.
     999901    1    3    3    0    0 -0.12203746852E+00  0.46805679457E-01  0.43751402428E-01  0.89072897144E+00  0.88000000000E+00 0.  1.
        -11    1    4    4    0    0  0.89311325592E-01 -0.35114442491E-01 -0.10678760152E-01  0.96560002019E-01  0.51100000000E-03 0. -1.
         11    1    4    4    0    0  0.30905162048E-01 -0.30778575008E-02 -0.11126477877E-01  0.32994876556E-01  0.51100000000E-03 0.  1.
</event>
<event>
 8    1  0.1091347E+005  0.1043930E+01  0.7957747E-01            NaN
         13   -1    0    0    0    0  0.00000000000E+00  0.00000000000E+00  0.74505805969E-08  0.10566000000E+00  0.10566000000E+00 0.  1.
     999900   -1    0    0    0    0 -0.00000000000E+00 -0.00000000000E+00 -0.74505805969E-08  0.93827000000E+00  0.93827000000E+00 0.  1.
     999902    2    1    2    0    0 -0.23460465354E-01 -0.79764327724E-03 -0.26331550019E-02  0.10203087559E+01  0.10200352906E+01 0.  0.
     999903    2    3    3    0    0  0.10746663044E+00 -0.19601852685E-01 -0.64312868727E-01  0.12828863849E+00  0.19710920692E-01 0.  0.
         14    1    1    2    0    0  0.23460465354E-01  0.79764327724E-03  0.26331550019E-02  0.23621244139E-01  0.00000000000E+00 0. -1.
     999901    1    3    3    0    0 -0.13092709580E+00  0.18804209407E-01  0.61679713725E-01  0.89202011737E+00  0.88000000000E+00 0. -1.
        -11    1    4    4    0    0  0.63673784379E-01 -0.80758087919E-02 -0.27095009123E-01  0.69670439537E-01  0.51100000000E-03 0.  1.
         11    1    4    4    0    0  0.43792846065E-01 -0.11526043893E-01 -0.37217859605E-01  0.58618198956E-01  0.51100000000E-03 0. -1.
</event>
<event>
 8    1  0.1091347E+005  0.1043930E+01  0.7957747E-01            NaN
         13   -1    0    0    0    0  0.00000000000E+00  0.00000000000E+00  0.74505805969E-08  0.10566000000E+00  0.10566000000E+00 0.  1.
     999900   -1    0    0    0    0 -0.00000000000E+00 -0.00000000000E+00 -0.74505805969E-08  0.93827000000E+00  0.93827000000E+00 0. -1.
     999902    2    1    2    0    0 -0.16496881252E-01  0.17843442221E-01 -0.82164269620E-02  0.10182776084E+01  0.10179544404E+01 0.  0.
     999903    2    3    3    0    0 -0.62347336678E-01  0.41560800771E-01  0.10388474469E+00  0.12966551643E+00  0.20164707292E-01 0.  0.
         14    1    1    2    0    0  0.16496881252E-01 -0.17843442221E-01  0.82164269620E-02  0.25652391572E-01  0.00000000000E+00 0.  1.
     999901    1    3    3    0    0  0.45850455426E-01 -0.23717358550E-01 -0.11210117165E+00  0.88861209200E+00  0.88000000000E+00 0.  1.
        -11    1    4    4    0    0 -0.24136753863E-02 -0.21866617956E-02  0.32290765709E-02  0.46146912334E-02  0.51100000000E-03 0. -1.
         11    1    4    4    0    0 -0.59933661292E-01  0.43747462567E-01  0.10065566812E+00  0.12505082520E+00  0.51100000000E-03 0.  1.
</event>
<event>
 8    1  0.1091347E+005  0.1043930E+01  0.7957747E-01            NaN
         13   -1    0    0    0    0  0.00000000000E+00  0.00000000000E+00  0.74505805969E-08  0.10566000000E+00  0.10566000000E+00 0.  1.
     999900   -1    0    0    0    0 -0.00000000000E+00 -0.00000000000E+00 -0.74505805969E-08  0.93827000000E+00  0.93827000000E+00 0.  1.
     999902    2    1    2    0    0 -0.31329404046E-02  0.10016013120E-01 -0.21807320823E-01  0.10197288621E+01  0.10194416399E+01 0.  0.
     999903    2    3    3    0    0  0.57745585798E-01 -0.84446338865E-01  0.73537400580E-01  0.12747332314E+00  0.19389739599E-01 0.  0.
         14    1    1    2    0    0  0.31329404046E-02 -0.10016013120E-01  0.21807320823E-01  0.24201137905E-01  0.00000000000E+00 0.  1.
     999901    1    3    3    0    0 -0.60878526203E-01  0.94462351984E-01 -0.95344721403E-01  0.89225553895E+00  0.88000000000E+00 0.  1.
        -11    1    4    4    0    0  0.17036139241E-01 -0.11708458759E-01  0.16756993662E-01  0.26615334008E-01  0.51100000000E-03 0.  1.
         11    1    4    4    0    0  0.40709446557E-01 -0.72737880105E-01  0.56780406918E-01  0.10085798913E+00  0.51100000000E-03 0. -1.
</event>
<event>
 8    1  0.1091347E+005  0.1043930E+01  0.7957747E-01            NaN
         13   -1    0    0    0    0  0.00000000000E+00  0.00000000000E+00  0.74505805969E-08  0.10566000000E+00  0.10566000000E+00 0.  1.
     999900   -1    0    0    0    0 -0.00000000000E+00 -0.00000000000E+00 -0.74505805969E-08  0.93827000000E+00  0.93827000000E+00 0. -1.
     999902    2    1    2    0    0 -0.15438909653E-02 -0.20600562961E-01 -0.73902340308E-02  0.10219895726E+01  0.10217540331E+01 0.  0.
     999903    2    3    3    0    0  0.12274096346E+00  0.27029274211E-01 -0.33154839995E-01  0.13160811431E+00  0.20628295128E-01 0.  0.
         14    1    1    2    0    0  0.15438909653E-02  0.20600562961E-01  0.73902340308E-02  0.21940427358E-01  0.00000000000E+00 0.  1.
     999901    1    3    3    0    0 -0.12428485443E+00 -0.47629837172E-01  0.25764605965E-01  0.89038145834E+00  0.88000000000E+00 0.  1.
        -11    1    4    4    0    0  0.46473891229E-01  0.93130230015E-02 -0.23242372809E-02  0.47457540637E-01  0.51100000000E-03 0. -1.
         11    1    4    4    0    0  0.76267072233E-01  0.17716251209E-01 -0.30830602715E-01  0.84150573668E-01  0.51100000000E-03 0.  1.
</event>
<event>
 8    1  0.1091347E+005  0.1043930E+01  0.7957747E-01            NaN
         13   -1    0    0    0    0  0.00000000000E+00  0.00000000000E+00  0.74505805969E-08  0.10566000000E+00  0.10566000000E+00 0. -1.
     999900   -1    0    0    0    0 -0.00000000000E+00 -0.00000000000E+00 -0.74505805969E-08  0.93827000000E+00  0.93827000000E+00 0. -1.
     999902    2    1    2    0    0  0.93002273708E-02  0.42721195086E-02 -0.20847807977E-01  0.10207055230E+01  0.10204412714E+01 0.  0.
     999903    2    3    3    0    0  0.46471591497E-01 -0.54335678016E-01 -0.11060226415E+00  0.13342177659E+00  0.21366677608E-01 0.  0.
         14    1    1    2    0    0 -0.93002273708E-02 -0.42721195086E-02  0.20847807977E-01  0.23224476995E-01  0.00000000000E+00 0. -1.
     999901    1    3    3    0    0 -0.37171364126E-01  0.58607797525E-01  0.89754456177E-01  0.88728374641E+00  0.88000000000E+00 0.  1.
        -11    1    4    4    0    0  0.12829167119E-02 -0.13923228278E-01 -0.20113829235E-01  0.24501620528E-01  0.51100000000E-03 0. -1.
         11    1    4    4    0    0  0.45188674785E-01 -0.40412449738E-01 -0.90488434918E-01  0.10892015607E+00  0.51100000000E-03 0.  1.
</event>
<event>
 8    1  0.1091347E+005  0.1043930E+01  0.7957747E-01            NaN
         13   -1    0    0    0    0  0.00000000000E+00  0.00000000000E+00  0.74505805969E-08  0.10566000000E+00  0.10566000000E+00 0.  1.
     999900   -1    0    0    0    0 -0.00000000000E+00 -0.00000000000E+00 -0.74505805969E-08  0.93827000000E+00  0.93827000000E+00 0.  1.
     999902    2    1    2    0    0  0.49925454544E-02  0.13123050492E-01  0.20095820020E-01  0.10194150669E+01  0.10191202562E+01 0.  0.
     999903    2    3    3    0    0  0.21623724261E-02  0.79268814331E-01 -0.99567940156E-01  0.12885193746E+00  0.20020646864E-01 0.  0.
         14    1    1    2    0    0 -0.49925454544E-02 -0.13123050492E-01 -0.20095820020E-01  0.24514933135E-01  0.00000000000E+00 0.  1.
     999901    1    3    3    0    0  0.28301730284E-02 -0.66145763838E-01  0.11966376018E+00  0.89056312940E+00  0.88000000000E+00 0. -1.
        -11    1    4    4    0    0  0.70368630387E-02  0.23194423723E-01 -0.40920324213E-01  0.47562935022E-01  0.51100000000E-03 0.  1.
         11    1    4    4    0    0 -0.48744906126E-02  0.56074390608E-01 -0.58647615943E-01  0.81289002439E-01  0.51100000000E-03 0. -1.
</event>
<event>
 8    1  0.1091347E+005  0.1043930E+01  0.7957747E-01            NaN
         13   -1    0    0    0    0  0.00000000000E+00  0.00000000000E+00  0.74505805969E-08  0.10566000000E+00  0.10566000000E+00 0.  1.
     999900   -1    0    0    0    0 -0.00000000000E+00 -0.00000000000E+00 -0.74505805969E-08  0.93827000000E+00  0.93827000000E+00 0.  1.
     999902    2    1    2    0    0  0.11589060448E-01 -0.17190636071E-01 -0.11151639487E-01  0.10203889008E+01  0.10201173096E+01 0.  0.
     999903    2    3    3    0    0 -0.31507733006E-01  0.12209354629E+00  0.10141313792E-01  0.12813848359E+00  0.20421886503E-01 0.  0.
         14    1    1    2    0    0 -0.11589060448E-01  0.17190636071E-01  0.11151639487E-01  0.23541099248E-01  0.00000000000E+00 0.  1.
     999901    1    3    3    0    0  0.43096793454E-01 -0.13928418236E+00 -0.21292953279E-01  0.89225041716E+00  0.88000000000E+00 0. -1.
        -11    1    4    4    0    0 -0.24458395501E-01  0.66931857574E-01 -0.16842864379E-02  0.71282428484E-01  0.51100000000E-03 0.  1.
         11    1    4    4    0    0 -0.70493375050E-02  0.55161688711E-01  0.11825600230E-01  0.56856055108E-01  0.51100000000E-03 0. -1.
</event>
<event>
 7    1  0.1091347E+005  0.1043930E+01  0.7957747E-01            NaN
         13   -1    0    0    0    0  0.00000000000E+00  0.00000000000E+00  0.74505805969E-08  0.10566000000E+00  0.10566000000E+00 0.  1.
     999900   -1    0    0    0    0 -0.00000000000E+00 -0.00000000000E+00 -0.74505805969E-08  0.93827000000E+00  0.93827000000E+00 0.  1.
     999902    2    1    2    0    0  0.21991687307E-02  0.22097943504E-01 -0.14307694262E-01  0.10175128547E+01  0.10171698698E+01 0.  0.
         14    1    1    2    0    0 -0.21991687307E-02 -0.22097943504E-01  0.14307694262E-01  0.26417145291E-01  0.00000000000E+00 0.  1.
     999901    1    3    3    0    0  0.10310017948E+00  0.48066725825E-01 -0.77179889364E-01  0.89067210154E+00  0.88000000000E+00 0. -1.
        -11    1    3    3    0    0 -0.61808299690E-01 -0.17845894220E-01  0.57988622881E-01  0.86612258692E-01  0.51100000000E-03 0. -1.
         11    1    3    3    0    0 -0.39092711061E-01 -0.81228881008E-02  0.48835722213E-02  0.40228494477E-01  0.51100000000E-03 0.  1.
</event>
<event>
 8    1  0.1091347E+005  0.1043930E+01  0.7957747E-01            NaN
         13   -1    0    0    0    0  0.00000000000E+00  0.00000000000E+00  0.74505805969E-08  0.10566000000E+00  0.10566000000E+00 0.  1.
     999900   -1    0    0    0    0 -0.00000000000E+00 -0.00000000000E+00 -0.74505805969E-08  0.93827000000E+00  0.93827000000E+00 0.  1.
     999902    2    1    2    0    0  0.63663377799E-03 -0.21853362018E-01 -0.89826892817E-02  0.10202939377E+01  0.10200201252E+01 0.  0.
     999903    2    3    3    0    0 -0.60994662180E-03 -0.12805281426E+00 -0.32476487335E-01  0.13359678751E+00  0.19886782729E-01 0.  0.
         14    1    1    2    0    0 -0.63663377799E-03  0.21853362018E-01  0.89826892817E-02  0.23636062294E-01  0.00000000000E+00 0.  1.
     999901    1    3    3    0    0  0.12465803998E-02  0.10619945225E+00  0.23493798053E-01  0.88669715020E+00  0.88000000000E+00 0.  1.
        -11    1    4    4    0    0  0.56381472099E-02 -0.41703900762E-01 -0.32137735300E-02  0.42208926829E-01  0.51100000000E-03 0. -1.
         11    1    4    4    0    0 -0.62480938317E-02 -0.86348913502E-01 -0.29262713805E-01  0.91387860680E-01  0.51100000000E-03 0.  1.
</event>
<event>
 8    1  0.1091347E+005  0.1043930E+01  0.7957747E-01            NaN
         13   -1    0    0    0    0  0.00000000000E+00  0.00000000000E+00  0.74505805969E-08  0.10566000000E+00  0.10566000000E+00 0.  1.
     999900   -1    0    0    0    0 -0.00000000000E+00 -0.00000000000E+00 -0.74505805969E-08  0.93827000000E+00  0.93827000000E+00 0. -1.
     999902    2    1    2    0    0 -0.22164193411E-01  0.36413269357E-02 -0.22994139616E-01  0.10117859307E+01  0.10112751992E+01 0.  0.
     999903    2    3    3    0    0 -0.77480746409E-01  0.74727220649E-01 -0.62826057482E-01  0.12629188390E+00  0.20374073487E-01 0.  0.
         14    1    1    2    0    0  0.22164193411E-01 -0.36413269357E-02  0.22994139616E-01  0.32144069252E-01  0.00000000000E+00 0.  1.
     999901    1    3    3    0    0  0.55316552998E-01 -0.71085893713E-01  0.39831917866E-01  0.88549404685E+00  0.88000000000E+00 0.  1.
        -11    1    4    4    0    0 -0.45444820834E-01  0.55561555317E-01 -0.35884474292E-01  0.80251322644E-01  0.51100000000E-03 0.  1.
         11    1    4    4    0    0 -0.32035925575E-01  0.19165665332E-01 -0.26941583190E-01  0.46040561257E-01  0.51100000000E-03 0. -1.
</event>
<event>
 8    1  0.1091347E+005  0.1043930E+01  0.7957747E-01            NaN
         13   -1    0    0    0    0  0.00000000000E+00  0.00000000000E+00  0.74505805969E-08  0.10566000000E+00  0.10566000000E+00 0. -1.
     999900   -1    0    0    0    0 -0.00000000000E+00 -0.00000000000E+00 -0.74505805969E-08  0.93827000000E+00  0.93827000000E+00 0.  1.
     999902    2    1    2    0    0 -0.61903042962E-02  0.14379296860E-01  0.18199311401E-01  0.10199237720E+01  0.10196412123E+01 0.  0.
     999903    2    3    3    0    0 -0.90534067744E-01 -0.35934446352E-01  0.86623443604E-01  0.13182062203E+00  0.19630424180E-01 0.  0.
         14    1    1    2    0    0  0.61903042962E-02 -0.14379296860E-01 -0.18199311401E-01  0.24006227962E-01  0.00000000000E+00 0.  1.
     999901    1    3    3    0    0  0.84343763448E-01  0.50313743212E-01 -0.68424132203E-01  0.88810315001E+00  0.88000000000E+00 0.  1.
        -11    1    4    4    0    0 -0.56544114856E-01 -0.26757576147E-01  0.66348125776E-01  0.91189581209E-01  0.51100000000E-03 0.  1.
         11    1    4    4    0    0 -0.33989952889E-01 -0.91768702048E-02  0.20275317828E-01  0.40631040820E-01  0.51100000000E-03 0. -1.
</event>
<event>
 8    1  0.1091347E+005  0.1043930E+01  0.7957747E-01            NaN
         13   -1    0    0    0    0  0.00000000000E+00  0.00000000000E+00  0.74505805969E-08  0.10566000000E+00  0.10566000000E+00 0.  1.
     999900   -1    0    0    0    0 -0.00000000000E+00 -0.00000000000E+00 -0.74505805969E-08  0.93827000000E+00  0.93827000000E+00 0. -1.
     999902    2    1    2    0    0 -0.22153205694E-02  0.21290339643E-01  0.21271288047E-01  0.10137529574E+01  0.10133037080E+01 0.  0.
     999903    2    3    3    0    0  0.57142863144E-01 -0.10212463127E+00  0.32530145096E-01  0.12308949068E+00  0.19951572780E-01 0.  0.
         14    1    1    2    0    0  0.22153205694E-02 -0.21290339643E-01 -0.21271288047E-01  0.30177042640E-01  0.00000000000E+00 0. -1.
     999901    1    3    3    0    0 -0.59358183713E-01  0.12341497091E+00 -0.11258857049E-01  0.89066346668E+00  0.88000000000E+00 0. -1.
        -11    1    4    4    0    0  0.33541224093E-01 -0.74622050012E-01  0.16521458978E-01  0.83466662743E-01  0.51100000000E-03 0.  1.
         11    1    4    4    0    0  0.23601639050E-01 -0.27502581253E-01  0.16008686117E-01  0.39622827936E-01  0.51100000000E-03 0. -1.
</event>
<event>
 8    1  0.1091347E+005  0.1043930E+01  0.7957747E-01            NaN
         13   -1    0    0    0    0  0.00000000000E+00  0.00000000000E+00  0.74505805969E-08  0.10566000000E+00  0.10566000000E+00 0.  1.
     999900   -1    0    0    0    0 -0.00000000000E+00 -0.00000000000E+00 -0.74505805969E-08  0.93827000000E+00  0.93827000000E+00 0.  1.
     999902    2    1    2    0    0  0.23626349188E-01 -0.15228133529E-03  0.21990708522E-02  0.10202010414E+01  0.10199250469E+01 0.  0.
     999903    2    3    3    0    0 -0.27055391239E-01  0.11497200277E+00  0.50756563474E-01  0.12993138014E+00  0.18851503735E-01 0.  0.
         14    1    1    2    0    0 -0.23626349188E-01  0.15228133529E-03 -0.21990708522E-02  0.23728958640E-01  0.00000000000E+00 0. -1.
     999901    1    3    3    0    0  0.50681740427E-01 -0.11512428410E+00 -0.48557492622E-01  0.89026966122E+00  0.88000000000E+00 0.  1.
        -11    1    4    4    0    0 -0.31601744267E-02  0.11195216282E-01  0.11686470426E-01  0.16497099200E-01  0.51100000000E-03 0.  1.
         11    1    4    4    0    0 -0.23895216812E-01  0.10377678649E+00  0.39070093048E-01  0.11343428094E+00  0.51100000000E-03 0. -1.
</event>
<event>
 8    1  0.1091347E+005  0.1043930E+01  0.7957747E-01            NaN
         13   -1    0    0    0    0  0.00000000000E+00  0.00000000000E+00  0.74505805969E-08  0.10566000000E+00  0.10566000000E+00 0. -1.
     999900   -1    0    0    0    0 -0.00000000000E+00 -0.00000000000E+00 -0.74505805969E-08  0.93827000000E+00  0.93827000000E+00 0. -1.
     999902    2    1    2    0    0 -0.22463736468E-01  0.38857517818E-02 -0.12109395443E-01  0.10181161281E+01  0.10177888260E+01 0.  0.
     999903    2    3    3    0    0 -0.40724055756E-01 -0.61779565834E-01 -0.10581610600E+00  0.13052031876E+00  0.19061528002E-01 0.  0.
         14    1    1    2    0    0  0.22463736468E-01 -0.38857517818E-02  0.12109395443E-01  0.25813871871E-01  0.00000000000E+00 0.  1.
     999901    1    3    3    0    0  0.18260319288E-01  0.65665317616E-01  0.93706710556E-01  0.88759580936E+00  0.88000000000E+00 0.  1.
        -11    1    4    4    0    0 -0.18422571669E-01 -0.14569112796E-01 -0.41380924823E-01  0.47584580011E-01  0.51100000000E-03 0.  1.
         11    1    4    4    0    0 -0.22301484087E-01 -0.47210453038E-01 -0.64435181175E-01  0.82935738754E-01  0.51100000000E-03 0. -1.
</event>
<event>
 8    1  0.1091347E+005  0.1043930E+01  0.7957747E-01            NaN
         13   -1    0    0    0    0  0.00000000000E+00  0.00000000000E+00  0.74505805969E-08  0.10566000000E+00  0.10566000000E+00 0.  1.
     999900   -1    0    0    0    0 -0.00000000000E+00 -0.00000000000E+00 -0.74505805969E-08  0.93827000000E+00  0.93827000000E+00 0.  1.
     999902    2    1    2    0    0 -0.16189046391E-01 -0.46857378450E-02 -0.16416771045E-01  0.10204023198E+01  0.10201310419E+01 0.  0.
     999903    2    3    3    0    0 -0.11841862179E+00 -0.30700133897E-01  0.44813372128E-01  0.13198982256E+00  0.21156718325E-01 0.  0.
         14    1    1    2    0    0  0.16189046391E-01  0.46857378450E-02  0.16416771045E-01  0.23527680160E-01  0.00000000000E+00 0.  1.
     999901    1    3    3    0    0  0.10222957540E+00  0.26014396052E-01 -0.61230143172E-01  0.88841249728E+00  0.88000000000E+00 0. -1.
        -11    1    4    4    0    0 -0.26980090954E-01 -0.13021912140E-01  0.37161971243E-02  0.30192163648E-01  0.51100000000E-03 0.  1.
         11    1    4    4    0    0 -0.91438530836E-01 -0.17678221756E-01  0.41097175003E-01  0.10179765891E+00  0.51100000000E-03 0. -1.
</event>
<event>
 8    1  0.1091347E+005  0.1043930E+01  0.7957747E-01            NaN
         13   -1    0    0    0    0  0.00000000000E+00  0.00000000000E+00  0.74505805969E-08  0.10566000000E+00  0.10566000000E+00 0. -1.
     999900   -1    0    0    0    0 -0.00000000000E+00 -0.00000000000E+00 -0.74505805969E-08  0.93827000000E+00  0.93827000000E+00 0.  1.
     999902    2    1    2    0    0  0.11607225249E-01  0.19104976064E-01  0.53683402309E-02  0.10209398529E+01  0.10206809670E+01 0.  0.
     999903    2    3    3    0    0 -0.49154499671E-01 -0.89458349537E-01  0.74125791741E-01  0.12953334065E+00  0.29415849462E-01 0.  0.
         14    1    1    2    0    0 -0.11607225249E-01 -0.19104976064E-01 -0.53683402309E-02  0.22990147133E-01  0.00000000000E+00 0. -1.
     999901    1    3    3    0    0  0.60761724919E-01  0.10856332560E+00 -0.68757451510E-01  0.89140651221E+00  0.88000000000E+00 0.  1.
        -11    1    4    4    0    0 -0.46625556360E-01 -0.62364878366E-01  0.46219348232E-01  0.90552801346E-01  0.51100000000E-03 0. -1.
         11    1    4    4    0    0 -0.25289433104E-02 -0.27093471171E-01  0.27906443508E-01  0.38980539307E-01  0.51100000000E-03 0.  1.
</event>
<event>
 8    1  0.1091347E+005  0.1043930E+01  0.7957747E-01            NaN
         13   -1    0    0    0    0  0.00000000000E+00  0.00000000000E+00  0.74505805969E-08  0.10566000000E+00  0.10566000000E+00 0. -1.
     999900   -1    0    0    0    0 -0.00000000000E+00 -0.00000000000E+00 -0.74505805969E-08  0.93827000000E+00  0.93827000000E+00 0. -1.
     999902    2    1    2    0    0  0.11326396972E-01 -0.19618068156E-01  0.81029908475E-02  0.10198714396E+01  0.10195876319E+01 0.  0.
     999903    2    3    3    0    0 -0.73029533323E-01 -0.10753366474E+00  0.36312493676E-03  0.13144306287E+00  0.19502439029E-01 0.  0.
         14    1    1    2    0    0 -0.11326396972E-01  0.19618068156E-01 -0.81029908475E-02  0.24058560373E-01  0.00000000000E+00 0.  1.
     999901    1    3    3    0    0  0.84355930295E-01  0.87915596583E-01  0.77398659107E-02  0.88842837675E+00  0.88000000000E+00 0. -1.
        -11    1    4    4    0    0 -0.21803173172E-01 -0.48763445450E-01 -0.18121746699E-02  0.53449013747E-01  0.51100000000E-03 0. -1.
         11    1    4    4    0    0 -0.51226360151E-01 -0.58770219290E-01  0.21752996067E-02  0.77994049126E-01  0.51100000000E-03 0.  1.
</event>
<event>
 8    1  0.1091347E+005  0.1043930E+01  0.7957747E-01            NaN
         13   -1    0    0    0    0  0.00000000000E+00  0.00000000000E+00  0.74505805969E-08  0.10566000000E+00  0.10566000000E+00 0. -1.
     999900   -1    0    0    0    0 -0.00000000000E+00 -0.00000000000E+00 -0.74505805969E-08  0.93827000000E+00  0.93827000000E+00 0.  1.
     999902    2    1    2    0    0  0.19688911144E-01 -0.12267324237E-01 -0.37160387731E-02  0.10204363964E+01  0.10201659128E+01 0.  0.
     999903    2    3    3    0    0  0.82381405004E-01 -0.10323188290E+00  0.63641504554E-04  0.13352085042E+00  0.19603466730E-01 0.  0.
         14    1    1    2    0    0 -0.19688911144E-01  0.12267324237E-01  0.37160387731E-02  0.23493603600E-01  0.00000000000E+00 0.  1.
     999901    1    3    3    0    0 -0.62692493860E-01  0.90964558668E-01 -0.37796802777E-02  0.88691554598E+00  0.88000000000E+00 0. -1.
        -11    1    4    4    0    0  0.36166802065E-01 -0.46089492579E-01  0.97435189243E-02  0.59392559970E-01  0.51100000000E-03 0. -1.
         11    1    4    4    0    0  0.46214602939E-01 -0.57142390326E-01 -0.96798774198E-02  0.74128290448E-01  0.51100000000E-03 0.  1.
</event>
<event>
 8    1  0.1091347E+005  0.1043930E+01  0.7957747E-01            NaN
         13   -1    0    0    0    0  0.00000000000E+00  0.00000000000E+00  0.74505805969E-08  0.10566000000E+00  0.10566000000E+00 0.  1.
     999900   -1    0    0    0    0 -0.00000000000E+00 -0.00000000000E+00 -0.74505805969E-08  0.93827000000E+00  0.93827000000E+00 0.  1.
     999902    2    1    2    0    0  0.95425159464E-02 -0.20509516275E-01  0.84940439890E-02  0.10197670397E+01  0.10194807338E+01 0.  0.
     999903    2    3    3    0    0 -0.46998211294E-01  0.90418849955E-01  0.75641381819E-01  0.12846982704E+00  0.19961901818E-01 0.  0.
         14    1    1    2    0    0 -0.95425159464E-02  0.20509516275E-01 -0.84940439890E-02  0.24162960326E-01  0.00000000000E+00 0. -1.
     999901    1    3    3    0    0  0.56540727240E-01 -0.11092836623E+00 -0.67147337830E-01  0.89129721263E+00  0.88000000000E+00 0.  1.
        -11    1    4    4    0    0 -0.15159826600E-01  0.47969343838E-01  0.30751158728E-01  0.58964168567E-01  0.51100000000E-03 0.  1.
         11    1    4    4    0    0 -0.31838384694E-01  0.42449506118E-01  0.44890223092E-01  0.69505658473E-01  0.51100000000E-03 0. -1.
</event>
<event>
 8    1  0.1131060E+005  0.1043930E+01  0.7957747E-01            NaN
         13   -1    0    0    0    0  0.00000000000E+00  0.00000000000E+00  0.74505805969E-08  0.10566000000E+00  0.10566000000E+00 0. -1.
     999900   -1    0    0    0    0 -0.00000000000E+00 -0.00000000000E+00 -0.74505805969E-08  0.93827000000E+00  0.93827000000E+00 0.  1.
     999902    2    1    2    0    0  0.14634466597E-02 -0.20754733830E-02  0.23362258186E-01  0.10204301197E+01  0.10201594899E+01 0.  0.
     999903    2    3    3    0    0  0.12311840084E-01  0.29825892991E-01 -0.12211007434E+00  0.12785094432E+00  0.19845110471E-01 0.  0.
         14    1    1    2    0    0 -0.14634466597E-02  0.20754733830E-02 -0.23362258186E-01  0.23499880286E-01  0.00000000000E+00 0.  1.
     999901    1    3    3    0    0 -0.10848393424E-01 -0.31901366374E-01  0.14547233253E+00  0.89257917539E+00  0.88000000000E+00 0. -1.
        -11    1    4    4    0    0 -0.38630710779E-02  0.11921703892E-01 -0.58194184774E-01  0.59530451068E-01  0.51100000000E-03 0.  1.
         11    1    4    4    0    0  0.16174911162E-01  0.17904189099E-01 -0.63915889565E-01  0.68320493252E-01  0.51100000000E-03 0. -1.
</event>
<event>
 8    1  0.1091347E+005  0.1043930E+01  0.7957747E-01            NaN
         13   -1    0    0    0    0  0.00000000000E+00  0.00000000000E+00  0.74505805969E-08  0.10566000000E+00  0.10566000000E+00 0. -1.
     999900   -1    0    0    0    0 -0.00000000000E+00 -0.00000000000E+00 -0.74505805969E-08  0.93827000000E+00  0.93827000000E+00 0.  1.
     999902    2    1    2    0    0 -0.13950649472E-01  0.17463333015E-01 -0.42824239961E-02  0.10211719734E+01  0.10209183471E+01 0.  0.
     999903    2    3    3    0    0 -0.37941793205E-01 -0.12091956684E+00 -0.18678039096E-01  0.12991856626E+00  0.21652791961E-01 0.  0.
         14    1    1    2    0    0  0.13950649472E-01 -0.17463333015E-01  0.42824239961E-02  0.22758026627E-01  0.00000000000E+00 0. -1.
     999901    1    3    3    0    0  0.23991143734E-01  0.13838289985E+00  0.14395615100E-01  0.89125340711E+00  0.88000000000E+00 0. -1.
        -11    1    4    4    0    0 -0.24319415293E-01 -0.75885278881E-01 -0.11182712396E-02  0.79696431304E-01  0.51100000000E-03 0.  1.
         11    1    4    4    0    0 -0.13622377912E-01 -0.45034287957E-01 -0.17559767856E-01  0.50222134960E-01  0.51100000000E-03 0. -1.
</event>
<event>
 8    1  0.1091347E+005  0.1043930E+01  0.7957747E-01            NaN
         13   -1    0    0    0    0  0.00000000000E+00  0.00000000000E+00  0.74505805969E-08  0.10566000000E+00  0.10566000000E+00 0. -1.
     999900   -1    0    0    0    0 -0.00000000000E+00 -0.00000000000E+00 -0.74505805969E-08  0.93827000000E+00  0.93827000000E+00 0.  1.
     999902    2    1    2    0    0 -0.49840614683E-02  0.14537870027E-01  0.18596234649E-01  0.10198051067E+01  0.10195197130E+01 0.  0.
     999903    2    3    3    0    0  0.12253572356E+00  0.21008069081E-01 -0.28663826532E-01  0.12933519006E+00  0.21204573130E-01 0.  0.
         14    1    1    2    0    0  0.49840614683E-02 -0.14537870027E-01 -0.18596234649E-01  0.24124893301E-01  0.00000000000E+00 0. -1.
     999901    1    3    3    0    0 -0.12751978503E+00 -0.64701990540E-02  0.47260061182E-01  0.89046991664E+00  0.88000000000E+00 0.  1.
        -11    1    4    4    0    0  0.63660810247E-01  0.92110573950E-02 -0.25527732356E-01  0.69205986590E-01  0.51100000000E-03 0. -1.
         11    1    4    4    0    0  0.58874913316E-01  0.11797011686E-01 -0.31360941767E-02  0.60129203474E-01  0.51100000000E-03 0.  1.
</event>
<event>
 8    1  0.1091347E+005  0.1043930E+01  0.7957747E-01            NaN
         13   -1    0    0    0    0  0.00000000000E+00  0.00000000000E+00  0.74505805969E-08  0.10566000000E+00  0.10566000000E+00 0.  1.
     999900   -1    0    0    0    0 -0.00000000000E+00 -0.00000000000E+00 -0.74505805969E-08  0.93827000000E+00  0.93827000000E+00 0. -1.
     999902    2    1    2    0    0  0.17026930819E-01  0.12816910880E-01  0.95238508309E-02  0.10205870501E+01  0.10203200642E+01 0.  0.
     999903    2    3    3    0    0  0.46246465956E-01 -0.68151960661E-01  0.10078170927E+00  0.13169012908E+00  0.20047738454E-01 0.  0.
         14    1    1    2    0    0 -0.17026930819E-01 -0.12816910880E-01 -0.95238508309E-02  0.23342949947E-01  0.00000000000E+00 0. -1.
     999901    1    3    3    0    0 -0.29219535137E-01  0.80968871541E-01 -0.91257858442E-01  0.88889692098E+00  0.88000000000E+00 0.  1.
        -11    1    4    4    0    0  0.25695944343E-01 -0.24365042235E-01  0.32913784455E-01  0.48347855867E-01  0.51100000000E-03 0. -1.
         11    1    4    4    0    0  0.20550521613E-01 -0.43786918427E-01  0.67867924817E-01  0.83342273210E-01  0.51100000000E-03 0.  1.
</event>
<event>
 8    1  0.1091347E+005  0.1043930E+01  0.7957747E-01            NaN
         13   -1    0    0    0    0  0.00000000000E+00  0.00000000000E+00  0.74505805969E-08  0.10566000000E+00  0.10566000000E+00 0. -1.
     999900   -1    0    0    0    0 -0.00000000000E+00 -0.00000000000E+00 -0.74505805969E-08  0.93827000000E+00  0.93827000000E+00 0.  1.
     999902    2    1    2    0    0  0.17715874105E-01 -0.14154119566E-01 -0.87315237249E-02  0.10196312181E+01  0.10193416454E+01 0.  0.
     999903    2    3    3    0    0 -0.56034844008E-01  0.10873960659E+00  0.28456021740E-01  0.12726080739E+00  0.20527107398E-01 0.  0.
         14    1    1    2    0    0 -0.17715874105E-01  0.14154119566E-01  0.87315237249E-02  0.24298781915E-01  0.00000000000E+00 0. -1.
     999901    1    3    3    0    0  0.73750718113E-01 -0.12289372616E+00 -0.37187545465E-01  0.89237041070E+00  0.88000000000E+00 0.  1.
        -11    1    4    4    0    0 -0.87990973580E-02  0.34197715127E-01  0.31543193324E-02  0.35455869552E-01  0.51100000000E-03 0. -1.
         11    1    4    4    0    0 -0.47235746650E-01  0.74541891467E-01  0.25301702408E-01  0.91804937835E-01  0.51100000000E-03 0.  1.
</event>
<event>
 8    1  0.1091347E+005  0.1043930E+01  0.7957747E-01            NaN
         13   -1    0    0    0    0  0.00000000000E+00  0.00000000000E+00  0.74505805969E-08  0.10566000000E+00  0.10566000000E+00 0.  1.
     999900   -1    0    0    0    0 -0.00000000000E+00 -0.00000000000E+00 -0.74505805969E-08  0.93827000000E+00  0.93827000000E+00 0.  1.
     999902    2    1    2    0    0 -0.12756490700E-02 -0.97054910959E-02 -0.21230623504E-01  0.10205513086E+01  0.10202834950E+01 0.  0.
     999903    2    3    3    0    0 -0.86817472385E-02 -0.59693140113E-01  0.11084596262E+00  0.12926132213E+00  0.27982463435E-01 0.  0.
         14    1    1    2    0    0  0.12756490700E-02  0.97054910959E-02  0.21230623504E-01  0.23378691416E-01  0.00000000000E+00 0.  1.
     999901    1    3    3    0    0  0.74060981685E-02  0.49987649017E-01 -0.13207658612E+00  0.89128998645E+00  0.88000000000E+00 0.  1.
        -11    1    4    4    0    0 -0.11026330901E-02 -0.17032687491E-01  0.60363995378E-01  0.62732776934E-01  0.51100000000E-03 0. -1.
         11    1    4    4    0    0 -0.75791141484E-02 -0.42660452622E-01  0.50481967238E-01  0.66528545200E-01  0.51100000000E-03 0.  1.
</event>
<event>
 8    1  0.1091347E+005  0.1043930E+01  0.7957747E-01            NaN
         13   -1    0    0    0    0  0.00000000000E+00  0.00000000000E+00  0.74505805969E-08  0.10566000000E+00  0.10566000000E+00 0. -1.
     999900   -1    0    0    0    0 -0.00000000000E+00 -0.00000000000E+00 -0.74505805969E-08  0.93827000000E+00  0.93827000000E+00 0.  1.
     999902    2    1    2    0    0  0.13877615327E-01 -0.14302861003E-01  0.12323222598E-01  0.10204987846E+01  0.10202297523E+01 0.  0.
     999903    2    3    3    0    0 -0.13053447579E-01  0.10703818966E+00  0.70230166085E-01  0.12987981622E+00  0.17576230962E-01 0.  0.
         14    1    1    2    0    0 -0.13877615327E-01  0.14302861003E-01 -0.12323222598E-01  0.23431215402E-01  0.00000000000E+00 0.  1.
     999901    1    3    3    0    0  0.26931062906E-01 -0.12134105066E+00 -0.57906943487E-01  0.89061896837E+00  0.88000000000E+00 0.  1.
        -11    1    4    4    0    0 -0.29771076086E-03  0.21656858394E-02  0.55970670462E-02  0.60305146855E-02  0.51100000000E-03 0.  1.
         11    1    4    4    0    0 -0.12755736818E-01  0.10487250382E+00  0.64633099038E-01  0.12384930154E+00  0.51100000000E-03 0. -1.
</event>
<event>
 8    1  0.1091347E+005  0.1043930E+01  0.7957747E-01            NaN
         13   -1    0    0    0    0  0.00000000000E+00  0.00000000000E+00  0.74505805969E-08  0.10566000000E+00  0.10566000000E+00 0.  1.
     999900   -1    0    0    0    0 -0.00000000000E+00 -0.00000000000E+00 -0.74505805969E-08  0.93827000000E+00  0.93827000000E+00 0. -1.
     999902    2    1    2    0    0  0.16185394462E-01  0.12257980687E-01  0.11092662371E-01  0.10207940487E+01  0.10205318308E+01 0.  0.
     999903    2    3    3    0    0 -0.66874588897E-01  0.31301669988E-01  0.10683430647E+00  0.13150889456E+00  0.20712680325E-01 0.  0.
         14    1    1    2    0    0 -0.16185394462E-01 -0.12257980687E-01 -0.11092662371E-01  0.23135951307E-01  0.00000000000E+00 0.  1.
     999901    1    3    3    0    0  0.83059983359E-01 -0.19043689300E-01 -0.95741644100E-01  0.88928515413E+00  0.88000000000E+00 0.  1.
        -11    1    4    4    0    0 -0.36782020692E-01  0.16259875238E-01  0.75436795783E-01  0.85488431194E-01  0.51100000000E-03 0.  1.
         11    1    4    4    0    0 -0.30092568204E-01  0.15041794749E-01  0.31397510688E-01  0.46020463371E-01  0.51100000000E-03 0. -1.
</event>
<event>
 8    1  0.1091347E+005  0.1043930E+01  0.7957747E-01            NaN
         13   -1    0    0    0    0  0.00000000000E+00  0.00000000000E+00  0.74505805969E-08  0.10566000000E+00  0.10566000000E+00 0. -1.
     999900   -1    0    0    0    0 -0.00000000000E+00 -0.00000000000E+00 -0.74505805969E-08  0.93827000000E+00  0.93827000000E+00 0. -1.
     999902    2    1    2    0    0  0.60351294518E-02 -0.16354395235E-01 -0.15838126377E-01  0.10203771811E+01  0.10201053163E+01 0.  0.
     999903    2    3    3    0    0 -0.10341043031E+00  0.62301247505E-01  0.38641210412E-01  0.12845059285E+00  0.20766538598E-01 0.  0.
         14    1    1    2    0    0 -0.60351294518E-02  0.16354395235E-01  0.15838126377E-01  0.23552818900E-01  0.00000000000E+00 0. -1.
     999901    1    3    3    0    0  0.10944555976E+00 -0.78655642740E-01 -0.54479336789E-01  0.89192658825E+00  0.88000000000E+00 0.  1.
        -11    1    4    4    0    0 -0.77693297037E-01  0.39087302868E-01  0.20569672567E-01  0.89372468918E-01  0.51100000000E-03 0.  1.
         11    1    4    4    0    0 -0.25717133269E-01  0.23213944636E-01  0.18071537845E-01  0.39078123935E-01  0.51100000000E-03 0. -1.
</event>
<event>
 8    1  0.1091347E+005  0.1043930E+01  0.7957747E-01            NaN
         13   -1    0    0    0    0  0.00000000000E+00  0.00000000000E+00  0.74505805969E-08  0.10566000000E+00  0.10566000000E+00 0.  1.
     999900   -1    0    0    0    0 -0.00000000000E+00 -0.00000000000E+00 -0.74505805969E-08  0.93827000000E+00  0.93827000000E+00 0. -1.
     999902    2    1    2    0    0 -0.14159182241E-01  0.10724248005E-01 -0.14347902168E-01  0.10210968173E+01  0.10208414941E+01 0.  0.
     999903    2    3    3    0    0  0.10003760188E+00  0.76909402312E-01  0.26135901853E-01  0.13033292120E+00  0.19519401323E-01 0.  0.
         14    1    1    2    0    0  0.14159182241E-01 -0.10724248005E-01  0.14347902168E-01  0.22833182731E-01  0.00000000000E+00 0. -1.
     999901    1    3    3    0    0 -0.11419678412E+00 -0.66185154307E-01 -0.40483804021E-01  0.89076389607E+00  0.88000000000E+00 0. -1.
        -11    1    4    4    0    0  0.47549236775E-01  0.48342693546E-01  0.16646693541E-01  0.69823487911E-01  0.51100000000E-03 0.  1.
         11    1    4    4    0    0  0.52488365107E-01  0.28566708766E-01  0.94892083122E-02  0.60509433287E-01  0.51100000000E-03 0. -1.
</event>
<event>
 8    1  0.1091347E+005  0.1043930E+01  0.7957747E-01            NaN
         13   -1    0    0    0    0  0.00000000000E+00  0.00000000000E+00  0.74505805969E-08  0.10566000000E+00  0.10566000000E+00 0. -1.
     999900   -1    0    0    0    0 -0.00000000000E+00 -0.00000000000E+00 -0.74505805969E-08  0.93827000000E+00  0.93827000000E+00 0. -1.
     999902    2    1    2    0    0  0.30086219136E-02  0.11666270204E-01 -0.20621273748E-01  0.10200471485E+01  0.10197675198E+01 0.  0.
     999903    2    3    3    0    0 -0.38280642648E-02 -0.52795512589E-01 -0.11948814838E+00  0.13214134231E+00  0.19542172794E-01 0.  0.
         14    1    1    2    0    0 -0.30086219136E-02 -0.11666270204E-01  0.20621273748E-01  0.23882851531E-01  0.00000000000E+00 0. -1.
     999901    1    3    3    0    0  0.68366861784E-02  0.64461782793E-01  0.98866874632E-01  0.88790580616E+00  0.88000000000E+00 0.  1.
        -11    1    4    4    0    0  0.56774273734E-02 -0.12891238304E-01 -0.44316147009E-01  0.46503754830E-01  0.51100000000E-03 0. -1.
         11    1    4    4    0    0 -0.95054916382E-02 -0.39904274285E-01 -0.75172001371E-01  0.85637587475E-01  0.51100000000E-03 0.  1.
</event>
<event>
 8    1  0.1091347E+005  0.1043930E+01  0.7957747E-01            NaN
         13   -1    0    0    0    0  0.00000000000E+00  0.00000000000E+00  0.74505805969E-08  0.10566000000E+00  0.10566000000E+00 0.  1.
     999900   -1    0    0    0    0 -0.00000000000E+00 -0.00000000000E+00 -0.74505805969E-08  0.93827000000E+00  0.93827000000E+00 0.  1.
     999902    2    1    2    0    0 -0.11157398887E-01 -0.89393958038E-02  0.17266957855E-01  0.10215124136E+01  0.10212664015E+01 0.  0.
     999903    2    3    3    0    0 -0.58779126456E-01  0.82490175986E-01 -0.79529498297E-01  0.13022303888E+00  0.19325731925E-01 0.  0.
         14    1    1    2    0    0  0.11157398887E-01  0.89393958038E-02 -0.17266957855E-01  0.22417586418E-01  0.00000000000E+00 0.  1.
     999901    1    3    3    0    0  0.47621727569E-01 -0.91429571790E-01  0.96796456152E-01  0.89128937470E+00  0.88000000000E+00 0. -1.
        -11    1    4    4    0    0 -0.39333344598E-01  0.59537545294E-01 -0.66121149913E-01  0.97283600281E-01  0.51100000000E-03 0. -1.
         11    1    4    4    0    0 -0.19445781858E-01  0.22952630692E-01 -0.13408348384E-01  0.32939438598E-01  0.51100000000E-03 0.  1.
</event>
<event>
 8    1  0.1091347E+005  0.1043930E+01  0.7957747E-01            NaN
         13   -1    0    0    0    0  0.00000000000E+00  0.00000000000E+00  0.74505805969E-08  0.10566000000E+00  0.10566000000E+00 0. -1.
     999900   -1    0    0    0    0 -0.00000000000E+00 -0.00000000000E+00 -0.74505805969E-08  0.93827000000E+00  0.93827000000E+00 0. -1.
     999902    2    1    2    0    0  0.21167174335E-01 -0.13039318983E-02 -0.97599297605E-02  0.10205846421E+01  0.10203176005E+01 0.  0.
     999903    2    3    3    0    0 -0.86716919810E-03  0.12649475609E+00  0.23228722030E-01  0.13046876867E+00  0.21928309751E-01 0.  0.
         14    1    1    2    0    0 -0.21167174335E-01  0.13039318983E-02  0.97599297605E-02  0.23345357925E-01  0.00000000000E+00 0. -1.
     999901    1    3    3    0    0  0.22034343533E-01 -0.12779868799E+00 -0.32988651790E-01  0.89011587341E+00  0.88000000000E+00 0.  1.
        -11    1    4    4    0    0 -0.77066036015E-03  0.85259765205E-01  0.50870136327E-02  0.85416393677E-01  0.51100000000E-03 0.  1.
         11    1    4    4    0    0 -0.96508837954E-04  0.41234990889E-01  0.18141708397E-01  0.45052374988E-01  0.51100000000E-03 0. -1.
</event>
<event>
 8    1  0.1091347E+005  0.1043930E+01  0.7957747E-01            NaN
         13   -1    0    0    0    0  0.00000000000E+00  0.00000000000E+00  0.74505805969E-08  0.10566000000E+00  0.10566000000E+00 0. -1.
     999900   -1    0    0    0    0 -0.00000000000E+00 -0.00000000000E+00 -0.74505805969E-08  0.93827000000E+00  0.93827000000E+00 0.  1.
     999902    2    1    2    0    0 -0.59328145451E-02 -0.20910802228E-01 -0.90250706785E-02  0.10203946683E+01  0.10201232118E+01 0.  0.
     999903    2    3    3    0    0 -0.45702482831E-01  0.55187650787E-01 -0.10793213493E+00  0.13070078361E+00  0.17290325303E-01 0.  0.
         14    1    1    2    0    0  0.59328145451E-02  0.20910802228E-01  0.90250706785E-02  0.23535331716E-01  0.00000000000E+00 0. -1.
     999901    1    3    3    0    0  0.39769668286E-01 -0.76098453016E-01  0.98907064252E-01  0.88969388467E+00  0.88000000000E+00 0. -1.
        -11    1    4    4    0    0 -0.12215995570E-01  0.11345261096E-01 -0.14051668082E-01  0.21809539060E-01  0.51100000000E-03 0. -1.
         11    1    4    4    0    0 -0.33486487262E-01  0.43842389691E-01 -0.93880466849E-01  0.10889124455E+00  0.51100000000E-03 0.  1.
</event>
<event>
 8    1  0.1091347E+005  0.1043930E+01  0.7957747E-01            NaN
         13   -1    0    0    0    0  0.00000000000E+00  0.00000000000E+00  0.74505805969E-08  0.10566000000E+00  0.10566000000E+00 0.  1.
     999900   -1    0    0    0    0 -0.00000000000E+00 -0.00000000000E+00 -0.74505805969E-08  0.93827000000E+00  0.93827000000E+00 0.  1.
     999902    2    1    2    0    0  0.13322523738E-01  0.18314354165E-01  0.56914669715E-02  0.10205783833E+01  0.10203111968E+01 0.  0.
     999903    2    3    3    0    0  0.45778480655E-01 -0.62956079281E-01  0.10330709206E+00  0.13086658570E+00  0.19863805577E-01 0.  0.
         14    1    1    2    0    0 -0.13322523738E-01 -0.18314354165E-01 -0.56914669715E-02  0.23351616722E-01  0.00000000000E+00 0. -1.
     999901    1    3    3    0    0 -0.32455956917E-01  0.81270433446E-01 -0.97615625092E-01  0.88971179758E+00  0.88000000000E+00 0.  1.
        -11    1    4    4    0    0  0.23135973487E-01 -0.23442124721E-01  0.57525247109E-01  0.66288925595E-01  0.51100000000E-03 0.  1.
         11    1    4    4    0    0  0.22642507169E-01 -0.39513954560E-01  0.45781844954E-01  0.64577660102E-01  0.51100000000E-03 0. -1.
</event>
<event>
 7    1  0.1091347E+005  0.1043930E+01  0.7957747E-01            NaN
         13   -1    0    0    0    0  0.00000000000E+00  0.00000000000E+00  0.74505805969E-08  0.10566000000E+00  0.10566000000E+00 0.  1.
     999900   -1    0    0    0    0 -0.00000000000E+00 -0.00000000000E+00 -0.74505805969E-08  0.93827000000E+00  0.93827000000E+00 0.  1.
     999903    2    1    2    0    0  0.84685800171E-01 -0.35113322328E-01 -0.44651977792E-01  0.10404072568E+00  0.20640816918E-01 0.  0.
         14    1    1    2    0    0  0.23248135221E-01 -0.29417207419E-01 -0.29718570655E-01  0.47843926735E-01  0.00000000000E+00 0. -1.
     999901    1    1    2    0    0 -0.10793393539E+00  0.64530529747E-01  0.74370548447E-01  0.89204534759E+00  0.88000000000E+00 0. -1.
        -11    1    3    3    0    0  0.19199732769E-01 -0.45847426189E-02 -0.13225760576E-02  0.19790399989E-01  0.51100000000E-03 0. -1.
         11    1    3    3    0    0  0.65486067402E-01 -0.30528579709E-01 -0.43329401734E-01  0.84250325688E-01  0.51100000000E-03 0.  1.
</event>
<event>
 8    1  0.1091347E+005  0.1043930E+01  0.7957747E-01            NaN
         13   -1    0    0    0    0  0.00000000000E+00  0.00000000000E+00  0.74505805969E-08  0.10566000000E+00  0.10566000000E+00 0. -1.
     999900   -1    0    0    0    0 -0.00000000000E+00 -0.00000000000E+00 -0.74505805969E-08  0.93827000000E+00  0.93827000000E+00 0. -1.
     999902    2    1    2    0    0  0.10158380755E-01  0.12552693384E-01  0.17054728760E-01  0.10204432679E+01  0.10201729444E+01 0.  0.
     999903    2    3    3    0    0 -0.83092792305E-01 -0.45456169391E-01 -0.83630720320E-01  0.12791967210E+00  0.19966713807E-01 0.  0.
         14    1    1    2    0    0 -0.10158380755E-01 -0.12552693384E-01 -0.17054728760E-01  0.23486732081E-01  0.00000000000E+00 0. -1.
     999901    1    3    3    0    0  0.93251173060E-01  0.58008862775E-01  0.10068544908E+00  0.89252359582E+00  0.88000000000E+00 0.  1.
        -11    1    4    4    0    0 -0.42620111619E-01 -0.34441657539E-01 -0.49366299287E-01  0.73756317117E-01  0.51100000000E-03 0. -1.
         11    1    4    4    0    0 -0.40472680686E-01 -0.11014511852E-01 -0.34264421034E-01  0.54163354983E-01  0.51100000000E-03 0.  1.
</event>
<event>
 8    1  0.1091347E+005  0.1043930E+01  0.7957747E-01            NaN
         13   -1    0    0    0    0  0.00000000000E+00  0.00000000000E+00  0.74505805969E-08  0.10566000000E+00  0.10566000000E+00 0. -1.
     999900   -1    0    0    0    0 -0.00000000000E+00 -0.00000000000E+00 -0.74505805969E-08  0.93827000000E+00  0.93827000000E+00 0.  1.
     999902    2    1    2    0    0  0.19079475568E-01 -0.95554383183E-02  0.91807378185E-02  0.10207003049E+01  0.10204359331E+01 0.  0.
     999903    2    3    3    0    0 -0.10345330054E+00  0.38665297167E-03 -0.73079850189E-01  0.12835511899E+00  0.20775879668E-01 0.  0.
         14    1    1    2    0    0 -0.19079475568E-01  0.95554383183E-02 -0.91807378185E-02  0.23229695140E-01  0.00000000000E+00 0.  1.
     999901    1    3    3    0    0  0.12253277610E+00 -0.99420912899E-02  0.82260588007E-01  0.89234518587E+00  0.88000000000E+00 0.  1.
        -11    1    4    4    0    0 -0.37434868072E-01 -0.95228398834E-02 -0.23752425198E-01  0.45348568343E-01  0.51100000000E-03 0.  1.
         11    1    4    4    0    0 -0.66018432464E-01  0.99094928550E-02 -0.49327424991E-01  0.83006550650E-01  0.51100000000E-03 0. -1.
</event>
<event>
 8    1  0.1091347E+005  0.1043930E+01  0.7957747E-01            NaN
         13   -1    0    0    0    0  0.00000000000E+00  0.00000000000E+00  0.74505805969E-08  0.10566000000E+00  0.10566000000E+00 0.  1.
     999900   -1    0    0    0    0 -0.00000000000E+00 -0.00000000000E+00 -0.74505805969E-08  0.93827000000E+00  0.93827000000E+00 0. -1.
     999902    2    1    2    0    0  0.16330849911E-01  0.16799542050E-01 -0.21931417370E-02  0.10203985074E+01  0.10201271405E+01 0.  0.
     999903    2    3    3    0    0  0.22349667585E-01  0.75737071032E-01  0.10372363693E+00  0.13206961423E+00  0.21170228513E-01 0.  0.
         14    1    1    2    0    0 -0.16330849911E-01 -0.16799542050E-01  0.21931417370E-02  0.23531492571E-01  0.00000000000E+00 0. -1.
     999901    1    3    3    0    0 -0.60188176740E-02 -0.58937528982E-01 -0.10591677867E+00  0.88832889320E+00  0.88000000000E+00 0. -1.
        -11    1    4    4    0    0  0.21188172247E-01  0.40105378244E-01  0.66759567796E-01  0.80712334996E-01  0.51100000000E-03 0. -1.
         11    1    4    4    0    0  0.11614953376E-02  0.35631692789E-01  0.36964069134E-01  0.51357279235E-01  0.51100000000E-03 0.  1.
</event>
<event>
 8    1  0.1091347E+005  0.1043930E+01  0.7957747E-01            NaN
         13   -1    0    0    0    0  0.00000000000E+00  0.00000000000E+00  0.74505805969E-08  0.10566000000E+00  0.10566000000E+00 0. -1.
     999900   -1    0    0    0    0 -0.00000000000E+00 -0.00000000000E+00 -0.74505805969E-08  0.93827000000E+00  0.93827000000E+00 0. -1.
     999902    2    1    2    0    0 -0.95179593629E-04  0.15753261120E-01 -0.13666204722E-01  0.10230747981E+01  0.10228622112E+01 0.  0.
     999903    2    3    3    0    0  0.12558598331E+00  0.38448088402E-01 -0.17235078021E-01  0.13384842267E+00  0.19190039892E-01 0.  0.
         14    1    1    2    0    0  0.95179593629E-04 -0.15753261120E-01  0.13666204722E-01  0.20855201907E-01  0.00000000000E+00 0. -1.
     999901    1    3    3    0    0 -0.12568116290E+00 -0.22694827282E-01  0.35688732992E-02  0.88922637542E+00  0.88000000000E+00 0.  1.
        -11    1    4    4    0    0  0.93502936093E-01  0.29857138599E-01 -0.21128353861E-01  0.10040376607E+00  0.51100000000E-03 0. -1.
         11    1    4    4    0    0  0.32083047216E-01  0.85909498029E-02  0.38932758398E-02  0.33444656598E-01  0.51100000000E-03 0.  1.
</event>
<event>
 8    1  0.1091347E+005  0.1043930E+01  0.7957747E-01            NaN
         13   -1    0    0    0    0  0.00000000000E+00  0.00000000000E+00  0.74505805969E-08  0.10566000000E+00  0.10566000000E+00 0. -1.
     999900   -1    0    0    0    0 -0.00000000000E+00 -0.00000000000E+00 -0.74505805969E-08  0.93827000000E+00  0.93827000000E+00 0.  1.
     999902    2    1    2    0    0 -0.57404364621E-02 -0.19913040959E-01 -0.11637597883E-01  0.10201620490E+01  0.10198851360E+01 0.  0.
     999903    2    3    3    0    0 -0.50781031392E-01  0.76271340746E-01  0.87190602677E-01  0.12828363591E+00  0.21411666903E-01 0.  0.
         14    1    1    2    0    0  0.57404364621E-02  0.19913040959E-01  0.11637597883E-01  0.23767951016E-01  0.00000000000E+00 0. -1.
     999901    1    3    3    0    0  0.45040594930E-01 -0.96184381705E-01 -0.98828200560E-01  0.89187841307E+00  0.88000000000E+00 0. -1.
        -11    1    4    4    0    0 -0.17274295527E-01  0.25086292921E-01  0.43498731554E-01  0.53104841081E-01  0.51100000000E-03 0. -1.
         11    1    4    4    0    0 -0.33506735865E-01  0.51185047825E-01  0.43691871123E-01  0.75178794832E-01  0.51100000000E-03 0.  1.
</event>
<event>
 8    1  0.1091347E+005  0.1043930E+01  0.7957747E-01            NaN
         13   -1    0    0    0    0  0.00000000000E+00  0.00000000000E+00  0.74505805969E-08  0.10566000000E+00  0.10566000000E+00 0. -1.
     999900   -1    0    0    0    0 -0.00000000000E+00 -0.00000000000E+00 -0.74505805969E-08  0.93827000000E+00  0.93827000000E+00 0. -1.
     999902    2    1    2    0    0 -0.22728146370E-01 -0.45807279251E-02  0.91090563249E-03  0.10207269516E+01  0.10204631930E+01 0.  0.
     999903    2    3    3    0    0 -0.23282183848E-02  0.12633900598E+00 -0.25267002527E-01  0.13042283690E+00  0.20117900829E-01 0.  0.
         14    1    1    2    0    0  0.22728146370E-01  0.45807279251E-02 -0.91090563249E-03  0.23203048395E-01  0.00000000000E+00 0.  1.
     999901    1    3    3    0    0 -0.20399927986E-01 -0.13091973391E+00  0.26177908159E-01  0.89030411471E+00  0.88000000000E+00 0. -1.
        -11    1    4    4    0    0  0.68610805419E-02  0.89945651474E-01 -0.21184023961E-01  0.92662390631E-01  0.51100000000E-03 0. -1.
         11    1    4    4    0    0 -0.91892989267E-02  0.36393354511E-01 -0.40829785660E-02  0.37760446267E-01  0.51100000000E-03 0.  1.
</event>
<event>
 8    1  0.1091347E+005  0.1043930E+01  0.7957747E-01            NaN
         13   -1    0    0    0    0  0.00000000000E+00  0.00000000000E+00  0.74505805969E-08  0.10566000000E+00  0.10566000000E+00 0. -1.
     999900   -1    0    0    0    0 -0.00000000000E+00 -0.00000000000E+00 -0.74505805969E-08  0.93827000000E+00  0.93827000000E+00 0.  1.
     999902    2    1    2    0    0 -0.16863502397E-01  0.16159385085E-01  0.19448996142E-02  0.10204931471E+01  0.10202239838E+01 0.  0.
     999903    2    3    3    0    0 -0.71056127488E-01 -0.13018097693E-02  0.10959741225E+00  0.13210652101E+00  0.19745180617E-01 0.  0.
         14    1    1    2    0    0  0.16863502397E-01 -0.16159385085E-01 -0.19448996142E-02  0.23436852901E-01  0.00000000000E+00 0.  1.
     999901    1    3    3    0    0  0.54192625091E-01  0.17461194854E-01 -0.10765251264E+00  0.88838662609E+00  0.88000000000E+00 0.  1.
        -11    1    4    4    0    0 -0.13813500390E-01 -0.48618216405E-03  0.94552523499E-02  0.16754464603E-01  0.51100000000E-03 0. -1.
         11    1    4    4    0    0 -0.57242627097E-01 -0.81562760522E-03  0.10014215990E+00  0.11535205640E+00  0.51100000000E-03 0.  1.
</event>
<event>
 8    1  0.1091347E+005  0.1043930E+01  0.7957747E-01            NaN
         13   -1    0    0    0    0  0.00000000000E+00  0.00000000000E+00  0.74505805969E-08  0.10566000000E+00  0.10566000000E+00 0.  1.
     999900   -1    0    0    0    0 -0.00000000000E+00 -0.00000000000E+00 -0.74505805969E-08  0.93827000000E+00  0.93827000000E+00 0. -1.
     999902    2    1    2    0    0  0.30018543867E-02 -0.75758306311E-02  0.22263550063E-01  0.10202219845E+01  0.10199464827E+01 0.  0.
     999903    2    3    3    0    0 -0.40666211937E-01  0.53192337270E-01 -0.10679121291E+00  0.12766677491E+00  0.20279958659E-01 0.  0.
         14    1    1    2    0    0 -0.30018543867E-02  0.75758306311E-02 -0.22263550063E-01  0.23708015541E-01  0.00000000000E+00 0. -1.
     999901    1    3    3    0    0  0.43668066324E-01 -0.60768167901E-01  0.12905476297E+00  0.89255520955E+00  0.88000000000E+00 0.  1.
        -11    1    4    4    0    0 -0.35371229396E-01  0.41299099308E-01 -0.70019249815E-01  0.88654926193E-01  0.51100000000E-03 0.  1.
         11    1    4    4    0    0 -0.52949825411E-02  0.11893237962E-01 -0.36771963096E-01  0.39011848717E-01  0.51100000000E-03 0. -1.
</event>
<event>
 8    1  0.1091347E+005  0.1043930E+01  0.7957747E-01            NaN
         13   -1    0    0    0    0  0.00000000000E+00  0.00000000000E+00  0.74505805969E-08  0.10566000000E+00  0.10566000000E+00 0.  1.
     999900   -1    0    0    0    0 -0.00000000000E+00 -0.00000000000E+00 -0.74505805969E-08  0.93827000000E+00  0.93827000000E+00 0. -1.
     999902    2    1    2    0    0 -0.24072798307E-02 -0.55985134760E-03  0.22885838969E-01  0.10209110935E+01  0.10206515521E+01 0.  0.
     999903    2    3    3    0    0  0.66159657192E-01 -0.64177858514E-01  0.93815640697E-01  0.13311623408E+00  0.20558686099E-01 0.  0.
         14    1    1    2    0    0  0.24072798307E-02  0.55985134760E-03 -0.22885838969E-01  0.23018906469E-01  0.00000000000E+00 0. -1.
     999901    1    3    3    0    0 -0.68566937023E-01  0.63618007166E-01 -0.70929801728E-01  0.88779485945E+00  0.88000000000E+00 0. -1.
        -11    1    4    4    0    0  0.44420760781E-01 -0.34833613443E-01  0.68060775722E-01  0.88425759407E-01  0.51100000000E-03 0. -1.
         11    1    4    4    0    0  0.21738896411E-01 -0.29344245071E-01  0.25754864975E-01  0.44690474677E-01  0.51100000000E-03 0.  1.
</event>
<event>
 8    1  0.1091347E+005  0.1043930E+01  0.7957747E-01            NaN
         13   -1    0    0    0    0  0.00000000000E+00  0.00000000000E+00  0.74505805969E-08  0.10566000000E+00  0.10566000000E+00 0.  1.
     999900   -1    0    0    0    0 -0.00000000000E+00 -0.00000000000E+00 -0.74505805969E-08  0.93827000000E+00  0.93827000000E+00 0. -1.
     999902    2    1    2    0    0  0.28161332576E-02 -0.11155454167E-01  0.10046999312E-01  0.10286552837E+01  0.10285418687E+01 0.  0.
     999903    2    3    3    0    0  0.98396993033E-01  0.32066604582E-01  0.90365567454E-01  0.13879297998E+00  0.19680450779E-01 0.  0.
         14    1    1    2    0    0 -0.28161332576E-02  0.11155454167E-01 -0.10046999312E-01  0.15274716343E-01  0.00000000000E+00 0. -1.
     999901    1    3    3    0    0 -0.95580859776E-01 -0.43222058749E-01 -0.80318568142E-01  0.88986230368E+00  0.88000000000E+00 0. -1.
        -11    1    4    4    0    0  0.33416999614E-01  0.10131267805E-01  0.43226381845E-01  0.55570852603E-01  0.51100000000E-03 0.  1.
         11    1    4    4    0    0  0.64979993419E-01  0.21935336777E-01  0.47139185609E-01  0.83222127377E-01  0.51100000000E-03 0. -1.
</event>
<event>
 8    1  0.1091347E+005  0.1043930E+01  0.7957747E-01            NaN
         13   -1    0    0    0    0  0.00000000000E+00  0.00000000000E+00  0.74505805969E-08  0.10566000000E+00  0.10566000000E+00 0.  1.
     999900   -1    0    0    0    0 -0.00000000000E+00 -0.00000000000E+00 -0.74505805969E-08  0.93827000000E+00  0.93827000000E+00 0.  1.
     999902    2    1    2    0    0 -0.41399752447E-02 -0.35916537299E-02 -0.22926046009E-01  0.10203579200E+01  0.10200856052E+01 0.  0.
     999903    2    3    3    0    0  0.67245690567E-01 -0.97533944125E-01 -0.54189907815E-01  0.13193319256E+00  0.20855887274E-01 0.  0.
         14    1    1    2    0    0  0.41399752447E-02  0.35916537299E-02  0.22926046009E-01  0.23572080035E-01  0.00000000000E+00 0.  1.
     999901    1    3    3    0    0 -0.71385665812E-01  0.93942290395E-01  0.31263861806E-01  0.88842472740E+00  0.88000000000E+00 0. -1.
        -11    1    4    4    0    0  0.21178678216E-01 -0.15728021582E-01 -0.10916011254E-01  0.28553940123E-01  0.51100000000E-03 0.  1.
         11    1    4    4    0    0  0.46067012351E-01 -0.81805922543E-01 -0.43273896561E-01  0.10337925244E+00  0.51100000000E-03 0. -1.
</event>
<event>
 8    1  0.1091347E+005  0.1043930E+01  0.7957747E-01            NaN
         13   -1    0    0    0    0  0.00000000000E+00  0.00000000000E+00  0.74505805969E-08  0.10566000000E+00  0.10566000000E+00 0.  1.
     999900   -1    0    0    0    0 -0.00000000000E+00 -0.00000000000E+00 -0.74505805969E-08  0.93827000000E+00  0.93827000000E+00 0. -1.
     999902    2    1    2    0    0 -0.21751654067E-01  0.22636752239E-02 -0.90703690642E-02  0.10202544794E+01  0.10199797412E+01 0.  0.
     999903    2    3    3    0    0  0.25574766072E-01 -0.62211965907E-01 -0.11040555867E+00  0.13083572596E+00  0.20104786500E-01 0.  0.
         14    1    1    2    0    0  0.21751654067E-01 -0.22636752239E-02  0.90703690642E-02  0.23675520588E-01  0.00000000000E+00 0.  1.
     999901    1    3    3    0    0 -0.47326420139E-01  0.64475641131E-01  0.10133518961E+00  0.88941875345E+00  0.88000000000E+00 0.  1.
        -11    1    4    4    0    0  0.20787275633E-01 -0.49163958240E-01 -0.69523104502E-01  0.87652317703E-01  0.51100000000E-03 0. -1.
         11    1    4    4    0    0  0.47874904385E-02 -0.13048007667E-01 -0.40882454168E-01  0.43183408256E-01  0.51100000000E-03 0.  1.
</event>
<event>
 8    1  0.1091347E+005  0.1043930E+01  0.7957747E-01            NaN
         13   -1    0    0    0    0  0.00000000000E+00  0.00000000000E+00  0.74505805969E-08  0.10566000000E+00  0.10566000000E+00 0.  1.
     999900   -1    0    0    0    0 -0.00000000000E+00 -0.00000000000E+00 -0.74505805969E-08  0.93827000000E+00  0.93827000000E+00 0. -1.
     999902    2    1    2    0    0 -0.20565578619E-01  0.12721333758E-01 -0.81672492574E-03  0.10197340831E+01  0.10194469863E+01 0.  0.
     999903    2    3    3    0    0  0.12445928556E+00 -0.95232691415E-02  0.22376104650E-01  0.12728523807E+00  0.10956064749E-01 0.  0.
         14    1    1    2    0    0  0.20565578619E-01 -0.12721333758E-01  0.81672492574E-03  0.24195916931E-01  0.00000000000E+00 0.  1.
     999901    1    3    3    0    0 -0.14502486418E+00  0.22244602899E-01 -0.23192829575E-01  0.89244884499E+00  0.88000000000E+00 0. -1.
        -11    1    4    4    0    0  0.47540785849E-01 -0.76168115348E-02  0.12200609279E-01  0.49671502140E-01  0.51100000000E-03 0. -1.
         11    1    4    4    0    0  0.76918499713E-01 -0.19064576067E-02  0.10175495371E-01  0.77613735934E-01  0.51100000000E-03 0.  1.
</event>
<event>
 8    1  0.1091347E+005  0.1043930E+01  0.7957747E-01            NaN
         13   -1    0    0    0    0  0.00000000000E+00  0.00000000000E+00  0.74505805969E-08  0.10566000000E+00  0.10566000000E+00 0.  1.
     999900   -1    0    0    0    0 -0.00000000000E+00 -0.00000000000E+00 -0.74505805969E-08  0.93827000000E+00  0.93827000000E+00 0.  1.
     999902    2    1    2    0    0  0.27661309445E-02 -0.60813781169E-02  0.23243304264E-01  0.10197455870E+01  0.10194587664E+01 0.  0.
     999903    2    3    3    0    0 -0.88691625667E-01  0.87075336974E-01  0.32562357971E-01  0.13006612809E+00  0.20213157737E-01 0.  0.
         14    1    1    2    0    0 -0.27661309445E-02  0.60813781169E-02 -0.23243304264E-01  0.24184413024E-01  0.00000000000E+00 0. -1.
     999901    1    3    3    0    0  0.91457756612E-01 -0.93156715091E-01 -0.93190537075E-02  0.88967945889E+00  0.88000000000E+00 0. -1.
        -11    1    4    4    0    0 -0.69135066782E-01  0.77500194061E-01  0.23542511136E-01  0.10649154187E+00  0.51100000000E-03 0.  1.
         11    1    4    4    0    0 -0.19556558885E-01  0.95751429133E-02  0.90198468349E-02  0.23574586214E-01  0.51100000000E-03 0. -1.
</event>
<event>
 8    1  0.1091347E+005  0.1043930E+01  0.7957747E-01            NaN
         13   -1    0    0    0    0  0.00000000000E+00  0.00000000000E+00  0.74505805969E-08  0.10566000000E+00  0.10566000000E+00 0.  1.
     999900   -1    0    0    0    0 -0.00000000000E+00 -0.00000000000E+00 -0.74505805969E-08  0.93827000000E+00  0.93827000000E+00 0. -1.
     999902    2    1    2    0    0 -0.14475171462E-01  0.98661353401E-02 -0.14912595148E-01  0.10209244200E+01  0.10206651825E+01 0.  0.
     999903    2    3    3    0    0  0.11629669819E+00 -0.48396052408E-01  0.14435130932E-01  0.12887226156E+00  0.23077844256E-01 0.  0.
         14    1    1    2    0    0  0.14475171462E-01 -0.98661353401E-02  0.14912595148E-01  0.23005579964E-01  0.00000000000E+00 0.  1.
     999901    1    3    3    0    0 -0.13077186966E+00  0.58262187748E-01 -0.29347726080E-01  0.89205215848E+00  0.88000000000E+00 0. -1.
        -11    1    4    4    0    0  0.28483748962E-01 -0.19296875771E-01 -0.36808219631E-02  0.34604955437E-01  0.51100000000E-03 0.  1.
         11    1    4    4    0    0  0.87812949231E-01 -0.29099176637E-01  0.18115952895E-01  0.94267306124E-01  0.51100000000E-03 0. -1.
</event>
<event>
 8    1  0.1091347E+005  0.1043930E+01  0.7957747E-01            NaN
         13   -1    0    0    0    0  0.00000000000E+00  0.00000000000E+00  0.74505805969E-08  0.10566000000E+00  0.10566000000E+00 0. -1.
     999900   -1    0    0    0    0 -0.00000000000E+00 -0.00000000000E+00 -0.74505805969E-08  0.93827000000E+00  0.93827000000E+00 0. -1.
     999902    2    1    2    0    0  0.14836500027E-02  0.16135589950E-01  0.17040391767E-01  0.10204154634E+01  0.10201444920E+01 0.  0.
     999903    2    3    3    0    0  0.12371045998E+00  0.51910471756E-02  0.39805241425E-01  0.13160872710E+00  0.20128957365E-01 0.  0.
         14    1    1    2    0    0 -0.14836500027E-02 -0.16135589950E-01 -0.17040391767E-01  0.23514536609E-01  0.00000000000E+00 0.  1.
     999901    1    3    3    0    0 -0.12222680998E+00  0.10944542775E-01 -0.22764849658E-01  0.88880673629E+00  0.88000000000E+00 0. -1.
        -11    1    4    4    0    0  0.40879621711E-01 -0.74981582760E-03  0.37077124251E-02  0.41057446918E-01  0.51100000000E-03 0. -1.
         11    1    4    4    0    0  0.82830838270E-01  0.59408630032E-02  0.36097529000E-01  0.90551280182E-01  0.51100000000E-03 0.  1.
</event>
<event>
 8    1  0.1091347E+005  0.1043930E+01  0.7957747E-01            NaN
         13   -1    0    0    0    0  0.00000000000E+00  0.00000000000E+00  0.74505805969E-08  0.10566000000E+00  0.10566000000E+00 0.  1.
     999900   -1    0    0    0    0 -0.00000000000E+00 -0.00000000000E+00 -0.74505805969E-08  0.93827000000E+00  0.93827000000E+00 0. -1.
     999902    2    1    2    0    0 -0.20581918481E-01  0.13525910877E-01 -0.23611421438E-01  0.10098116053E+01  0.10092350635E+01 0.  0.
     999903    2    3    3    0    0 -0.91159099962E-01  0.75167100462E-01  0.28866708249E-01  0.12328200689E+00  0.20126894421E-01 0.  0.
         14    1    1    2    0    0  0.20581918481E-01 -0.13525910877E-01  0.23611421438E-01  0.34118394682E-01  0.00000000000E+00 0.  1.
     999901    1    3    3    0    0  0.70577181481E-01 -0.61641189585E-01 -0.52478129687E-01  0.88652959843E+00  0.88000000000E+00 0. -1.
        -11    1    4    4    0    0 -0.58728982306E-01  0.35903893591E-01  0.18966664144E-01  0.71401529448E-01  0.51100000000E-03 0.  1.
         11    1    4    4    0    0 -0.32430117655E-01  0.39263206871E-01  0.99000441054E-02  0.51880477439E-01  0.51100000000E-03 0. -1.
</event>
<event>
 8    1  0.1091347E+005  0.1043930E+01  0.7957747E-01            NaN
         13   -1    0    0    0    0  0.00000000000E+00  0.00000000000E+00  0.74505805969E-08  0.10566000000E+00  0.10566000000E+00 0.  1.
     999900   -1    0    0    0    0 -0.00000000000E+00 -0.00000000000E+00 -0.74505805969E-08  0.93827000000E+00  0.93827000000E+00 0. -1.
     999902    2    1    2    0    0  0.12966444665E-01  0.15420500381E-01 -0.12652295201E-01  0.10201392225E+01  0.10198617711E+01 0.  0.
     999903    2    3    3    0    0 -0.13122701200E-02  0.99232643040E-01 -0.86364665390E-01  0.13297414742E+00  0.19350166860E-01 0.  0.
         14    1    1    2    0    0 -0.12966444665E-01 -0.15420500381E-01  0.12652295201E-01  0.23790777479E-01  0.00000000000E+00 0. -1.
     999901    1    3    3    0    0  0.14278714785E-01 -0.83812142660E-01  0.73712370189E-01  0.88716507510E+00  0.88000000000E+00 0.  1.
        -11    1    4    4    0    0 -0.50202613900E-02  0.34329893153E-01 -0.19894396730E-01  0.39997409049E-01  0.51100000000E-03 0.  1.
         11    1    4    4    0    0  0.37079912700E-02  0.64902749887E-01 -0.66470268660E-01  0.92976738375E-01  0.51100000000E-03 0. -1.
</event>
<event>
 8    1  0.1091347E+005  0.1043930E+01  0.7957747E-01            NaN
         13   -1    0    0    0    0  0.00000000000E+00  0.00000000000E+00  0.74505805969E-08  0.10566000000E+00  0.10566000000E+00 0. -1.
     999900   -1    0    0    0    0 -0.00000000000E+00 -0.00000000000E+00 -0.74505805969E-08  0.93827000000E+00  0.93827000000E+00 0.  1.
     999902    2    1    2    0    0 -0.21822941209E-01 -0.50455840735E-02  0.86355842157E-02  0.10199243341E+01  0.10196417877E+01 0.  0.
     999903    2    3    3    0    0 -0.12737092593E+00  0.26388958709E-01  0.21561491620E-01  0.13296571800E+00  0.17182966190E-01 0.  0.
         14    1    1    2    0    0  0.21822941209E-01  0.50455840735E-02 -0.86355842157E-02  0.24005665923E-01  0.00000000000E+00 0.  1.
     999901    1    3    3    0    0  0.10554798472E+00 -0.31434542783E-01 -0.12925907405E-01  0.88695861608E+00  0.88000000000E+00 0. -1.
        -11    1    4    4    0    0 -0.29418034231E-01  0.17282870255E-03  0.91175078000E-02  0.30803257575E-01  0.51100000000E-03 0.  1.
         11    1    4    4    0    0 -0.97952891700E-01  0.26216130007E-01  0.12443983820E-01  0.10216246042E+00  0.51100000000E-03 0. -1.
</event>
<event>
 8    1  0.1091347E+005  0.1043930E+01  0.7957747E-01            NaN
         13   -1    0    0    0    0  0.00000000000E+00  0.00000000000E+00  0.74505805969E-08  0.10566000000E+00  0.10566000000E+00 0.  1.
     999900   -1    0    0    0    0 -0.00000000000E+00 -0.00000000000E+00 -0.74505805969E-08  0.93827000000E+00  0.93827000000E+00 0. -1.
     999902    2    1    2    0    0  0.21743966358E-01 -0.63703339628E-02 -0.71745847221E-02  0.10201633028E+01  0.10198864194E+01 0.  0.
     999903    2    3    3    0    0  0.11593809542E+00  0.13138278007E-01  0.59318830207E-01  0.13242770363E+00  0.20102655353E-01 0.  0.
         14    1    1    2    0    0 -0.21743966358E-01  0.63703339628E-02  0.71745847221E-02  0.23766697156E-01  0.00000000000E+00 0.  1.
     999901    1    3    3    0    0 -0.94194129060E-01 -0.19508611969E-01 -0.66493414929E-01  0.88773559922E+00  0.88000000000E+00 0. -1.
        -11    1    4    4    0    0  0.36934371018E-01  0.13087577544E-01  0.23378192953E-01  0.45631496526E-01  0.51100000000E-03 0.  1.
         11    1    4    4    0    0  0.79003724400E-01  0.50700462939E-04  0.35940637254E-01  0.86796207100E-01  0.51100000000E-03 0. -1.
</event>
<event>
 8    1  0.1091347E+005  0.1043930E+01  0.7957747E-01            NaN
         13   -1    0    0    0    0  0.00000000000E+00  0.00000000000E+00  0.74505805969E-08  0.10566000000E+00  0.10566000000E+00 0.  1.
     999900   -1    0    0    0    0 -0.00000000000E+00 -0.00000000000E+00 -0.74505805969E-08  0.93827000000E+00  0.93827000000E+00 0. -1.
     999902    2    1    2    0    0 -0.12313727544E-01  0.14431107642E-01 -0.14832467454E-01  0.10198491602E+01  0.10195648203E+01 0.  0.
     999903    2    3    3    0    0 -0.10939241937E-01  0.91805543411E-01 -0.93343112243E-01  0.13297114501E+00  0.20505218502E-01 0.  0.
         14    1    1    2    0    0  0.12313727544E-01 -0.14431107642E-01  0.14832467454E-01  0.24080839782E-01  0.00000000000E+00 0.  1.
     999901    1    3    3    0    0 -0.13744856079E-02 -0.77374435769E-01  0.78510644789E-01  0.88687801521E+00  0.88000000000E+00 0.  1.
        -11    1    4    4    0    0  0.29397551008E-02  0.52527102558E-01 -0.45770350528E-01  0.69734674099E-01  0.51100000000E-03 0.  1.
         11    1    4    4    0    0 -0.13878997037E-01  0.39278440853E-01 -0.47572761715E-01  0.63236470907E-01  0.51100000000E-03 0. -1.
</event>
<event>
 8    1  0.1091347E+005  0.1043930E+01  0.7957747E-01            NaN
         13   -1    0    0    0    0  0.00000000000E+00  0.00000000000E+00  0.74505805969E-08  0.10566000000E+00  0.10566000000E+00 0. -1.
     999900   -1    0    0    0    0 -0.00000000000E+00 -0.00000000000E+00 -0.74505805969E-08  0.93827000000E+00  0.93827000000E+00 0.  1.
     999902    2    1    2    0    0 -0.22020624656E-02 -0.24131916075E-01 -0.86763340718E-03  0.10196822941E+01  0.10193939522E+01 0.  0.
     999903    2    3    3    0    0 -0.33219704586E-02  0.72624939217E-01  0.10359721930E+00  0.12823625050E+00  0.20657560633E-01 0.  0.
         14    1    1    2    0    0  0.22020624656E-02  0.24131916075E-01  0.86763340718E-03  0.24247705877E-01  0.00000000000E+00 0. -1.
     999901    1    3    3    0    0  0.11199079930E-02 -0.96756855292E-01 -0.10446485271E+00  0.89144604362E+00  0.88000000000E+00 0.  1.
        -11    1    4    4    0    0 -0.27664242191E-02  0.38565730079E-01  0.37444841147E-01  0.53826999629E-01  0.51100000000E-03 0.  1.
         11    1    4    4    0    0 -0.55554623948E-03  0.34059209138E-01  0.66152378155E-01  0.74409250871E-01  0.51100000000E-03 0. -1.
</event>
<event>
 8    1  0.1091347E+005  0.1043930E+01  0.7957747E-01            NaN
         13   -1    0    0    0    0  0.00000000000E+00  0.00000000000E+00  0.74505805969E-08  0.10566000000E+00  0.10566000000E+00 0.  1.
     999900   -1    0    0    0    0 -0.00000000000E+00 -0.00000000000E+00 -0.74505805969E-08  0.93827000000E+00  0.93827000000E+00 0.  1.
     999902    2    1    2    0    0  0.77894358361E-02 -0.13189846302E-01 -0.19672586625E-01  0.10189969292E+01  0.10186918492E+01 0.  0.
     999903    2    3    3    0    0 -0.70670126168E-01  0.52962849809E-02 -0.10816586640E+00  0.13089293725E+00  0.20267930319E-01 0.  0.
         14    1    1    2    0    0 -0.77894358361E-02  0.13189846302E-01  0.19672586625E-01  0.24933070822E-01  0.00000000000E+00 0.  1.
     999901    1    3    3    0    0  0.78459562004E-01 -0.18486131283E-01  0.88493279776E-01  0.88810399193E+00  0.88000000000E+00 0.  1.
        -11    1    4    4    0    0 -0.51166788964E-01 -0.25496936396E-02 -0.87585221984E-01  0.10146907638E+00  0.51100000000E-03 0. -1.
         11    1    4    4    0    0 -0.19503337204E-01  0.78459786206E-02 -0.20580644417E-01  0.29423860865E-01  0.51100000000E-03 0.  1.
</event>
<event>
 8    1  0.1091347E+005  0.1043930E+01  0.7957747E-01            NaN
         13   -1    0    0    0    0  0.00000000000E+00  0.00000000000E+00  0.74505805969E-08  0.10566000000E+00  0.10566000000E+00 0. -1.
     999900   -1    0    0    0    0 -0.00000000000E+00 -0.00000000000E+00 -0.74505805969E-08  0.93827000000E+00  0.93827000000E+00 0.  1.
     999902    2    1    2    0    0  0.69471746347E-02  0.14580978122E-01  0.17653076247E-01  0.10200030432E+01  0.10197223686E+01 0.  0.
     999903    2    3    3    0    0  0.46267453245E-01 -0.10269359732E+00 -0.57651977592E-01  0.12816771008E+00  0.20409782611E-01 0.  0.
         14    1    1    2    0    0 -0.69471746347E-02 -0.14580978122E-01 -0.17653076247E-01  0.23926956752E-01  0.00000000000E+00 0.  1.
     999901    1    3    3    0    0 -0.39320278610E-01  0.11727457544E+00  0.75305053839E-01  0.89183533317E+00  0.88000000000E+00 0. -1.
        -11    1    4    4    0    0  0.25100460566E-01 -0.77535378087E-01 -0.43339184189E-01  0.92305546869E-01  0.51100000000E-03 0. -1.
         11    1    4    4    0    0  0.21166992679E-01 -0.25158219234E-01 -0.14312793403E-01  0.35862163210E-01  0.51100000000E-03 0.  1.
</event>
<event>
 8    1  0.1091347E+005  0.1043930E+01  0.7957747E-01            NaN
         13   -1    0    0    0    0  0.00000000000E+00  0.00000000000E+00  0.74505805969E-08  0.10566000000E+00  0.10566000000E+00 0.  1.
     999900   -1    0    0    0    0 -0.00000000000E+00 -0.00000000000E+00 -0.74505805969E-08  0.93827000000E+00  0.93827000000E+00 0. -1.
     999902    2    1    2    0    0  0.13542256687E-01  0.15520415240E-02  0.19168498029E-01  0.10204090973E+01  0.10201379774E+01 0.  0.
     999903    2    3    3    0    0  0.36387847420E-01  0.40111756308E-01 -0.11534042365E+00  0.12906100441E+00  0.20501246205E-01 0.  0.
         14    1    1    2    0    0 -0.13542256687E-01 -0.15520415240E-02 -0.19168498029E-01  0.23520902741E-01  0.00000000000E+00 0. -1.
     999901    1    3    3    0    0 -0.22845590733E-01 -0.38559714784E-01  0.13450892168E+00  0.89134809285E+00  0.88000000000E+00 0.  1.
        -11    1    4    4    0    0  0.77193174334E-02  0.65792700373E-02 -0.44186405551E-01  0.45338440780E-01  0.51100000000E-03 0.  1.
         11    1    4    4    0    0  0.28668529987E-01  0.33532486270E-01 -0.71154018102E-01  0.83722563626E-01  0.51100000000E-03 0. -1.
</event>
<event>
 8    1  0.1091347E+005  0.1043930E+01  0.7957747E-01            NaN
         13   -1    0    0    0    0  0.00000000000E+00  0.00000000000E+00  0.74505805969E-08  0.10566000000E+00  0.10566000000E+00 0. -1.
     999900   -1    0    0    0    0 -0.00000000000E+00 -0.00000000000E+00 -0.74505805969E-08  0.93827000000E+00  0.93827000000E+00 0. -1.
     999902    2    1    2    0    0  0.64244746572E-02 -0.14628415699E-01  0.17299663637E-01  0.10203812679E+01  0.10201094986E+01 0.  0.
     999903    2    3    3    0    0  0.12190625772E+00 -0.45782614074E-01  0.31645267932E-02  0.13217722133E+00  0.22441483593E-01 0.  0.
         14    1    1    2    0    0 -0.64244746572E-02  0.14628415699E-01 -0.17299663637E-01  0.23548732077E-01  0.00000000000E+00 0. -1.
     999901    1    3    3    0    0 -0.11548178306E+00  0.31154198375E-01  0.14135136844E-01  0.88820404660E+00  0.88000000000E+00 0.  1.
        -11    1    4    4    0    0  0.67215389533E-01 -0.15557851327E-01  0.82284750029E-02  0.69483265970E-01  0.51100000000E-03 0. -1.
         11    1    4    4    0    0  0.54690868185E-01 -0.30224762747E-01 -0.50639482097E-02  0.62693955358E-01  0.51100000000E-03 0.  1.
</event>
<event>
 8    1  0.1091347E+005  0.1043930E+01  0.7957747E-01            NaN
         13   -1    0    0    0    0  0.00000000000E+00  0.00000000000E+00  0.74505805969E-08  0.10566000000E+00  0.10566000000E+00 0. -1.
     999900   -1    0    0    0    0 -0.00000000000E+00 -0.00000000000E+00 -0.74505805969E-08  0.93827000000E+00  0.93827000000E+00 0.  1.
     999902    2    1    2    0    0  0.15350763224E-01  0.15239900494E-01 -0.10772040307E-01  0.10197652043E+01  0.10194788544E+01 0.  0.
     999903    2    3    3    0    0  0.42236634960E-01  0.12466575716E+00 -0.41984654053E-02  0.13255605191E+00  0.15099518036E-01 0.  0.
         14    1    1    2    0    0 -0.15350763224E-01 -0.15239900494E-01  0.10772040307E-01  0.24164795696E-01  0.00000000000E+00 0. -1.
     999901    1    3    3    0    0 -0.26885871736E-01 -0.10942585667E+00 -0.65735749021E-02  0.88720915239E+00  0.88000000000E+00 0.  1.
        -11    1    4    4    0    0  0.14824750144E-01  0.31324971427E-01 -0.64078928822E-02  0.35246975245E-01  0.51100000000E-03 0.  1.
         11    1    4    4    0    0  0.27411884816E-01  0.93340785733E-01  0.22094274769E-02  0.97309076664E-01  0.51100000000E-03 0. -1.
</event>
<event>
 8    1  0.1091347E+005  0.1043930E+01  0.7957747E-01            NaN
         13   -1    0    0    0    0  0.00000000000E+00  0.00000000000E+00  0.74505805969E-08  0.10566000000E+00  0.10566000000E+00 0.  1.
     999900   -1    0    0    0    0 -0.00000000000E+00 -0.00000000000E+00 -0.74505805969E-08  0.93827000000E+00  0.93827000000E+00 0. -1.
     999902    2    1    2    0    0 -0.20105168282E-01  0.57039503125E-02  0.10487979402E-01  0.10205473023E+01  0.10202793959E+01 0.  0.
     999903    2    3    3    0    0 -0.20579598032E-01 -0.12673817676E+00 -0.10635106345E-01  0.13038589733E+00  0.20032259785E-01 0.  0.
         14    1    1    2    0    0  0.20105168282E-01 -0.57039503125E-02 -0.10487979402E-01  0.23382697721E-01  0.00000000000E+00 0. -1.
     999901    1    3    3    0    0  0.47442975040E-03  0.13244212707E+00  0.21123085746E-01  0.89016140495E+00  0.88000000000E+00 0.  1.
        -11    1    4    4    0    0  0.69523631905E-03 -0.32055727291E-01 -0.90831484202E-02  0.33328932055E-01  0.51100000000E-03 0.  1.
         11    1    4    4    0    0 -0.21274834351E-01 -0.94682449469E-01 -0.15519579244E-02  0.97056965276E-01  0.51100000000E-03 0. -1.
</event>
<event>
 8    1  0.1091347E+005  0.1043930E+01  0.7957747E-01            NaN
         13   -1    0    0    0    0  0.00000000000E+00  0.00000000000E+00  0.74505805969E-08  0.10566000000E+00  0.10566000000E+00 0. -1.
     999900   -1    0    0    0    0 -0.00000000000E+00 -0.00000000000E+00 -0.74505805969E-08  0.93827000000E+00  0.93827000000E+00 0.  1.
     999902    2    1    2    0    0  0.80431152521E-02  0.28045871792E-01  0.23611309281E-01  0.10063965942E+01  0.10056964493E+01 0.  0.
     999903    2    3    3    0    0 -0.87247246917E-01  0.39861447480E-01 -0.63809373762E-01  0.11686737218E+00  0.19629809206E-01 0.  0.
         14    1    1    2    0    0 -0.80431152521E-02 -0.28045871792E-01 -0.23611309281E-01  0.37533405834E-01  0.00000000000E+00 0.  1.
     999901    1    3    3    0    0  0.95290362169E-01 -0.11815575687E-01  0.87420683044E-01  0.88952922199E+00  0.88000000000E+00 0. -1.
        -11    1    4    4    0    0 -0.79466091217E-01  0.39827711560E-01 -0.63157134997E-01  0.10904215278E+00  0.51100000000E-03 0. -1.
         11    1    4    4    0    0 -0.77811556995E-02  0.33735919363E-04 -0.65223876526E-03  0.78252193923E-02  0.51100000000E-03 0.  1.
</event>
<event>
 8    1  0.1091347E+005  0.1043930E+01  0.7957747E-01            NaN
         13   -1    0    0    0    0  0.00000000000E+00  0.00000000000E+00  0.74505805969E-08  0.10566000000E+00  0.10566000000E+00 0. -1.
     999900   -1    0    0    0    0 -0.00000000000E+00 -0.00000000000E+00 -0.74505805969E-08  0.93827000000E+00  0.93827000000E+00 0. -1.
     999902    2    1    2    0    0 -0.21458125488E-01  0.94900241605E-02 -0.27458902827E-02  0.10203068837E+01  0.10200333747E+01 0.  0.
     999903    2    3    3    0    0 -0.39134917190E-01  0.11942675161E+00 -0.37537181715E-01  0.13260818094E+00  0.19534556524E-01 0.  0.
         14    1    1    2    0    0  0.21458125488E-01 -0.94900241605E-02  0.27458902827E-02  0.23623116253E-01  0.00000000000E+00 0. -1.
     999901    1    3    3    0    0  0.17676791702E-01 -0.10993672745E+00  0.34791291432E-01  0.88769870281E+00  0.88000000000E+00 0.  1.
        -11    1    4    4    0    0 -0.37708089479E-01  0.98137640464E-01 -0.25810889026E-01  0.10825599106E+00  0.51100000000E-03 0.  1.
         11    1    4    4    0    0 -0.14268277104E-02  0.21289111142E-01 -0.11726292689E-01  0.24352189876E-01  0.51100000000E-03 0. -1.
</event>
<event>
 8    1  0.1091347E+005  0.1043930E+01  0.7957747E-01            NaN
         13   -1    0    0    0    0  0.00000000000E+00  0.00000000000E+00  0.74505805969E-08  0.10566000000E+00  0.10566000000E+00 0.  1.
     999900   -1    0    0    0    0 -0.00000000000E+00 -0.00000000000E+00 -0.74505805969E-08  0.93827000000E+00  0.93827000000E+00 0. -1.
     999902    2    1    2    0    0 -0.17973762038E-01  0.15408693672E-01 -0.13991223852E-02  0.10202141507E+01  0.10199384647E+01 0.  0.
     999903    2    3    3    0    0  0.10128641045E+00  0.28287459507E-01 -0.72305128610E-01  0.12925033943E+00  0.20457304644E-01 0.  0.
         14    1    1    2    0    0  0.17973762038E-01 -0.15408693672E-01  0.13991223852E-02  0.23715849256E-01  0.00000000000E+00 0.  1.
     999901    1    3    3    0    0 -0.11926017248E+00 -0.12878765835E-01  0.70906006225E-01  0.89096381131E+00  0.88000000000E+00 0.  1.
        -11    1    4    4    0    0  0.36409933794E-01  0.16196565210E-01 -0.37114127497E-01  0.54458530868E-01  0.51100000000E-03 0.  1.
         11    1    4    4    0    0  0.64876476653E-01  0.12090894297E-01 -0.35191001113E-01  0.74791808563E-01  0.51100000000E-03 0. -1.
</event>
<event>
 8    1  0.1091347E+005  0.1043930E+01  0.7957747E-01            NaN
         13   -1    0    0    0    0  0.00000000000E+00  0.00000000000E+00  0.74505805969E-08  0.10566000000E+00  0.10566000000E+00 0.  1.
     999900   -1    0    0    0    0 -0.00000000000E+00 -0.00000000000E+00 -0.74505805969E-08  0.93827000000E+00  0.93827000000E+00 0.  1.
     999902    2    1    2    0    0  0.11977528204E-01 -0.22153308464E-01 -0.11808987048E-03  0.10187457946E+01  0.10184344602E+01 0.  0.
     999903    2    3    3    0    0 -0.47046773282E-01 -0.12055140718E+00  0.12040733737E-01  0.13121332137E+00  0.18053137894E-01 0.  0.
         14    1    1    2    0    0 -0.11977528204E-01  0.22153308464E-01  0.11808987048E-03  0.25184205427E-01  0.00000000000E+00 0.  1.
     999901    1    3    3    0    0  0.59024301486E-01  0.98398098712E-01 -0.12158823607E-01  0.88753247320E+00  0.88000000000E+00 0.  1.
        -11    1    4    4    0    0 -0.87486073147E-02 -0.45435999997E-01  0.22229125312E-02  0.46326781528E-01  0.51100000000E-03 0.  1.
         11    1    4    4    0    0 -0.38298165968E-01 -0.75115407180E-01  0.98178212057E-02  0.84886539843E-01  0.51100000000E-03 0. -1.
</event>
<event>
 8    1  0.1091347E+005  0.1043930E+01  0.7957747E-01            NaN
         13   -1    0    0    0    0  0.00000000000E+00  0.00000000000E+00  0.74505805969E-08  0.10566000000E+00  0.10566000000E+00 0. -1.
     999900   -1    0    0    0    0 -0.00000000000E+00 -0.00000000000E+00 -0.74505805969E-08  0.93827000000E+00  0.93827000000E+00 0. -1.
     999902    2    1    2    0    0 -0.12655976649E-01  0.30256616576E-02  0.19642398328E-01  0.10203683323E+01  0.10200962608E+01 0.  0.
     999903    2    3    3    0    0  0.10201464669E+00 -0.23202582319E-01 -0.70918888565E-01  0.12793423426E+00  0.19807361592E-01 0.  0.
         14    1    1    2    0    0  0.12655976649E-01 -0.30256616576E-02 -0.19642398328E-01  0.23561667714E-01  0.00000000000E+00 0.  1.
     999901    1    3    3    0    0 -0.11467062334E+00  0.26228243977E-01  0.90561286893E-01  0.89243409803E+00  0.88000000000E+00 0.  1.
        -11    1    4    4    0    0  0.59017857281E-01 -0.15691346650E-01 -0.29747256946E-01  0.67930009971E-01  0.51100000000E-03 0. -1.
         11    1    4    4    0    0  0.42996789413E-01 -0.75112356693E-02 -0.41171631619E-01  0.60004224287E-01  0.51100000000E-03 0.  1.
</event>
<event>
 8    1  0.1091347E+005  0.1043930E+01  0.7957747E-01            NaN
         13   -1    0    0    0    0  0.00000000000E+00  0.00000000000E+00  0.74505805969E-08  0.10566000000E+00  0.10566000000E+00 0. -1.
     999900   -1    0    0    0    0 -0.00000000000E+00 -0.00000000000E+00 -0.74505805969E-08  0.93827000000E+00  0.93827000000E+00 0. -1.
     999902    2    1    2    0    0  0.20008435668E-01 -0.15266134051E-01 -0.84407019616E-02  0.10173849855E+01  0.10170386280E+01 0.  0.
     999903    2    3    3    0    0 -0.17985179543E-01  0.10633449601E+00 -0.63393797258E-01  0.12651458485E+00  0.18885839213E-01 0.  0.
         14    1    1    2    0    0 -0.20008435668E-01  0.15266134051E-01  0.84407019616E-02  0.26545014529E-01  0.00000000000E+00 0.  1.
     999901    1    3    3    0    0  0.37993615211E-01 -0.12160063006E+00  0.54953095297E-01  0.89087040063E+00  0.88000000000E+00 0.  1.
        -11    1    4    4    0    0 -0.13118919879E-02  0.63533361405E-01 -0.36872499469E-01  0.73471432612E-01  0.51100000000E-03 0.  1.
         11    1    4    4    0    0 -0.16673287555E-01  0.42801134606E-01 -0.26521297790E-01  0.53043152234E-01  0.51100000000E-03 0. -1.
</event>
<event>
 8    1  0.1091347E+005  0.1043930E+01  0.7957747E-01            NaN
         13   -1    0    0    0    0  0.00000000000E+00  0.00000000000E+00  0.74505805969E-08  0.10566000000E+00  0.10566000000E+00 0. -1.
     999900   -1    0    0    0    0 -0.00000000000E+00 -0.00000000000E+00 -0.74505805969E-08  0.93827000000E+00  0.93827000000E+00 0. -1.
     999902    2    1    2    0    0  0.10170425545E-01 -0.16326595019E-01 -0.13165334439E-01  0.10206207467E+01  0.10203545400E+01 0.  0.
     999903    2    3    3    0    0 -0.51421992021E-01  0.11568099712E+00 -0.10619734577E-01  0.12864198549E+00  0.20240239876E-01 0.  0.
         14    1    1    2    0    0 -0.10170425545E-01  0.16326595019E-01  0.13165334439E-01  0.23309253347E-01  0.00000000000E+00 0. -1.
     999901    1    3    3    0    0  0.61592417567E-01 -0.13200759214E+00 -0.25455998627E-02  0.89197876116E+00  0.88000000000E+00 0. -1.
        -11    1    4    4    0    0 -0.44880208152E-01  0.87175182420E-01 -0.17175858045E-02  0.98066083514E-01  0.51100000000E-03 0.  1.
         11    1    4    4    0    0 -0.65417838695E-02  0.28505814702E-01 -0.89021487722E-02  0.30575901978E-01  0.51100000000E-03 0. -1.
</event>
<event>
 8    1  0.1091347E+005  0.1043930E+01  0.7957747E-01            NaN
         13   -1    0    0    0    0  0.00000000000E+00  0.00000000000E+00  0.74505805969E-08  0.10566000000E+00  0.10566000000E+00 0. -1.
     999900   -1    0    0    0    0 -0.00000000000E+00 -0.00000000000E+00 -0.74505805969E-08  0.93827000000E+00  0.93827000000E+00 0. -1.
     999902    2    1    2    0    0  0.11897497829E-01 -0.13167296221E-01 -0.15608129473E-01  0.10202965100E+01  0.10200227578E+01 0.  0.
     999903    2    3    3    0    0  0.12486982090E+00 -0.34516384880E-01 -0.20976548705E-01  0.13280152449E+00  0.20307050875E-01 0.  0.
         14    1    1    2    0    0 -0.11897497829E-01  0.13167296221E-01  0.15608129473E-01  0.23633490009E-01  0.00000000000E+00 0. -1.
     999901    1    3    3    0    0 -0.11297232307E+00  0.21349088658E-01  0.53684192327E-02  0.88749498550E+00  0.88000000000E+00 0. -1.
        -11    1    4    4    0    0  0.68277437562E-01 -0.91548430189E-02 -0.71407877849E-02  0.69259451354E-01  0.51100000000E-03 0.  1.
         11    1    4    4    0    0  0.56592383335E-01 -0.25361541861E-01 -0.13835760920E-01  0.63542073135E-01  0.51100000000E-03 0. -1.
</event>
<event>
 8    1  0.1091347E+005  0.1043930E+01  0.7957747E-01            NaN
         13   -1    0    0    0    0  0.00000000000E+00  0.00000000000E+00  0.74505805969E-08  0.10566000000E+00  0.10566000000E+00 0. -1.
     999900   -1    0    0    0    0 -0.00000000000E+00 -0.00000000000E+00 -0.74505805969E-08  0.93827000000E+00  0.93827000000E+00 0.  1.
     999902    2    1    2    0    0 -0.11889462080E-01  0.16749945795E-01 -0.11495803546E-01  0.10203912343E+01  0.10201196976E+01 0.  0.
     999903    2    3    3    0    0 -0.12407994560E+00  0.15412497616E-01  0.37104956592E-01  0.13193722463E+00  0.19931770054E-01 0.  0.
         14    1    1    2    0    0  0.11889462080E-01 -0.16749945795E-01  0.11495803546E-01  0.23538765725E-01  0.00000000000E+00 0. -1.
     999901    1    3    3    0    0  0.11219048352E+00  0.13374481784E-02 -0.48600760139E-01  0.88845400964E+00  0.88000000000E+00 0.  1.
        -11    1    4    4    0    0 -0.89066232660E-01  0.16187318714E-01  0.18962394077E-01  0.92491386613E-01  0.51100000000E-03 0.  1.
         11    1    4    4    0    0 -0.35013712940E-01 -0.77482109715E-03  0.18142562515E-01  0.39445838022E-01  0.51100000000E-03 0. -1.
</event>
<event>
 8    1  0.1091347E+005  0.1043930E+01  0.7957747E-01            NaN
         13   -1    0    0    0    0  0.00000000000E+00  0.00000000000E+00  0.74505805969E-08  0.10566000000E+00  0.10566000000E+00 0. -1.
     999900   -1    0    0    0    0 -0.00000000000E+00 -0.00000000000E+00 -0.74505805969E-08  0.93827000000E+00  0.93827000000E+00 0.  1.
     999902    2    1    2    0    0  0.25909106750E-01  0.46815068329E-05 -0.47564452024E-02  0.10175879119E+01  0.10172468987E+01 0.  0.
     999903    2    3    3    0    0  0.38381964147E-01 -0.11174822998E+00  0.47582903630E-01  0.12889016079E+00  0.19690067426E-01 0.  0.
         14    1    1    2    0    0 -0.25909106750E-01 -0.46815068329E-05  0.47564452024E-02  0.26342088100E-01  0.00000000000E+00 0.  1.
     999901    1    3    3    0    0 -0.12472857397E-01  0.11175291148E+00 -0.52339348832E-01  0.88869775111E+00  0.88000000000E+00 0.  1.
        -11    1    4    4    0    0  0.28871545826E-01 -0.62868068072E-01  0.20261857072E-01  0.72088585188E-01  0.51100000000E-03 0.  1.
         11    1    4    4    0    0  0.95104183206E-02 -0.48880161905E-01  0.27321046558E-01  0.56801575599E-01  0.51100000000E-03 0. -1.
</event>
<event>
 8    1  0.1091347E+005  0.1043930E+01  0.7957747E-01            NaN
         13   -1    0    0    0    0  0.00000000000E+00  0.00000000000E+00  0.74505805969E-08  0.10566000000E+00  0.10566000000E+00 0. -1.
     999900   -1    0    0    0    0 -0.00000000000E+00 -0.00000000000E+00 -0.74505805969E-08  0.93827000000E+00  0.93827000000E+00 0.  1.
     999902    2    1    2    0    0 -0.16155091107E-01 -0.64495663262E-02 -0.13609691860E-01  0.10218436335E+01  0.10216049156E+01 0.  0.
     999903    2    3    3    0    0 -0.10090636135E+00  0.83333368903E-01 -0.15601171900E-01  0.13322238722E+00  0.19449004086E-01 0.  0.
         14    1    1    2    0    0  0.16155091107E-01  0.64495663262E-02  0.13609691860E-01  0.22086366541E-01  0.00000000000E+00 0. -1.
     999901    1    3    3    0    0  0.84751270242E-01 -0.89782935229E-01  0.19914800402E-02  0.88862124623E+00  0.88000000000E+00 0.  1.
        -11    1    4    4    0    0 -0.45776741080E-01  0.35379628116E-01  0.26159690038E-02  0.57916599730E-01  0.51100000000E-03 0.  1.
         11    1    4    4    0    0 -0.55129620268E-01  0.47953740787E-01 -0.18217140904E-01  0.75305787495E-01  0.51100000000E-03 0. -1.
</event>
<event>
 8    1  0.1091347E+005  0.1043930E+01  0.7957747E-01            NaN
         13   -1    0    0    0    0  0.00000000000E+00  0.00000000000E+00  0.74505805969E-08  0.10566000000E+00  0.10566000000E+00 0.  1.
     999900   -1    0    0    0    0 -0.00000000000E+00 -0.00000000000E+00 -0.74505805969E-08  0.93827000000E+00  0.93827000000E+00 0.  1.
     999902    2    1    2    0    0 -0.13140202075E-01 -0.16996610101E-01 -0.11124723149E-01  0.10197368371E+01  0.10194498064E+01 0.  0.
     999903    2    3    3    0    0 -0.48709076065E-01 -0.78226758133E-01  0.90990413039E-01  0.13100640730E+00  0.19784431009E-01 0.  0.
         14    1    1    2    0    0  0.13140202075E-01  0.16996610101E-01  0.11124723149E-01  0.24193162891E-01  0.00000000000E+00 0.  1.
     999901    1    3    3    0    0  0.35568873990E-01  0.61230148032E-01 -0.10211513619E+00  0.88873042981E+00  0.88000000000E+00 0.  1.
        -11    1    4    4    0    0 -0.15672570353E-01 -0.17382662525E-01  0.34270550173E-01  0.41503230574E-01  0.51100000000E-03 0.  1.
         11    1    4    4    0    0 -0.33036505712E-01 -0.60844095609E-01  0.56719862866E-01  0.89503176729E-01  0.51100000000E-03 0. -1.
</event>
<event>
 8    1  0.1091347E+005  0.1043930E+01  0.7957747E-01            NaN
         13   -1    0    0    0    0  0.00000000000E+00  0.00000000000E+00  0.74505805969E-08  0.10566000000E+00  0.10566000000E+00 0. -1.
     999900   -1    0    0    0    0 -0.00000000000E+00 -0.00000000000E+00 -0.74505805969E-08  0.93827000000E+00  0.93827000000E+00 0.  1.
     999902    2    1    2    0    0  0.44215900999E-02 -0.48958908222E-02 -0.24024772286E-01  0.10190159500E+01  0.10187113411E+01 0.  0.
     999903    2    3    3    0    0 -0.77092801931E-01 -0.68611940321E-01 -0.78489564740E-01  0.13128246254E+00  0.20580931306E-01 0.  0.
         14    1    1    2    0    0 -0.44215900999E-02  0.48958908222E-02  0.24024772286E-01  0.24914050039E-01  0.00000000000E+00 0. -1.
     999901    1    3    3    0    0  0.81514392031E-01  0.63716049499E-01  0.54464792454E-01  0.88773348742E+00  0.88000000000E+00 0. -1.
        -11    1    4    4    0    0 -0.19381224852E-01 -0.83177861779E-02 -0.10160125849E-01  0.23415950161E-01  0.51100000000E-03 0.  1.
         11    1    4    4    0    0 -0.57711577078E-01 -0.60294154143E-01 -0.68329438890E-01  0.10786651238E+00  0.51100000000E-03 0. -1.
</event>
<event>
 8    1  0.1091347E+005  0.1043930E+01  0.7957747E-01            NaN
         13   -1    0    0    0    0  0.00000000000E+00  0.00000000000E+00  0.74505805969E-08  0.10566000000E+00  0.10566000000E+00 0. -1.
     999900   -1    0    0    0    0 -0.00000000000E+00 -0.00000000000E+00 -0.74505805969E-08  0.93827000000E+00  0.93827000000E+00 0.  1.
     999902    2    1    2    0    0  0.19619191513E-02  0.22249388445E-01 -0.75467702720E-02  0.10203537799E+01  0.10200813683E+01 0.  0.
     999903    2    3    3    0    0  0.43324493313E-01 -0.78128427276E-01 -0.91767017839E-01  0.12969131940E+00  0.20435016411E-01 0.  0.
         14    1    1    2    0    0 -0.19619191513E-02 -0.22249388445E-01  0.75467702720E-02  0.23576220106E-01  0.00000000000E+00 0. -1.
     999901    1    3    3    0    0 -0.41362574162E-01  0.10037781572E+00  0.84220247567E-01  0.89066246049E+00  0.88000000000E+00 0. -1.
        -11    1    4    4    0    0  0.91087340722E-02 -0.31804121469E-01 -0.24700801150E-01  0.41289973084E-01  0.51100000000E-03 0. -1.
         11    1    4    4    0    0  0.34215759241E-01 -0.46324305807E-01 -0.67066216688E-01  0.88401346318E-01  0.51100000000E-03 0.  1.
</event>
<event>
 8    1  0.1091347E+005  0.1043930E+01  0.7957747E-01            NaN
         13   -1    0    0    0    0  0.00000000000E+00  0.00000000000E+00  0.74505805969E-08  0.10566000000E+00  0.10566000000E+00 0.  1.
     999900   -1    0    0    0    0 -0.00000000000E+00 -0.00000000000E+00 -0.74505805969E-08  0.93827000000E+00  0.93827000000E+00 0.  1.
     999902    2    1    2    0    0  0.16576861878E-01 -0.10954898804E-01  0.10005968567E-01  0.10216831673E+01  0.10214409297E+01 0.  0.
     999903    2    3    3    0    0  0.52456194901E-01 -0.34877735829E-01  0.11673350702E+00  0.13418646527E+00  0.20277745452E-01 0.  0.
         14    1    1    2    0    0 -0.16576861878E-01  0.10954898804E-01 -0.10005968567E-01  0.22246832685E-01  0.00000000000E+00 0. -1.
     999901    1    3    3    0    0 -0.35879333023E-01  0.23922837025E-01 -0.10672753846E+00  0.88749670204E+00  0.88000000000E+00 0.  1.
        -11    1    4    4    0    0  0.90073308504E-02 -0.11400759963E-01  0.13930865960E-01  0.20135527909E-01  0.51100000000E-03 0. -1.
         11    1    4    4    0    0  0.43448864051E-01 -0.23476975866E-01  0.10280264106E+00  0.11405093736E+00  0.51100000000E-03 0.  1.
</event>
<event>
 8    1  0.1091347E+005  0.1043930E+01  0.7957747E-01            NaN
         13   -1    0    0    0    0  0.00000000000E+00  0.00000000000E+00  0.74505805969E-08  0.10566000000E+00  0.10566000000E+00 0.  1.
     999900   -1    0    0    0    0 -0.00000000000E+00 -0.00000000000E+00 -0.74505805969E-08  0.93827000000E+00  0.93827000000E+00 0.  1.
     999902    2    1    2    0    0  0.11801473217E-02 -0.15236019331E-01 -0.17798516459E-01  0.10204711803E+01  0.10202015064E+01 0.  0.
     999903    2    3    3    0    0  0.12465132750E+00 -0.36361532106E-01 -0.90243293523E-02  0.13155700787E+00  0.19123109976E-01 0.  0.
         14    1    1    2    0    0 -0.11801473217E-02  0.15236019331E-01  0.17798516459E-01  0.23458819683E-01  0.00000000000E+00 0.  1.
     999901    1    3    3    0    0 -0.12347118017E+00  0.21125512775E-01 -0.87741871070E-02  0.88891417245E+00  0.88000000000E+00 0.  1.
        -11    1    4    4    0    0  0.10142015942E+00 -0.36823006000E-01 -0.94450544275E-02  0.10831183076E+00  0.51100000000E-03 0.  1.
         11    1    4    4    0    0  0.23231168076E-01  0.46147389416E-03  0.42072507519E-03  0.23245177111E-01  0.51100000000E-03 0. -1.
</event>
<event>
 8    1  0.1091347E+005  0.1043930E+01  0.7957747E-01            NaN
         13   -1    0    0    0    0  0.00000000000E+00  0.00000000000E+00  0.74505805969E-08  0.10566000000E+00  0.10566000000E+00 0. -1.
     999900   -1    0    0    0    0 -0.00000000000E+00 -0.00000000000E+00 -0.74505805969E-08  0.93827000000E+00  0.93827000000E+00 0.  1.
     999902    2    1    2    0    0 -0.14078534623E-01 -0.15918959953E-01  0.15752541122E-01  0.10174770044E+01  0.10171330756E+01 0.  0.
     999903    2    3    3    0    0 -0.67860750807E-01  0.97643438242E-01  0.42797994037E-01  0.12813994707E+00  0.21186203287E-01 0.  0.
         14    1    1    2    0    0  0.14078534623E-01  0.15918959953E-01 -0.15752541122E-01  0.26452995575E-01  0.00000000000E+00 0.  1.
     999901    1    3    3    0    0  0.53782216184E-01 -0.11356239819E+00 -0.27045452916E-01  0.88933705735E+00  0.88000000000E+00 0. -1.
        -11    1    4    4    0    0 -0.58442112629E-01  0.87673449322E-01  0.30453801217E-01  0.10968048766E+00  0.51100000000E-03 0. -1.
         11    1    4    4    0    0 -0.94186381775E-02  0.99699889196E-02  0.12344192820E-01  0.18459459406E-01  0.51100000000E-03 0.  1.
</event>
<event>
 8    1  0.1091347E+005  0.1043930E+01  0.7957747E-01            NaN
         13   -1    0    0    0    0  0.00000000000E+00  0.00000000000E+00  0.74505805969E-08  0.10566000000E+00  0.10566000000E+00 0. -1.
     999900   -1    0    0    0    0 -0.00000000000E+00 -0.00000000000E+00 -0.74505805969E-08  0.93827000000E+00  0.93827000000E+00 0.  1.
     999902    2    1    2    0    0 -0.11880200372E-01  0.12059252905E-01  0.14611544992E-01  0.10215679342E+01  0.10213231526E+01 0.  0.
     999903    2    3    3    0    0 -0.22565514468E-01 -0.10823722269E-01 -0.12583138752E+00  0.13007366958E+00  0.21430492895E-01 0.  0.
         14    1    1    2    0    0  0.11880200372E-01 -0.12059252905E-01 -0.14611544992E-01  0.22362065838E-01  0.00000000000E+00 0.  1.
     999901    1    3    3    0    0  0.10685314096E-01  0.22882975174E-01  0.14044293251E+00  0.89149426458E+00  0.88000000000E+00 0. -1.
        -11    1    4    4    0    0 -0.24363593608E-01 -0.11077371973E-01 -0.83192103247E-01  0.87392677193E-01  0.51100000000E-03 0. -1.
         11    1    4    4    0    0  0.17980791407E-02  0.25364970323E-03 -0.42639284273E-01  0.42680992386E-01  0.51100000000E-03 0.  1.
</event>
<event>
 8    1  0.1091347E+005  0.1043930E+01  0.7957747E-01            NaN
         13   -1    0    0    0    0  0.00000000000E+00  0.00000000000E+00  0.74505805969E-08  0.10566000000E+00  0.10566000000E+00 0. -1.
     999900   -1    0    0    0    0 -0.00000000000E+00 -0.00000000000E+00 -0.74505805969E-08  0.93827000000E+00  0.93827000000E+00 0.  1.
     999902    2    1    2    0    0  0.82502788526E-02 -0.76950439611E-02 -0.20620935915E-01  0.10204246006E+01  0.10201538422E+01 0.  0.
     999903    2    3    3    0    0  0.95594825179E-01  0.15793912693E-02  0.86448155931E-01  0.12959415919E+00  0.13434930390E-01 0.  0.
         14    1    1    2    0    0 -0.82502788526E-02  0.76950439611E-02  0.20620935915E-01  0.23505399395E-01  0.00000000000E+00 0. -1.
     999901    1    3    3    0    0 -0.87344546326E-01 -0.92744352304E-02 -0.10706909185E+00  0.89083044141E+00  0.88000000000E+00 0.  1.
        -11    1    4    4    0    0  0.29053472892E-01 -0.39118985335E-02  0.32345383674E-01  0.43656525323E-01  0.51100000000E-03 0. -1.
         11    1    4    4    0    0  0.66541352287E-01  0.54912898028E-02  0.54102772257E-01  0.85937633868E-01  0.51100000000E-03 0.  1.
</event>
<event>
 8    1  0.1091347E+005  0.1043930E+01  0.7957747E-01            NaN
         13   -1    0    0    0    0  0.00000000000E+00  0.00000000000E+00  0.74505805969E-08  0.10566000000E+00  0.10566000000E+00 0.  1.
     999900   -1    0    0    0    0 -0.00000000000E+00 -0.00000000000E+00 -0.74505805969E-08  0.93827000000E+00  0.93827000000E+00 0. -1.
     999902    2    1    2    0    0  0.74627472486E-02  0.18926661799E-01  0.13586779215E-01  0.10194655014E+01  0.10191719172E+01 0.  0.
     999903    2    3    3    0    0 -0.87805778311E-01  0.39292955727E-01 -0.82976740644E-01  0.12883909752E+00  0.21461185575E-01 0.  0.
         14    1    1    2    0    0 -0.74627472486E-02 -0.18926661799E-01 -0.13586779215E-01  0.24464498621E-01  0.00000000000E+00 0. -1.
     999901    1    3    3    0    0  0.95268525559E-01 -0.20366293929E-01  0.96563519859E-01  0.89062640386E+00  0.88000000000E+00 0.  1.
        -11    1    4    4    0    0 -0.43395331076E-01  0.28299631034E-01 -0.34886337649E-01  0.62460720068E-01  0.51100000000E-03 0.  1.
         11    1    4    4    0    0 -0.44410447235E-01  0.10993324693E-01 -0.48090402994E-01  0.66378377448E-01  0.51100000000E-03 0. -1.
</event>
<event>
 8    1  0.1091347E+005  0.1043930E+01  0.7957747E-01            NaN
         13   -1    0    0    0    0  0.00000000000E+00  0.00000000000E+00  0.74505805969E-08  0.10566000000E+00  0.10566000000E+00 0.  1.
     999900   -1    0    0    0    0 -0.00000000000E+00 -0.00000000000E+00 -0.74505805969E-08  0.93827000000E+00  0.93827000000E+00 0. -1.
     999902    2    1    2    0    0  0.10231512126E-01 -0.42850346433E-02 -0.21517543870E-01  0.10197215292E+01  0.10194341308E+01 0.  0.
     999903    2    3    3    0    0  0.11995070770E+00 -0.45329331056E-01  0.18673409875E-01  0.13104934620E+00  0.19552860982E-01 0.  0.
         14    1    1    2    0    0 -0.10231512126E-01  0.42850346433E-02  0.21517543870E-01  0.24208470759E-01  0.00000000000E+00 0.  1.
     999901    1    3    3    0    0 -0.10971919557E+00  0.41044296412E-01 -0.40190953746E-01  0.88867218304E+00  0.88000000000E+00 0. -1.
        -11    1    4    4    0    0  0.50735334102E-01 -0.19837728769E-01  0.17697914783E-01  0.57280772671E-01  0.51100000000E-03 0. -1.
         11    1    4    4    0    0  0.69215373595E-01 -0.25491602286E-01  0.97549509208E-03  0.73768573530E-01  0.51100000000E-03 0.  1.
</event>
<event>
 8    1  0.1091347E+005  0.1043930E+01  0.7957747E-01            NaN
         13   -1    0    0    0    0  0.00000000000E+00  0.00000000000E+00  0.74505805969E-08  0.10566000000E+00  0.10566000000E+00 0. -1.
     999900   -1    0    0    0    0 -0.00000000000E+00 -0.00000000000E+00 -0.74505805969E-08  0.93827000000E+00  0.93827000000E+00 0.  1.
     999902    2    1    2    0    0 -0.89925709734E-02 -0.22506382750E-02  0.20797840833E-01  0.10211598026E+01  0.10209059019E+01 0.  0.
     999903    2    3    3    0    0 -0.39557344983E-01  0.19614666720E-02  0.12676699282E+00  0.13426555390E+00  0.19716429727E-01 0.  0.
         14    1    1    2    0    0  0.89925709734E-02  0.22506382750E-02 -0.20797840833E-01  0.22770197378E-01  0.00000000000E+00 0.  1.
     999901    1    3    3    0    0  0.30564774010E-01 -0.42121049469E-02 -0.10596915199E+00  0.88689424872E+00  0.88000000000E+00 0.  1.
        -11    1    4    4    0    0 -0.22022932268E-01 -0.84154671450E-02  0.75450881612E-01  0.79050150474E-01  0.51100000000E-03 0. -1.
         11    1    4    4    0    0 -0.17534412716E-01  0.10376933817E-01  0.51316111212E-01  0.55215403427E-01  0.51100000000E-03 0.  1.
</event>
<event>
 8    1  0.1091347E+005  0.1043930E+01  0.7957747E-01            NaN
         13   -1    0    0    0    0  0.00000000000E+00  0.00000000000E+00  0.74505805969E-08  0.10566000000E+00  0.10566000000E+00 0.  1.
     999900   -1    0    0    0    0 -0.00000000000E+00 -0.00000000000E+00 -0.74505805969E-08  0.93827000000E+00  0.93827000000E+00 0. -1.
     999902    2    1    2    0    0 -0.68469672437E-02 -0.19854896410E-01 -0.11248316612E-01  0.10201051705E+01  0.10198269150E+01 0.  0.
     999903    2    3    3    0    0 -0.77676917782E-01  0.65079145884E-01  0.74237322573E-01  0.12907292200E+00  0.29658731376E-01 0.  0.
         14    1    1    2    0    0  0.68469672437E-02  0.19854896410E-01  0.11248316612E-01  0.23824829454E-01  0.00000000000E+00 0.  1.
     999901    1    3    3    0    0  0.70829950539E-01 -0.84934042295E-01 -0.85485639185E-01  0.89103224854E+00  0.88000000000E+00 0. -1.
        -11    1    4    4    0    0 -0.47632566638E-01  0.25199635245E-01  0.26747196343E-01  0.60162751385E-01  0.51100000000E-03 0. -1.
         11    1    4    4    0    0 -0.30044351145E-01  0.39879510639E-01  0.47490126231E-01  0.68910170620E-01  0.51100000000E-03 0.  1.
</event>
<event>
 8    1  0.1091347E+005  0.1043930E+01  0.7957747E-01            NaN
         13   -1    0    0    0    0  0.00000000000E+00  0.00000000000E+00  0.74505805969E-08  0.10566000000E+00  0.10566000000E+00 0. -1.
     999900   -1    0    0    0    0 -0.00000000000E+00 -0.00000000000E+00 -0.74505805969E-08  0.93827000000E+00  0.93827000000E+00 0. -1.
     999902    2    1    2    0    0  0.60109447968E-02  0.91375624601E-02  0.20643622488E-01  0.10205679441E+01  0.10203005160E+01 0.  0.
     999903    2    3    3    0    0  0.31079078296E-01 -0.66297636380E-01 -0.10336533011E+00  0.12832520761E+00  0.20534890896E-01 0.  0.
         14    1    1    2    0    0 -0.60109447968E-02 -0.91375624601E-02 -0.20643622488E-01  0.23362055870E-01  0.00000000000E+00 0.  1.
     999901    1    3    3    0    0 -0.25068133499E-01  0.75435198840E-01  0.12400895259E+00  0.89224273652E+00  0.88000000000E+00 0.  1.
        -11    1    4    4    0    0  0.57893308070E-02 -0.33956222312E-01 -0.39637896488E-01  0.52516334067E-01  0.51100000000E-03 0. -1.
         11    1    4    4    0    0  0.25289747489E-01 -0.32341414069E-01 -0.63727433618E-01  0.75808873547E-01  0.51100000000E-03 0.  1.
</event>
<event>
 8    1  0.1091347E+005  0.1043930E+01  0.7957747E-01            NaN
         13   -1    0    0    0    0  0.00000000000E+00  0.00000000000E+00  0.74505805969E-08  0.10566000000E+00  0.10566000000E+00 0.  1.
     999900   -1    0    0    0    0 -0.00000000000E+00 -0.00000000000E+00 -0.74505805969E-08  0.93827000000E+00  0.93827000000E+00 0.  1.
     999902    2    1    2    0    0 -0.16108503390E-01  0.13401621418E-01 -0.11091290515E-01  0.10202212661E+01  0.10199457474E+01 0.  0.
     999903    2    3    3    0    0 -0.13052607117E+00  0.25217154144E-02  0.98308893276E-02  0.13250087668E+00  0.20406411588E-01 0.  0.
         14    1    1    2    0    0  0.16108503390E-01 -0.13401621418E-01  0.11091290515E-01  0.23708733906E-01  0.00000000000E+00 0.  1.
     999901    1    3    3    0    0  0.11441756777E+00  0.10879906004E-01 -0.20922179843E-01  0.88772038941E+00  0.88000000000E+00 0. -1.
        -11    1    4    4    0    0 -0.84534378985E-01  0.84090892677E-02 -0.67504569889E-03  0.84955816872E-01  0.51100000000E-03 0.  1.
         11    1    4    4    0    0 -0.45991692180E-01 -0.58873738533E-02  0.10505935027E-01  0.47545059809E-01  0.51100000000E-03 0. -1.
</event>
<event>
 8    1  0.1091347E+005  0.1043930E+01  0.7957747E-01            NaN
         13   -1    0    0    0    0  0.00000000000E+00  0.00000000000E+00  0.74505805969E-08  0.10566000000E+00  0.10566000000E+00 0. -1.
     999900   -1    0    0    0    0 -0.00000000000E+00 -0.00000000000E+00 -0.74505805969E-08  0.93827000000E+00  0.93827000000E+00 0.  1.
     999902    2    1    2    0    0 -0.74923817255E-02  0.49543799898E-02  0.21547230702E-01  0.10205855185E+01  0.10203184972E+01 0.  0.
     999903    2    3    3    0    0 -0.17060247347E-01  0.12706774326E+00 -0.19524215797E-01  0.13115306955E+00  0.19561933311E-01 0.  0.
         14    1    1    2    0    0  0.74923817255E-02 -0.49543799898E-02 -0.21547230702E-01  0.23344481488E-01  0.00000000000E+00 0.  1.
     999901    1    3    3    0    0  0.95678656217E-02 -0.12211336327E+00  0.41071446499E-01  0.88943244896E+00  0.88000000000E+00 0. -1.
        -11    1    4    4    0    0 -0.17376171089E-01  0.84139442232E-01 -0.59349121216E-02  0.86121201592E-01  0.51100000000E-03 0.  1.
         11    1    4    4    0    0  0.31592374162E-03  0.42928301027E-01 -0.13589303675E-01  0.45031867963E-01  0.51100000000E-03 0. -1.
</event>
<event>
 8    1  0.1091347E+005  0.1043930E+01  0.7957747E-01            NaN
         13   -1    0    0    0    0  0.00000000000E+00  0.00000000000E+00  0.74505805969E-08  0.10566000000E+00  0.10566000000E+00 0.  1.
     999900   -1    0    0    0    0 -0.00000000000E+00 -0.00000000000E+00 -0.74505805969E-08  0.93827000000E+00  0.93827000000E+00 0.  1.
     999902    2    1    2    0    0  0.18060720180E-01  0.21595882005E-01  0.10324684244E-01  0.10139438226E+01  0.10135003229E+01 0.  0.
     999903    2    3    3    0    0  0.10532993830E+00 -0.35162825119E-01  0.57279482834E-01  0.12656441082E+00  0.20169054499E-01 0.  0.
         14    1    1    2    0    0 -0.18060720180E-01 -0.21595882005E-01 -0.10324684244E-01  0.29986177444E-01  0.00000000000E+00 0. -1.
     999901    1    3    3    0    0 -0.87269218119E-01  0.56758707124E-01 -0.46954798590E-01  0.88737941174E+00  0.88000000000E+00 0.  1.
        -11    1    4    4    0    0  0.54616916422E-01 -0.85120258602E-02  0.32668926938E-01  0.64210451268E-01  0.51100000000E-03 0.  1.
         11    1    4    4    0    0  0.50713021878E-01 -0.26650799259E-01  0.24610555895E-01  0.62353959550E-01  0.51100000000E-03 0. -1.
</event>
<event>
 8    1  0.1091347E+005  0.1043930E+01  0.7957747E-01            NaN
         13   -1    0    0    0    0  0.00000000000E+00  0.00000000000E+00  0.74505805969E-08  0.10566000000E+00  0.10566000000E+00 0.  1.
     999900   -1    0    0    0    0 -0.00000000000E+00 -0.00000000000E+00 -0.74505805969E-08  0.93827000000E+00  0.93827000000E+00 0.  1.
     999902    2    1    2    0    0  0.19993142419E-01 -0.51696199298E-03  0.12875364190E-01  0.10201441219E+01  0.10198667861E+01 0.  0.
     999903    2    3    3    0    0 -0.64944945803E-01 -0.10849275666E+00  0.19609907424E-01  0.12945977539E+00  0.19666233531E-01 0.  0.
         14    1    1    2    0    0 -0.19993142419E-01  0.51696199298E-03 -0.12875364190E-01  0.23785878090E-01  0.00000000000E+00 0. -1.
     999901    1    3    3    0    0  0.84938088222E-01  0.10797579467E+00 -0.67345432340E-02  0.89068434652E+00  0.88000000000E+00 0. -1.
        -11    1    4    4    0    0 -0.37979698389E-01 -0.80910392276E-01  0.13088191386E-01  0.90335546396E-01  0.51100000000E-03 0.  1.
         11    1    4    4    0    0 -0.26965247414E-01 -0.27582364385E-01  0.65217160373E-02  0.39124228993E-01  0.51100000000E-03 0. -1.
</event>
<event>
 8    1  0.1091347E+005  0.1043930E+01  0.7957747E-01            NaN
         13   -1    0    0    0    0  0.00000000000E+00  0.00000000000E+00  0.74505805969E-08  0.10566000000E+00  0.10566000000E+00 0.  1.
     999900   -1    0    0    0    0 -0.00000000000E+00 -0.00000000000E+00 -0.74505805969E-08  0.93827000000E+00  0.93827000000E+00 0.  1.
     999902    2    1    2    0    0 -0.17067121823E-01  0.15309513549E-01 -0.13635083724E-02  0.10209620439E+01  0.10207036632E+01 0.  0.
     999903    2    3    3    0    0  0.48039731741E-01  0.94504726097E-01  0.75479827145E-01  0.13168386341E+00  0.20111601066E-01 0.  0.
         14    1    1    2    0    0  0.17067121823E-01 -0.15309513549E-01  0.13635083724E-02  0.22967956102E-01  0.00000000000E+00 0. -1.
     999901    1    3    3    0    0 -0.65106853564E-01 -0.79195212548E-01 -0.76843335517E-01  0.88927818048E+00  0.88000000000E+00 0.  1.
        -11    1    4    4    0    0  0.33331084451E-01  0.82256482247E-01  0.62450603227E-01  0.10852386386E+00  0.51100000000E-03 0.  1.
         11    1    4    4    0    0  0.14708647291E-01  0.12248243850E-01  0.13029223918E-01  0.23159999556E-01  0.51100000000E-03 0. -1.
</event>
<event>
 8    1  0.1091347E+005  0.1043930E+01  0.7957747E-01            NaN
         13   -1    0    0    0    0  0.00000000000E+00  0.00000000000E+00  0.74505805969E-08  0.10566000000E+00  0.10566000000E+00 0.  1.
     999900   -1    0    0    0    0 -0.00000000000E+00 -0.00000000000E+00 -0.74505805969E-08  0.93827000000E+00  0.93827000000E+00 0. -1.
     999902    2    1    2    0    0  0.23331941399E-02  0.14109115443E-01 -0.92137159009E-02  0.10269181367E+01  0.10267772182E+01 0.  0.
     999903    2    3    3    0    0  0.38394241287E-01 -0.69646625781E-01  0.10671435848E+00  0.13464309961E+00  0.20397051761E-01 0.  0.
         14    1    1    2    0    0 -0.23331941399E-02 -0.14109115443E-01  0.92137159009E-02  0.17011863337E-01  0.00000000000E+00 0.  1.
     999901    1    3    3    0    0 -0.36061047147E-01  0.83755741225E-01 -0.11592807438E+00  0.89227503705E+00  0.88000000000E+00 0. -1.
        -11    1    4    4    0    0  0.17474588277E-01 -0.15653231166E-01  0.39304522730E-01  0.45776538854E-01  0.51100000000E-03 0. -1.
         11    1    4    4    0    0  0.20919653011E-01 -0.53993394616E-01  0.67409835753E-01  0.88866560761E-01  0.51100000000E-03 0.  1.
</event>
<event>
 8    1  0.1101877E+005  0.1043930E+01  0.7957747E-01            NaN
         13   -1    0    0    0    0  0.00000000000E+00  0.00000000000E+00  0.74505805969E-08  0.10566000000E+00  0.10566000000E+00 0.  1.
     999900   -1    0    0    0    0 -0.00000000000E+00 -0.00000000000E+00 -0.74505805969E-08  0.93827000000E+00  0.93827000000E+00 0. -1.
     999902    2    1    2    0    0 -0.20960006086E-01 -0.56317171225E-02  0.14023931217E-01  0.10180899392E+01  0.10177619641E+01 0.  0.
     999903    2    3    3    0    0 -0.24042659407E-01 -0.12546585996E-01 -0.12264181674E+00  0.12750875551E+00  0.21954526323E-01 0.  0.
         14    1    1    2    0    0  0.20960006086E-01  0.56317171225E-02 -0.14023931217E-01  0.25840060751E-01  0.00000000000E+00 0. -1.
     999901    1    3    3    0    0  0.30826533208E-02  0.69148688732E-02  0.13666574796E+00  0.89058118374E+00  0.88000000000E+00 0.  1.
        -11    1    4    4    0    0 -0.22784015125E-01 -0.10281382962E-01 -0.62587722235E-01  0.67396604339E-01  0.51100000000E-03 0.  1.
         11    1    4    4    0    0 -0.12586442819E-02 -0.22652030339E-02 -0.60054094509E-01  0.60112151172E-01  0.51100000000E-03 0. -1.
</event>
<event>
 8    1  0.1393374E+005  0.1043930E+01  0.7957747E-01            NaN
         13   -1    0    0    0    0  0.00000000000E+00  0.00000000000E+00  0.74505805969E-08  0.10566000000E+00  0.10566000000E+00 0. -1.
     999900   -1    0    0    0    0 -0.00000000000E+00 -0.00000000000E+00 -0.74505805969E-08  0.93827000000E+00  0.93827000000E+00 0. -1.
     999902    2    1    2    0    0  0.38257911064E-02 -0.59756105872E-02  0.21518615856E-01  0.10212717691E+01  0.10210203871E+01 0.  0.
     999903    2    3    3    0    0 -0.53311779057E-01  0.11016821885E+00 -0.33671887574E-01  0.13009272832E+00  0.28480514729E-01 0.  0.
         14    1    1    2    0    0 -0.38257911064E-02  0.59756105872E-02 -0.21518615856E-01  0.22658230908E-01  0.00000000000E+00 0.  1.
     999901    1    3    3    0    0  0.57137570163E-01 -0.11614382943E+00  0.55190503430E-01  0.89117904077E+00  0.88000000000E+00 0. -1.
        -11    1    4    4    0    0 -0.25182903382E-01  0.76229575491E-01 -0.12722800472E-01  0.81285039061E-01  0.51100000000E-03 0.  1.
         11    1    4    4    0    0 -0.28128875675E-01  0.33938643357E-01 -0.20949087102E-01  0.48807689261E-01  0.51100000000E-03 0. -1.
</event>
<event>
 8    1  0.1091347E+005  0.1043930E+01  0.7957747E-01            NaN
         13   -1    0    0    0    0  0.00000000000E+00  0.00000000000E+00  0.74505805969E-08  0.10566000000E+00  0.10566000000E+00 0.  1.
     999900   -1    0    0    0    0 -0.00000000000E+00 -0.00000000000E+00 -0.74505805969E-08  0.93827000000E+00  0.93827000000E+00 0.  1.
     999902    2    1    2    0    0 -0.84074537005E-02 -0.17715143638E-01 -0.17033985581E-01  0.10179556231E+01  0.10176241852E+01 0.  0.
     999903    2    3    3    0    0  0.10237406248E+00  0.19263752829E-01  0.68231422407E-01  0.12615397870E+00  0.20193030861E-01 0.  0.
         14    1    1    2    0    0  0.84074537005E-02  0.17715143638E-01  0.17033985581E-01  0.25974376925E-01  0.00000000000E+00 0.  1.
     999901    1    3    3    0    0 -0.11078151619E+00 -0.36978896468E-01 -0.85265407988E-01  0.89180164438E+00  0.88000000000E+00 0.  1.
        -11    1    4    4    0    0  0.36560060145E-01  0.94322876650E-02  0.13873837873E-01  0.40228727878E-01  0.51100000000E-03 0. -1.
         11    1    4    4    0    0  0.65814002340E-01  0.98314651644E-02  0.54357584534E-01  0.85925250821E-01  0.51100000000E-03 0.  1.
</event>
<event>
 8    1  0.1091347E+005  0.1043930E+01  0.7957747E-01            NaN
         13   -1    0    0    0    0  0.00000000000E+00  0.00000000000E+00  0.74505805969E-08  0.10566000000E+00  0.10566000000E+00 0. -1.
     999900   -1    0    0    0    0 -0.00000000000E+00 -0.00000000000E+00 -0.74505805969E-08  0.93827000000E+00  0.93827000000E+00 0.  1.
     999902    2    1    2    0    0  0.59544289556E-02 -0.24155511384E-02  0.22747071402E-01  0.10202927546E+01  0.10200189144E+01 0.  0.
     999903    2    3    3    0    0  0.65532338128E-01 -0.26648031226E-01 -0.10560919624E+00  0.12865826012E+00  0.19875629742E-01 0.  0.
         14    1    1    2    0    0 -0.59544289556E-02  0.24155511384E-02 -0.22747071402E-01  0.23637245373E-01  0.00000000000E+00 0.  1.
     999901    1    3    3    0    0 -0.59577909173E-01  0.24232480088E-01  0.12835626764E+00  0.89163449451E+00  0.88000000000E+00 0.  1.
        -11    1    4    4    0    0  0.41942071853E-01 -0.81084162455E-02 -0.70891846869E-01  0.82769552849E-01  0.51100000000E-03 0. -1.
         11    1    4    4    0    0  0.23590266275E-01 -0.18539614981E-01 -0.34717349371E-01  0.45888707270E-01  0.51100000000E-03 0.  1.
</event>
<event>
 8    1  0.1091347E+005  0.1043930E+01  0.7957747E-01            NaN
         13   -1    0    0    0    0  0.00000000000E+00  0.00000000000E+00  0.74505805969E-08  0.10566000000E+00  0.10566000000E+00 0. -1.
     999900   -1    0    0    0    0 -0.00000000000E+00 -0.00000000000E+00 -0.74505805969E-08  0.93827000000E+00  0.93827000000E+00 0. -1.
     999902    2    1    2    0    0  0.14323733637E-01 -0.20700553370E-01  0.26262890851E-02  0.10186203250E+01  0.10183058415E+01 0.  0.
     999903    2    3    3    0    0 -0.84183340997E-01 -0.64733797363E-01  0.70975707609E-01  0.12939919762E+00  0.20719600687E-01 0.  0.
         14    1    1    2    0    0 -0.14323733637E-01  0.20700553370E-01 -0.26262890851E-02  0.25309675017E-01  0.00000000000E+00 0. -1.
     999901    1    3    3    0    0  0.98507074633E-01  0.44033243993E-01 -0.68349418524E-01  0.88922112736E+00  0.88000000000E+00 0. -1.
        -11    1    4    4    0    0 -0.63565857197E-02 -0.13699462936E-01  0.10727447884E-01  0.18531614227E-01  0.51100000000E-03 0.  1.
         11    1    4    4    0    0 -0.77826755277E-01 -0.51034334427E-01  0.60248259725E-01  0.11086758340E+00  0.51100000000E-03 0. -1.
</event>
<event>
 8    1  0.1091347E+005  0.1043930E+01  0.7957747E-01            NaN
         13   -1    0    0    0    0  0.00000000000E+00  0.00000000000E+00  0.74505805969E-08  0.10566000000E+00  0.10566000000E+00 0. -1.
     999900   -1    0    0    0    0 -0.00000000000E+00 -0.00000000000E+00 -0.74505805969E-08  0.93827000000E+00  0.93827000000E+00 0. -1.
     999902    2    1    2    0    0 -0.12932911683E-01 -0.20929347824E-01 -0.34321080617E-02  0.10190889620E+01  0.10187861578E+01 0.  0.
     999903    2    3    3    0    0  0.67191982020E-01 -0.61106778930E-01  0.90161922080E-01  0.12959805867E+00  0.20437312430E-01 0.  0.
         14    1    1    2    0    0  0.12932911683E-01  0.20929347824E-01  0.34321080617E-02  0.24841038036E-01  0.00000000000E+00 0. -1.
     999901    1    3    3    0    0 -0.80124893704E-01  0.40177431106E-01 -0.93594030141E-01  0.88949090329E+00  0.88000000000E+00 0. -1.
        -11    1    4    4    0    0  0.43815734271E-01 -0.34785202628E-01  0.67743276889E-01  0.87859214521E-01  0.51100000000E-03 0.  1.
         11    1    4    4    0    0  0.23376247750E-01 -0.26321576302E-01  0.22418645191E-01  0.41738844151E-01  0.51100000000E-03 0. -1.
</event>
<event>
 7    1  0.1091347E+005  0.1043930E+01  0.7957747E-01            NaN
         13   -1    0    0    0    0  0.00000000000E+00  0.00000000000E+00  0.74505805969E-08  0.10566000000E+00  0.10566000000E+00 0.  1.
     999900   -1    0    0    0    0 -0.00000000000E+00 -0.00000000000E+00 -0.74505805969E-08  0.93827000000E+00  0.93827000000E+00 0.  1.
     999902    2    1    2    0    0  0.23482498261E-01 -0.98494772129E-03  0.12407829191E-02  0.10203941255E+01  0.10201226563E+01 0.  0.
         14    1    1    2    0    0 -0.23482498261E-01  0.98494772129E-03 -0.12407829191E-02  0.23535874507E-01  0.00000000000E+00 0. -1.
     999901    1    3    3    0    0 -0.23272821937E-01 -0.10879063345E+00  0.25106407608E-01  0.88735976800E+00  0.88000000000E+00 0. -1.
        -11    1    3    3    0    0 -0.64535896879E-02  0.55796697329E-01 -0.58293313919E-02  0.56472670188E-01  0.51100000000E-03 0. -1.
         11    1    3    3    0    0  0.53208909886E-01  0.52008988399E-01 -0.18036293297E-01  0.76561687301E-01  0.51100000000E-03 0.  1.
</event>
<event>
 8    1  0.1091347E+005  0.1043930E+01  0.7957747E-01            NaN
         13   -1    0    0    0    0  0.00000000000E+00  0.00000000000E+00  0.74505805969E-08  0.10566000000E+00  0.10566000000E+00 0.  1.
     999900   -1    0    0    0    0 -0.00000000000E+00 -0.00000000000E+00 -0.74505805969E-08  0.93827000000E+00  0.93827000000E+00 0.  1.
     999902    2    1    2    0    0  0.10129917187E-01  0.25170437980E-02  0.23555954226E-01  0.10181650294E+01  0.10178389820E+01 0.  0.
     999903    2    3    3    0    0  0.11322774160E+00  0.62284519548E-01 -0.69244244816E-02  0.12960981666E+00  0.71326066377E-02 0.  0.
         14    1    1    2    0    0 -0.10129917187E-01 -0.25170437980E-02 -0.23555954226E-01  0.25764970623E-01  0.00000000000E+00 0. -1.
     999901    1    3    3    0    0 -0.10309782441E+00 -0.59767475750E-01  0.30480378708E-01  0.88855521271E+00  0.88000000000E+00 0. -1.
        -11    1    4    4    0    0  0.43403747323E-01  0.26662041146E-01 -0.51659450185E-02  0.51202517797E-01  0.51100000000E-03 0.  1.
         11    1    4    4    0    0  0.69823994278E-01  0.35622478402E-01 -0.17584794631E-02  0.78407298866E-01  0.51100000000E-03 0. -1.
</event>
<event>
 8    1  0.1091347E+005  0.1043930E+01  0.7957747E-01            NaN
         13   -1    0    0    0    0  0.00000000000E+00  0.00000000000E+00  0.74505805969E-08  0.10566000000E+00  0.10566000000E+00 0.  1.
     999900   -1    0    0    0    0 -0.00000000000E+00 -0.00000000000E+00 -0.74505805969E-08  0.93827000000E+00  0.93827000000E+00 0.  1.
     999902    2    1    2    0    0 -0.13051613756E-01 -0.14627476191E-01  0.13547958004E-01  0.10201002949E+01  0.10198219240E+01 0.  0.
     999903    2    3    3    0    0 -0.41200259768E-01  0.45266680699E-01  0.11508004460E+00  0.13179380444E+00  0.19484774518E-01 0.  0.
         14    1    1    2    0    0  0.13051613756E-01  0.14627476191E-01 -0.13547958004E-01  0.23829705147E-01  0.00000000000E+00 0. -1.
     999901    1    3    3    0    0  0.28148646013E-01 -0.59894156890E-01 -0.10153208659E+00  0.88830649041E+00  0.88000000000E+00 0.  1.
        -11    1    4    4    0    0 -0.28842310483E-01  0.24926953195E-01  0.86962846892E-01  0.94952776316E-01  0.51100000000E-03 0.  1.
         11    1    4    4    0    0 -0.12357949286E-01  0.20339727504E-01  0.28117197704E-01  0.36841028124E-01  0.51100000000E-03 0. -1.
</event>
<event>
 8    1  0.1091347E+005  0.1043930E+01  0.7957747E-01            NaN
         13   -1    0    0    0    0  0.00000000000E+00  0.00000000000E+00  0.74505805969E-08  0.10566000000E+00  0.10566000000E+00 0.  1.
     999900   -1    0    0    0    0 -0.00000000000E+00 -0.00000000000E+00 -0.74505805969E-08  0.93827000000E+00  0.93827000000E+00 0.  1.
     999902    2    1    2    0    0 -0.37785404110E-02 -0.13226201469E-01 -0.18960035331E-01  0.10205058092E+01  0.10202369401E+01 0.  0.
     999903    2    3    3    0    0  0.84860374467E-01 -0.63716556755E-01 -0.77438220464E-01  0.13268497633E+00  0.18642483658E-01 0.  0.
         14    1    1    2    0    0  0.37785404110E-02  0.13226201469E-01  0.18960035331E-01  0.23424190758E-01  0.00000000000E+00 0. -1.
     999901    1    3    3    0    0 -0.88638914878E-01  0.50490355285E-01  0.58478185133E-01  0.88782083291E+00  0.88000000000E+00 0. -1.
        -11    1    4    4    0    0  0.51374278441E-01 -0.45011908919E-01 -0.40379091370E-01  0.79348097462E-01  0.51100000000E-03 0. -1.
         11    1    4    4    0    0  0.33486096025E-01 -0.18704647835E-01 -0.37059129094E-01  0.53336878873E-01  0.51100000000E-03 0.  1.
</event>
<event>
 8    1  0.1091347E+005  0.1043930E+01  0.7957747E-01            NaN
         13   -1    0    0    0    0  0.00000000000E+00  0.00000000000E+00  0.74505805969E-08  0.10566000000E+00  0.10566000000E+00 0.  1.
     999900   -1    0    0    0    0 -0.00000000000E+00 -0.00000000000E+00 -0.74505805969E-08  0.93827000000E+00  0.93827000000E+00 0.  1.
     999902    2    1    2    0    0  0.61317928682E-02  0.11457645053E-01 -0.20135713669E-01  0.10199649530E+01  0.10196833733E+01 0.  0.
     999903    2    3    3    0    0  0.11736746326E+00  0.56364312780E-01 -0.73677538436E-04  0.13159989937E+00  0.19143429628E-01 0.  0.
         14    1    1    2    0    0 -0.61317928682E-02 -0.11457645053E-01  0.20135713669E-01  0.23965047025E-01  0.00000000000E+00 0.  1.
     999901    1    3    3    0    0 -0.11123567039E+00 -0.44906667726E-01 -0.20062036131E-01  0.88836505361E+00  0.88000000000E+00 0.  1.
        -11    1    4    4    0    0  0.44549902071E-01  0.22332708403E-01  0.92293414295E-02  0.50684174092E-01  0.51100000000E-03 0.  1.
         11    1    4    4    0    0  0.72817561190E-01  0.34031604377E-01 -0.93030189679E-02  0.80915725277E-01  0.51100000000E-03 0. -1.
</event>
<event>
 8    1  0.1091347E+005  0.1043930E+01  0.7957747E-01            NaN
         13   -1    0    0    0    0  0.00000000000E+00  0.00000000000E+00  0.74505805969E-08  0.10566000000E+00  0.10566000000E+00 0. -1.
     999900   -1    0    0    0    0 -0.00000000000E+00 -0.00000000000E+00 -0.74505805969E-08  0.93827000000E+00  0.93827000000E+00 0.  1.
     999902    2    1    2    0    0  0.81647317650E-03 -0.18938765969E-01 -0.99657009438E-02  0.10225136819E+01  0.10222893773E+01 0.  0.
     999903    2    3    3    0    0 -0.81575103481E-01  0.96002622395E-01  0.27323436421E-01  0.13044284705E+00  0.19944050571E-01 0.  0.
         14    1    1    2    0    0 -0.81647317650E-03  0.18938765969E-01  0.99657009438E-02  0.21416318082E-01  0.00000000000E+00 0.  1.
     999901    1    3    3    0    0  0.82391576658E-01 -0.11494138836E+00 -0.37289137365E-01  0.89207083487E+00  0.88000000000E+00 0.  1.
        -11    1    4    4    0    0 -0.26414882115E-01  0.43577089071E-01  0.16565496142E-01  0.53585310230E-01  0.51100000000E-03 0.  1.
         11    1    4    4    0    0 -0.55160221366E-01  0.52425533324E-01  0.10757940279E-01  0.76857536817E-01  0.51100000000E-03 0. -1.
</event>
<event>
 8    1  0.1091347E+005  0.1043930E+01  0.7957747E-01            NaN
         13   -1    0    0    0    0  0.00000000000E+00  0.00000000000E+00  0.74505805969E-08  0.10566000000E+00  0.10566000000E+00 0.  1.
     999900   -1    0    0    0    0 -0.00000000000E+00 -0.00000000000E+00 -0.74505805969E-08  0.93827000000E+00  0.93827000000E+00 0. -1.
     999902    2    1    2    0    0 -0.97755950554E-02  0.15808139478E-01 -0.15352247870E-01  0.10198229254E+01  0.10195379581E+01 0.  0.
     999903    2    3    3    0    0  0.12123075711E+00 -0.23915837807E-01  0.27649005089E-01  0.12820093908E+00  0.20053666308E-01 0.  0.
         14    1    1    2    0    0  0.97755950554E-02 -0.15808139478E-01  0.15352247870E-01  0.24107074628E-01  0.00000000000E+00 0.  1.
     999901    1    3    3    0    0 -0.13100635216E+00  0.39723977285E-01 -0.43001252959E-01  0.89162198629E+00  0.88000000000E+00 0. -1.
        -11    1    4    4    0    0  0.18472864883E-01 -0.98752661037E-02  0.35643642115E-03  0.20956044129E-01  0.51100000000E-03 0. -1.
         11    1    4    4    0    0  0.10275789222E+00 -0.14040571703E-01  0.27292568668E-01  0.10724489495E+00  0.51100000000E-03 0.  1.
</event>
<event>
 8    1  0.1091347E+005  0.1043930E+01  0.7957747E-01            NaN
         13   -1    0    0    0    0  0.00000000000E+00  0.00000000000E+00  0.74505805969E-08  0.10566000000E+00  0.10566000000E+00 0.  1.
     999900   -1    0    0    0    0 -0.00000000000E+00 -0.00000000000E+00 -0.74505805969E-08  0.93827000000E+00  0.93827000000E+00 0.  1.
     999902    2    1    2    0    0 -0.19386929752E-01 -0.66928606400E-02  0.10505176186E-01  0.10208864292E+01  0.10206263249E+01 0.  0.
     999903    2    3    3    0    0 -0.10445441658E+00  0.64094320922E-01 -0.45393337372E-01  0.13219528700E+00  0.19905569839E-01 0.  0.
         14    1    1    2    0    0  0.19386929752E-01  0.66928606400E-02 -0.10505176186E-01  0.23043570805E-01  0.00000000000E+00 0.  1.
     999901    1    3    3    0    0  0.85067486830E-01 -0.70787181562E-01  0.55898513558E-01  0.88869114219E+00  0.88000000000E+00 0. -1.
        -11    1    4    4    0    0 -0.81049279450E-02  0.11451375224E-01 -0.21981652731E-02  0.14209746764E-01  0.51100000000E-03 0.  1.
         11    1    4    4    0    0 -0.96349488637E-01  0.52642945697E-01 -0.43195172099E-01  0.11798554024E+00  0.51100000000E-03 0. -1.
</event>
<event>
 8    1  0.1091347E+005  0.1043930E+01  0.7957747E-01            NaN
         13   -1    0    0    0    0  0.00000000000E+00  0.00000000000E+00  0.74505805969E-08  0.10566000000E+00  0.10566000000E+00 0. -1.
     999900   -1    0    0    0    0 -0.00000000000E+00 -0.00000000000E+00 -0.74505805969E-08  0.93827000000E+00  0.93827000000E+00 0. -1.
     999902    2    1    2    0    0 -0.11650608085E-01  0.11992852549E-01  0.16837077764E-01  0.10202012755E+01  0.10199252865E+01 0.  0.
     999903    2    3    3    0    0 -0.35413197724E-01 -0.11097338249E+00  0.55330250731E-01  0.13050071909E+00  0.19995370507E-01 0.  0.
         14    1    1    2    0    0  0.11650608085E-01 -0.11992852549E-01 -0.16837077764E-01  0.23728724547E-01  0.00000000000E+00 0. -1.
     999901    1    3    3    0    0  0.23762589639E-01  0.12296623504E+00 -0.38493172967E-01  0.88970055636E+00  0.88000000000E+00 0.  1.
        -11    1    4    4    0    0 -0.25668383488E-01 -0.48023001080E-01  0.27047831729E-01  0.60802309709E-01  0.51100000000E-03 0.  1.
         11    1    4    4    0    0 -0.97448142356E-02 -0.62950381414E-01  0.28282419002E-01  0.69698409381E-01  0.51100000000E-03 0. -1.
</event>
<event>
 8    1  0.1091347E+005  0.1043930E+01  0.7957747E-01            NaN
         13   -1    0    0    0    0  0.00000000000E+00  0.00000000000E+00  0.74505805969E-08  0.10566000000E+00  0.10566000000E+00 0. -1.
     999900   -1    0    0    0    0 -0.00000000000E+00 -0.00000000000E+00 -0.74505805969E-08  0.93827000000E+00  0.93827000000E+00 0.  1.
     999902    2    1    2    0    0  0.19895920676E-01  0.24396284250E-01  0.53980928277E-02  0.10119899663E+01  0.10114858013E+01 0.  0.
     999903    2    3    3    0    0  0.10532375735E-01 -0.61030736532E-01  0.10330171322E+00  0.12239985243E+00  0.21789864177E-01 0.  0.
         14    1    1    2    0    0 -0.19895920676E-01 -0.24396284250E-01 -0.53980928277E-02  0.31940033671E-01  0.00000000000E+00 0.  1.
     999901    1    3    3    0    0  0.93635449412E-02  0.85427020782E-01 -0.97903620395E-01  0.88959011390E+00  0.88000000000E+00 0.  1.
        -11    1    4    4    0    0 -0.20641935819E-02 -0.58984379738E-02  0.25221254592E-01  0.25988945148E-01  0.51100000000E-03 0. -1.
         11    1    4    4    0    0  0.12596569317E-01 -0.55132298558E-01  0.78080458630E-01  0.96410907286E-01  0.51100000000E-03 0.  1.
</event>
<event>
 8    1  0.1091347E+005  0.1043930E+01  0.7957747E-01            NaN
         13   -1    0    0    0    0  0.00000000000E+00  0.00000000000E+00  0.74505805969E-08  0.10566000000E+00  0.10566000000E+00 0. -1.
     999900   -1    0    0    0    0 -0.00000000000E+00 -0.00000000000E+00 -0.74505805969E-08  0.93827000000E+00  0.93827000000E+00 0. -1.
     999902    2    1    2    0    0  0.47318859910E-02 -0.21524679567E-01 -0.92604779345E-02  0.10200247908E+01  0.10197446322E+01 0.  0.
     999903    2    3    3    0    0 -0.87721420159E-01 -0.96342206803E-01  0.34983882661E-02  0.13193241673E+00  0.20421936701E-01 0.  0.
         14    1    1    2    0    0 -0.47318859910E-02  0.21524679567E-01  0.92604779345E-02  0.23905209204E-01  0.00000000000E+00 0. -1.
     999901    1    3    3    0    0  0.92453306150E-01  0.74817527236E-01 -0.12758866201E-01  0.88809237406E+00  0.88000000000E+00 0. -1.
        -11    1    4    4    0    0 -0.75807820887E-01 -0.72845487687E-01  0.69119017567E-02  0.10536283164E+00  0.51100000000E-03 0. -1.
         11    1    4    4    0    0 -0.11913599272E-01 -0.23496719116E-01 -0.34135134905E-02  0.26569585096E-01  0.51100000000E-03 0.  1.
</event>
<event>
 8    1  0.1091347E+005  0.1043930E+01  0.7957747E-01            NaN
         13   -1    0    0    0    0  0.00000000000E+00  0.00000000000E+00  0.74505805969E-08  0.10566000000E+00  0.10566000000E+00 0.  1.
     999900   -1    0    0    0    0 -0.00000000000E+00 -0.00000000000E+00 -0.74505805969E-08  0.93827000000E+00  0.93827000000E+00 0.  1.
     999902    2    1    2    0    0 -0.68703419311E-02  0.12946138108E-01 -0.16814757946E-01  0.10216243914E+01  0.10213808579E+01 0.  0.
     999903    2    3    3    0    0  0.73781173999E-01  0.18048808506E-01  0.10334435544E+00  0.12978981212E+00  0.19897698476E-01 0.  0.
         14    1    1    2    0    0  0.68703419311E-02 -0.12946138108E-01  0.16814757946E-01  0.22305608598E-01  0.00000000000E+00 0.  1.
     999901    1    3    3    0    0 -0.80651515930E-01 -0.51026703982E-02 -0.12015911339E+00  0.89183457928E+00  0.88000000000E+00 0.  1.
        -11    1    4    4    0    0  0.63181899074E-01  0.22242162972E-01  0.90772758401E-01  0.11281232633E+00  0.51100000000E-03 0. -1.
         11    1    4    4    0    0  0.10599274925E-01 -0.41933544658E-02  0.12571597039E-01  0.16977485789E-01  0.51100000000E-03 0.  1.
</event>
<event>
 8    1  0.1091347E+005  0.1043930E+01  0.7957747E-01            NaN
         13   -1    0    0    0    0  0.00000000000E+00  0.00000000000E+00  0.74505805969E-08  0.10566000000E+00  0.10566000000E+00 0. -1.
     999900   -1    0    0    0    0 -0.00000000000E+00 -0.00000000000E+00 -0.74505805969E-08  0.93827000000E+00  0.93827000000E+00 0.  1.
     999902    2    1    2    0    0  0.16090670984E-01 -0.17339774183E-01 -0.36943362743E-02  0.10199878701E+01  0.10197068352E+01 0.  0.
     999903    2    3    3    0    0  0.69226691505E-01  0.91576232616E-01 -0.57846440858E-01  0.13003361085E+00  0.19595612593E-01 0.  0.
         14    1    1    2    0    0 -0.16090670984E-01  0.17339774183E-01  0.36943362743E-02  0.23942129854E-01  0.00000000000E+00 0. -1.
     999901    1    3    3    0    0 -0.53136020521E-01 -0.10891600680E+00  0.54152104584E-01  0.88995425930E+00  0.88000000000E+00 0. -1.
        -11    1    4    4    0    0  0.45154102867E-01  0.58596179807E-01 -0.47482126118E-01  0.87904600081E-01  0.51100000000E-03 0. -1.
         11    1    4    4    0    0  0.24072588639E-01  0.32980052810E-01 -0.10364314740E-01  0.42129010766E-01  0.51100000000E-03 0.  1.
</event>
<event>
 8    1  0.1091347E+005  0.1043930E+01  0.7957747E-01            NaN
         13   -1    0    0    0    0  0.00000000000E+00  0.00000000000E+00  0.74505805969E-08  0.10566000000E+00  0.10566000000E+00 0. -1.
     999900   -1    0    0    0    0 -0.00000000000E+00 -0.00000000000E+00 -0.74505805969E-08  0.93827000000E+00  0.93827000000E+00 0.  1.
     999902    2    1    2    0    0  0.10688740533E-01  0.35794402186E-02  0.15994671867E-01  0.10243623968E+01  0.10241754874E+01 0.  0.
     999903    2    3    3    0    0 -0.62314931986E-01  0.83998860541E-01 -0.79095274032E-01  0.13260070377E+00  0.19695810344E-01 0.  0.
         14    1    1    2    0    0 -0.10688740533E-01 -0.35794402186E-02 -0.15994671867E-01  0.19567603190E-01  0.00000000000E+00 0.  1.
     999901    1    3    3    0    0  0.73003672519E-01 -0.80419420322E-01  0.95089945899E-01  0.89176169304E+00  0.88000000000E+00 0.  1.
        -11    1    4    4    0    0 -0.45466683831E-01  0.63811368414E-01 -0.69083592210E-01  0.10446010679E+00  0.51100000000E-03 0.  1.
         11    1    4    4    0    0 -0.16848248155E-01  0.20187492127E-01 -0.10011681822E-01  0.28140596976E-01  0.51100000000E-03 0. -1.
</event>
<event>
 8    1  0.1201479E+005  0.1043930E+01  0.7957747E-01            NaN
         13   -1    0    0    0    0  0.00000000000E+00  0.00000000000E+00  0.74505805969E-08  0.10566000000E+00  0.10566000000E+00 0.  1.
     999900   -1    0    0    0    0 -0.00000000000E+00 -0.00000000000E+00 -0.74505805969E-08  0.93827000000E+00  0.93827000000E+00 0.  1.
     999902    2    1    2    0    0  0.15159882839E-01  0.17394333032E-01 -0.44676957744E-02  0.10204279751E+01  0.10201572953E+01 0.  0.
     999903    2    3    3    0    0  0.78925796810E-01  0.80503897072E-01 -0.68900599811E-01  0.13352295877E+00  0.19259517587E-01 0.  0.
         14    1    1    2    0    0 -0.15159882839E-01 -0.17394333032E-01  0.44676957744E-02  0.23502024910E-01  0.00000000000E+00 0.  1.
     999901    1    3    3    0    0 -0.63765913971E-01 -0.63109564040E-01  0.64432904036E-01  0.88690501632E+00  0.88000000000E+00 0. -1.
        -11    1    4    4    0    0  0.55034680026E-01  0.42964868601E-01 -0.44022960173E-01  0.82541371946E-01  0.51100000000E-03 0. -1.
         11    1    4    4    0    0  0.23891116784E-01  0.37539028471E-01 -0.24877639638E-01  0.50981586820E-01  0.51100000000E-03 0.  1.
</event>
<event>
 8    1  0.1336100E+005  0.1043930E+01  0.7957747E-01            NaN
         13   -1    0    0    0    0  0.00000000000E+00  0.00000000000E+00  0.74505805969E-08  0.10566000000E+00  0.10566000000E+00 0. -1.
     999900   -1    0    0    0    0 -0.00000000000E+00 -0.00000000000E+00 -0.74505805969E-08  0.93827000000E+00  0.93827000000E+00 0. -1.
     999902    2    1    2    0    0 -0.48300433258E-02 -0.34057650386E-02 -0.22730322670E-01  0.10204439164E+01  0.10201736080E+01 0.  0.
     999903    2    3    3    0    0  0.83300390840E-01 -0.61014851859E-02 -0.10098327928E+00  0.13258257275E+00  0.20108024952E-01 0.  0.
         14    1    1    2    0    0  0.48300433258E-02  0.34057650386E-02  0.22730322670E-01  0.23486083597E-01  0.00000000000E+00 0. -1.
     999901    1    3    3    0    0 -0.88130434166E-01  0.26957201473E-02  0.78252956610E-01  0.88786134365E+00  0.88000000000E+00 0.  1.
        -11    1    4    4    0    0  0.22153811113E-01 -0.76915415308E-02 -0.18398939854E-01  0.29811629723E-01  0.51100000000E-03 0. -1.
         11    1    4    4    0    0  0.61146579726E-01  0.15900563449E-02 -0.82584339427E-01  0.10277094303E+00  0.51100000000E-03 0.  1.
</event>
<event>
 8    1  0.1091347E+005  0.1043930E+01  0.7957747E-01            NaN
         13   -1    0    0    0    0  0.00000000000E+00  0.00000000000E+00  0.74505805969E-08  0.10566000000E+00  0.10566000000E+00 0. -1.
     999900   -1    0    0    0    0 -0.00000000000E+00 -0.00000000000E+00 -0.74505805969E-08  0.93827000000E+00  0.93827000000E+00 0. -1.
     999902    2    1    2    0    0 -0.67626750517E-02 -0.10949377305E-01 -0.20399467849E-01  0.10198102793E+01  0.10195250094E+01 0.  0.
     999903    2    3    3    0    0 -0.22633403820E-01  0.11540564968E+00 -0.52146275848E-01  0.13007698631E+00  0.19236770379E-01 0.  0.
         14    1    1    2    0    0  0.67626750517E-02  0.10949377305E-01  0.20399467849E-01  0.24119720681E-01  0.00000000000E+00 0. -1.
     999901    1    3    3    0    0  0.15870728768E-01 -0.12635502699E+00  0.31746807999E-01  0.88973329301E+00  0.88000000000E+00 0. -1.
        -11    1    4    4    0    0 -0.10098446640E-01  0.55468735252E-01 -0.14583099026E-01  0.58238192908E-01  0.51100000000E-03 0. -1.
         11    1    4    4    0    0 -0.12534957180E-01  0.59936914431E-01 -0.37563176823E-01  0.71838793399E-01  0.51100000000E-03 0.  1.
</event>
<event>
 8    1  0.1091347E+005  0.1043930E+01  0.7957747E-01            NaN
         13   -1    0    0    0    0  0.00000000000E+00  0.00000000000E+00  0.74505805969E-08  0.10566000000E+00  0.10566000000E+00 0. -1.
     999900   -1    0    0    0    0 -0.00000000000E+00 -0.00000000000E+00 -0.74505805969E-08  0.93827000000E+00  0.93827000000E+00 0. -1.
     999902    2    1    2    0    0 -0.22408969676E-01  0.60113739049E-02  0.13725857190E-02  0.10206881728E+01  0.10204235217E+01 0.  0.
     999903    2    3    3    0    0  0.20468269598E-01  0.46261130307E-01  0.11879579805E+00  0.13094286584E+00  0.21784174108E-01 0.  0.
         14    1    1    2    0    0  0.22408969676E-01 -0.60113739049E-02 -0.13725857190E-02  0.23241827160E-01  0.00000000000E+00 0. -1.
     999901    1    3    3    0    0 -0.42877239274E-01 -0.40249756402E-01 -0.11742321233E+00  0.88974530700E+00  0.88000000000E+00 0. -1.
        -11    1    4    4    0    0  0.79388760727E-02  0.17521074129E-01  0.72624057071E-01  0.75130077721E-01  0.51100000000E-03 0.  1.
         11    1    4    4    0    0  0.12529393525E-01  0.28740056178E-01  0.46171740980E-01  0.55812788117E-01  0.51100000000E-03 0. -1.
</event>
<event>
 8    1  0.1091347E+005  0.1043930E+01  0.7957747E-01            NaN
         13   -1    0    0    0    0  0.00000000000E+00  0.00000000000E+00  0.74505805969E-08  0.10566000000E+00  0.10566000000E+00 0.  1.
     999900   -1    0    0    0    0 -0.00000000000E+00 -0.00000000000E+00 -0.74505805969E-08  0.93827000000E+00  0.93827000000E+00 0. -1.
     999902    2    1    2    0    0  0.36241589958E-01 -0.76714834878E-02  0.22438091533E-02  0.10068174795E+01  0.10061332406E+01 0.  0.
     999903    2    3    3    0    0 -0.11862795818E-01 -0.73927272646E-02  0.11569208884E+00  0.11823173694E+00  0.19967620240E-01 0.  0.
         14    1    1    2    0    0 -0.36241589958E-01  0.76714834878E-02 -0.22438091533E-02  0.37112520544E-01  0.00000000000E+00 0.  1.
     999901    1    3    3    0    0  0.48104385777E-01 -0.27875622325E-03 -0.11344827969E+00  0.88858574251E+00  0.88000000000E+00 0. -1.
        -11    1    4    4    0    0  0.16875990518E-02 -0.84791565530E-02  0.23571799023E-01  0.25112445452E-01  0.51100000000E-03 0.  1.
         11    1    4    4    0    0 -0.13550394870E-01  0.10864292884E-02  0.92120289821E-01  0.93119291489E-01  0.51100000000E-03 0. -1.
</event>
<event>
 8    1  0.1091347E+005  0.1043930E+01  0.7957747E-01            NaN
         13   -1    0    0    0    0  0.00000000000E+00  0.00000000000E+00  0.74505805969E-08  0.10566000000E+00  0.10566000000E+00 0.  1.
     999900   -1    0    0    0    0 -0.00000000000E+00 -0.00000000000E+00 -0.74505805969E-08  0.93827000000E+00  0.93827000000E+00 0. -1.
     999902    2    1    2    0    0  0.90344036485E-02 -0.21904496878E-01  0.22788520091E-03  0.10202344442E+01  0.10199592354E+01 0.  0.
     999903    2    3    3    0    0 -0.16028490942E-01  0.35910201614E-01 -0.12147405006E+00  0.12962675892E+00  0.22376252765E-01 0.  0.
         14    1    1    2    0    0 -0.90344036485E-02  0.21904496878E-01 -0.22788520091E-03  0.23695555795E-01  0.00000000000E+00 0.  1.
     999901    1    3    3    0    0  0.25062894591E-01 -0.57814698492E-01  0.12170193526E+00  0.89060768529E+00  0.88000000000E+00 0.  1.
        -11    1    4    4    0    0 -0.21191448938E-01  0.23997480494E-01 -0.92105051561E-01  0.97511836319E-01  0.51100000000E-03 0. -1.
         11    1    4    4    0    0  0.51629579961E-02  0.11912721119E-01 -0.29368998498E-01  0.32114922599E-01  0.51100000000E-03 0.  1.
</event>
<event>
 8    1  0.1091347E+005  0.1043930E+01  0.7957747E-01            NaN
         13   -1    0    0    0    0  0.00000000000E+00  0.00000000000E+00  0.74505805969E-08  0.10566000000E+00  0.10566000000E+00 0.  1.
     999900   -1    0    0    0    0 -0.00000000000E+00 -0.00000000000E+00 -0.74505805969E-08  0.93827000000E+00  0.93827000000E+00 0.  1.
     999902    2    1    2    0    0  0.13380029677E-01  0.17823862633E-01 -0.96673547950E-02  0.10196365231E+01  0.10193470783E+01 0.  0.
     999903    2    3    3    0    0  0.10627911434E-01 -0.12538916869E+00 -0.12728506245E-01  0.12804978182E+00  0.19983383761E-01 0.  0.
         14    1    1    2    0    0 -0.13380029677E-01 -0.17823862633E-01  0.96673547950E-02  0.24293476945E-01  0.00000000000E+00 0. -1.
     999901    1    3    3    0    0  0.27521182430E-02  0.14321303133E+00  0.30611514499E-02  0.89158674123E+00  0.88000000000E+00 0. -1.
        -11    1    4    4    0    0  0.10026705498E-01 -0.30164420189E-01  0.11701229731E-02  0.31812849248E-01  0.51100000000E-03 0.  1.
         11    1    4    4    0    0  0.60120593630E-03 -0.95224748502E-01 -0.13898629218E-01  0.96236932573E-01  0.51100000000E-03 0. -1.
</event>
<event>
 8    1  0.1091347E+005  0.1043930E+01  0.7957747E-01            NaN
         13   -1    0    0    0    0  0.00000000000E+00  0.00000000000E+00  0.74505805969E-08  0.10566000000E+00  0.10566000000E+00 0.  1.
     999900   -1    0    0    0    0 -0.00000000000E+00 -0.00000000000E+00 -0.74505805969E-08  0.93827000000E+00  0.93827000000E+00 0.  1.
     999902    2    1    2    0    0  0.20391359785E-01  0.10649501218E-01 -0.29069175978E-02  0.10207422964E+01  0.10204788905E+01 0.  0.
     999903    2    3    3    0    0  0.20079296115E-01  0.10483772514E+00  0.75777436224E-01  0.13222513477E+00  0.18631684828E-01 0.  0.
         14    1    1    2    0    0 -0.20391359785E-01 -0.10649501218E-01  0.29069175978E-02  0.23187703638E-01  0.00000000000E+00 0. -1.
     999901    1    3    3    0    0  0.31206366998E-03 -0.94188223920E-01 -0.78684353821E-01  0.88851716159E+00  0.88000000000E+00 0.  1.
        -11    1    4    4    0    0  0.90837522570E-02  0.64258864962E-01  0.56175152623E-01  0.85834871553E-01  0.51100000000E-03 0. -1.
         11    1    4    4    0    0  0.10995543858E-01  0.40578860176E-01  0.19602283600E-01  0.46390263216E-01  0.51100000000E-03 0.  1.
</event>
<event>
 8    1  0.1091347E+005  0.1043930E+01  0.7957747E-01            NaN
         13   -1    0    0    0    0  0.00000000000E+00  0.00000000000E+00  0.74505805969E-08  0.10566000000E+00  0.10566000000E+00 0.  1.
     999900   -1    0    0    0    0 -0.00000000000E+00 -0.00000000000E+00 -0.74505805969E-08  0.93827000000E+00  0.93827000000E+00 0. -1.
     999902    2    1    2    0    0 -0.18336024783E-01 -0.86348971011E-02  0.12407371289E-01  0.10201662857E+01  0.10198894727E+01 0.  0.
     999903    2    3    3    0    0  0.10834391743E+00 -0.60321519254E-01  0.30323423021E-01  0.12941362671E+00  0.21243508766E-01 0.  0.
         14    1    1    2    0    0  0.18336024783E-01  0.86348971011E-02 -0.12407371289E-01  0.23763714253E-01  0.00000000000E+00 0. -1.
     999901    1    3    3    0    0 -0.12667994222E+00  0.51686622153E-01 -0.17916051733E-01  0.89075265904E+00  0.88000000000E+00 0. -1.
        -11    1    4    4    0    0  0.98809006484E-01 -0.55924594995E-01  0.33593856927E-01  0.11840434296E+00  0.51100000000E-03 0.  1.
         11    1    4    4    0    0  0.95349109508E-02 -0.43969242592E-02 -0.32704339055E-02  0.11009283751E-01  0.51100000000E-03 0. -1.
</event>
<event>
 8    1  0.1091347E+005  0.1043930E+01  0.7957747E-01            NaN
         13   -1    0    0    0    0  0.00000000000E+00  0.00000000000E+00  0.74505805969E-08  0.10566000000E+00  0.10566000000E+00 0. -1.
     999900   -1    0    0    0    0 -0.00000000000E+00 -0.00000000000E+00 -0.74505805969E-08  0.93827000000E+00  0.93827000000E+00 0. -1.
     999902    2    1    2    0    0 -0.94479245507E-02  0.19119057170E-01 -0.11545713500E-01  0.10196791211E+01  0.10193907028E+01 0.  0.
     999903    2    3    3    0    0  0.12381694666E+00 -0.27033972962E-01  0.33467901028E-02  0.12832542324E+00  0.19868096835E-01 0.  0.
         14    1    1    2    0    0  0.94479245507E-02 -0.19119057170E-01  0.11545713500E-01  0.24250878863E-01  0.00000000000E+00 0. -1.
     999901    1    3    3    0    0 -0.13326487121E+00  0.46153030133E-01 -0.14892503603E-01  0.89135369790E+00  0.88000000000E+00 0.  1.
        -11    1    4    4    0    0  0.94913445341E-01 -0.28810603436E-01  0.18951577064E-03  0.99191279929E-01  0.51100000000E-03 0.  1.
         11    1    4    4    0    0  0.28903501319E-01  0.17766304731E-02  0.31572743322E-02  0.29134143312E-01  0.51100000000E-03 0. -1.
</event>
<event>
 8    1  0.1091347E+005  0.1043930E+01  0.7957747E-01            NaN
         13   -1    0    0    0    0  0.00000000000E+00  0.00000000000E+00  0.74505805969E-08  0.10566000000E+00  0.10566000000E+00 0. -1.
     999900   -1    0    0    0    0 -0.00000000000E+00 -0.00000000000E+00 -0.74505805969E-08  0.93827000000E+00  0.93827000000E+00 0. -1.
     999902    2    1    2    0    0  0.20385452457E-02 -0.19113403336E-01 -0.14184827130E-01  0.10200409403E+01  0.10197611645E+01 0.  0.
     999903    2    3    3    0    0  0.17547475855E-01  0.88325498927E-01  0.88070666343E-01  0.12749411764E+00  0.19723085298E-01 0.  0.
         14    1    1    2    0    0 -0.20385452457E-02  0.19113403336E-01  0.14184827130E-01  0.23889059724E-01  0.00000000000E+00 0. -1.
     999901    1    3    3    0    0 -0.15508930609E-01 -0.10743890226E+00 -0.10225549347E+00  0.89254682263E+00  0.88000000000E+00 0. -1.
        -11    1    4    4    0    0 -0.17900925621E-02  0.16180882306E-01  0.85507682272E-02  0.18395709876E-01  0.51100000000E-03 0.  1.
         11    1    4    4    0    0  0.19337568417E-01  0.72144616621E-01  0.79519898116E-01  0.10909840777E+00  0.51100000000E-03 0. -1.
</event>
<event>
 8    1  0.1091347E+005  0.1043930E+01  0.7957747E-01            NaN
         13   -1    0    0    0    0  0.00000000000E+00  0.00000000000E+00  0.74505805969E-08  0.10566000000E+00  0.10566000000E+00 0.  1.
     999900   -1    0    0    0    0 -0.00000000000E+00 -0.00000000000E+00 -0.74505805969E-08  0.93827000000E+00  0.93827000000E+00 0.  1.
     999902    2    1    2    0    0  0.20164407436E-01 -0.50398084312E-02 -0.10309735403E-01  0.10207288440E+01  0.10204651289E+01 0.  0.
     999903    2    3    3    0    0  0.30568960967E-01 -0.20782934874E-01 -0.12611786659E+00  0.13294079270E+00  0.20028637813E-01 0.  0.
         14    1    1    2    0    0 -0.20164407436E-01  0.50398084312E-02  0.10309735403E-01  0.23201156013E-01  0.00000000000E+00 0.  1.
     999901    1    3    3    0    0 -0.10404553531E-01  0.15743126443E-01  0.11580813119E+00  0.88778805129E+00  0.88000000000E+00 0. -1.
        -11    1    4    4    0    0  0.11456460831E-01  0.25818727199E-02 -0.31420564369E-01  0.33547422372E-01  0.51100000000E-03 0.  1.
         11    1    4    4    0    0  0.19112500136E-01 -0.23364807594E-01 -0.94697302222E-01  0.99393370325E-01  0.51100000000E-03 0. -1.
</event>
<event>
 8    1  0.1091347E+005  0.1043930E+01  0.7957747E-01            NaN
         13   -1    0    0    0    0  0.00000000000E+00  0.00000000000E+00  0.74505805969E-08  0.10566000000E+00  0.10566000000E+00 0. -1.
     999900   -1    0    0    0    0 -0.00000000000E+00 -0.00000000000E+00 -0.74505805969E-08  0.93827000000E+00  0.93827000000E+00 0.  1.
     999902    2    1    2    0    0 -0.32993917594E-03 -0.58590480638E-02  0.22460791226E-01  0.10207152537E+01  0.10204512260E+01 0.  0.
     999903    2    3    3    0    0 -0.11016032133E+00  0.66314349493E-01 -0.28679857770E-02  0.13059545326E+00  0.22672841152E-01 0.  0.
         14    1    1    2    0    0  0.32993917594E-03  0.58590480638E-02 -0.22460791226E-01  0.23214746317E-01  0.00000000000E+00 0.  1.
     999901    1    3    3    0    0  0.10983038215E+00 -0.72173397556E-01  0.25328777003E-01  0.89011980042E+00  0.88000000000E+00 0.  1.
        -11    1    4    4    0    0 -0.73906901513E-01  0.56148675662E-01 -0.42470721462E-02  0.92915028993E-01  0.51100000000E-03 0.  1.
         11    1    4    4    0    0 -0.36253419816E-01  0.10165673830E-01  0.13790863692E-02  0.37680424268E-01  0.51100000000E-03 0. -1.
</event>
