<event>
 7    1  0.1042301E+005  0.1043930E+01  0.7957747E-01            NaN
         13   -1    0    0    0    0  0.00000000000E+00  0.00000000000E+00  0.74505805969E-08  0.10566000000E+00  0.10566000000E+00 0.  1.
     999900   -1    0    0    0    0 -0.00000000000E+00 -0.00000000000E+00 -0.74505805969E-08  0.93827000000E+00  0.93827000000E+00 0. -1.
     999903    2    1    2    0    0 -0.30699147093E-01 -0.71385534518E-02  0.90625631267E-01  0.98211327823E-01  0.20953837179E-01 0.  0.
         14    1    1    2    0    0 -0.66277563834E-02  0.31554783535E-01  0.43806094801E-01  0.54393064451E-01  0.00000000000E+00 0.  1.
     999901    1    1    2    0    0  0.37326903477E-01 -0.24416230084E-01 -0.13443172607E+00  0.89132560773E+00  0.88000000000E+00 0. -1.
        -11    1    3    3    0    0 -0.11826921414E-01  0.27704448433E-02  0.57828904790E-01  0.59093102685E-01  0.51100000000E-03 0. -1.
         11    1    3    3    0    0 -0.18872225679E-01 -0.99089982951E-02  0.32796726477E-01  0.39118225138E-01  0.51100000000E-03 0.  1.
</event>
<event>
 8    1  0.1042301E+005  0.1043930E+01  0.7957747E-01            NaN
         13   -1    0    0    0    0  0.00000000000E+00  0.00000000000E+00  0.74505805969E-08  0.10566000000E+00  0.10566000000E+00 0.  1.
     999900   -1    0    0    0    0 -0.00000000000E+00 -0.00000000000E+00 -0.74505805969E-08  0.93827000000E+00  0.93827000000E+00 0.  1.
     999902    2    1    2    0    0  0.18315717228E-01 -0.46630123684E-02 -0.14924431711E-01  0.10198478937E+01  0.10195635235E+01 0.  0.
     999903    2    3    3    0    0  0.11191058421E+00  0.37982786252E-01 -0.57277996925E-01  0.13284592767E+00  0.20015010763E-01 0.  0.
         14    1    1    2    0    0 -0.18315717228E-01  0.46630123684E-02  0.14924431711E-01  0.24082106299E-01  0.00000000000E+00 0.  1.
     999901    1    3    3    0    0 -0.93594866982E-01 -0.42645798621E-01  0.42353565214E-01  0.88700196604E+00  0.88000000000E+00 0. -1.
        -11    1    4    4    0    0  0.86876251481E-01  0.23475880656E-01 -0.36001237584E-01  0.96927551669E-01  0.51100000000E-03 0. -1.
         11    1    4    4    0    0  0.25034332728E-01  0.14506905596E-01 -0.21276759341E-01  0.35918375996E-01  0.51100000000E-03 0.  1.
</event>
<event>
 8    1  0.1042301E+005  0.1043930E+01  0.7957747E-01            NaN
         13   -1    0    0    0    0  0.00000000000E+00  0.00000000000E+00  0.74505805969E-08  0.10566000000E+00  0.10566000000E+00 0.  1.
     999900   -1    0    0    0    0 -0.00000000000E+00 -0.00000000000E+00 -0.74505805969E-08  0.93827000000E+00  0.93827000000E+00 0. -1.
     999902    2    1    2    0    0 -0.80469099016E-02  0.19936342561E-01  0.86947423538E-02  0.10207392894E+01  0.10204758144E+01 0.  0.
     999903    2    3    3    0    0 -0.11310357461E+00  0.45766591852E-01  0.49284987251E-01  0.13318553184E+00  0.20551798074E-01 0.  0.
         14    1    1    2    0    0  0.80469099016E-02 -0.19936342561E-01 -0.86947423538E-02  0.23190710603E-01  0.00000000000E+00 0.  1.
     999901    1    3    3    0    0  0.10505666470E+00 -0.25830249291E-01 -0.40590244897E-01  0.88755375756E+00  0.88000000000E+00 0. -1.
        -11    1    4    4    0    0 -0.29563191326E-01  0.13310291244E-01  0.37060908446E-02  0.32636518882E-01  0.51100000000E-03 0. -1.
         11    1    4    4    0    0 -0.83540383280E-01  0.32456300608E-01  0.45578896406E-01  0.10054901296E+00  0.51100000000E-03 0.  1.
</event>
<event>
 8    1  0.1042301E+005  0.1043930E+01  0.7957747E-01            NaN
         13   -1    0    0    0    0  0.00000000000E+00  0.00000000000E+00  0.74505805969E-08  0.10566000000E+00  0.10566000000E+00 0.  1.
     999900   -1    0    0    0    0 -0.00000000000E+00 -0.00000000000E+00 -0.74505805969E-08  0.93827000000E+00  0.93827000000E+00 0.  1.
     999902    2    1    2    0    0  0.24552353194E-01 -0.67931709808E-02  0.28719361044E-02  0.10182938295E+01  0.10179710752E+01 0.  0.
     999903    2    3    3    0    0  0.98436692852E-01  0.78237373651E-01  0.29853920240E-01  0.13070320507E+00  0.19524398221E-01 0.  0.
         14    1    1    2    0    0 -0.24552353194E-01  0.67931709808E-02 -0.28719361044E-02  0.25636170469E-01  0.00000000000E+00 0.  1.
     999901    1    3    3    0    0 -0.73884339658E-01 -0.85030544631E-01 -0.26981984136E-01  0.88759062446E+00  0.88000000000E+00 0. -1.
        -11    1    4    4    0    0  0.55129848648E-01  0.54731792622E-01  0.13993695601E-01  0.78936391944E-01  0.51100000000E-03 0.  1.
         11    1    4    4    0    0  0.43306844203E-01  0.23505581029E-01  0.15860224638E-01  0.51766813123E-01  0.51100000000E-03 0. -1.
</event>
<event>
 8    1  0.1042301E+005  0.1043930E+01  0.7957747E-01            NaN
         13   -1    0    0    0    0  0.00000000000E+00  0.00000000000E+00  0.74505805969E-08  0.10566000000E+00  0.10566000000E+00 0. -1.
     999900   -1    0    0    0    0 -0.00000000000E+00 -0.00000000000E+00 -0.74505805969E-08  0.93827000000E+00  0.93827000000E+00 0.  1.
     999902    2    1    2    0    0  0.20400198642E-01  0.83079812221E-02  0.75907872966E-02  0.10206317016E+01  0.10203657480E+01 0.  0.
     999903    2    3    3    0    0  0.60094558333E-01  0.10897748369E+00  0.43006743542E-01  0.13329620649E+00  0.20756945405E-01 0.  0.
         14    1    1    2    0    0 -0.20400198642E-01 -0.83079812221E-02 -0.75907872966E-02  0.23298298402E-01  0.00000000000E+00 0.  1.
     999901    1    3    3    0    0 -0.39694359690E-01 -0.10066950247E+00 -0.35415956246E-01  0.88733549511E+00  0.88000000000E+00 0.  1.
        -11    1    4    4    0    0  0.64500804798E-02  0.25938457558E-01  0.40578268746E-02  0.27039493313E-01  0.51100000000E-03 0. -1.
         11    1    4    4    0    0  0.53644477853E-01  0.83039026131E-01  0.38948916668E-01  0.10625671318E+00  0.51100000000E-03 0.  1.
</event>
<event>
 8    1  0.1042301E+005  0.1043930E+01  0.7957747E-01            NaN
         13   -1    0    0    0    0  0.00000000000E+00  0.00000000000E+00  0.74505805969E-08  0.10566000000E+00  0.10566000000E+00 0. -1.
     999900   -1    0    0    0    0 -0.00000000000E+00 -0.00000000000E+00 -0.74505805969E-08  0.93827000000E+00  0.93827000000E+00 0. -1.
     999902    2    1    2    0    0  0.19232179987E-01 -0.13833979077E-01  0.18753252370E-02  0.10201650559E+01  0.10198882138E+01 0.  0.
     999903    2    3    3    0    0  0.11371171383E+00 -0.58393508584E-01 -0.31474700124E-01  0.13335946378E+00  0.21305729870E-01 0.  0.
         14    1    1    2    0    0 -0.19232179987E-01  0.13833979077E-01 -0.18753252370E-02  0.23764944117E-01  0.00000000000E+00 0. -1.
     999901    1    3    3    0    0 -0.94479533847E-01  0.44559529506E-01  0.33350025361E-01  0.88680559210E+00  0.88000000000E+00 0.  1.
        -11    1    4    4    0    0  0.25617621515E-01 -0.96459947120E-02 -0.15365878875E-01  0.31395526762E-01  0.51100000000E-03 0.  1.
         11    1    4    4    0    0  0.88094092318E-01 -0.48747513872E-01 -0.16108821250E-01  0.10196393702E+00  0.51100000000E-03 0. -1.
</event>
<event>
 8    1  0.1042301E+005  0.1043930E+01  0.7957747E-01            NaN
         13   -1    0    0    0    0  0.00000000000E+00  0.00000000000E+00  0.74505805969E-08  0.10566000000E+00  0.10566000000E+00 0. -1.
     999900   -1    0    0    0    0 -0.00000000000E+00 -0.00000000000E+00 -0.74505805969E-08  0.93827000000E+00  0.93827000000E+00 0. -1.
     999902    2    1    2    0    0  0.21824901008E-01 -0.49225503451E-02  0.67215036959E-02  0.10205689979E+01  0.10203015942E+01 0.  0.
     999903    2    3    3    0    0 -0.12586016622E+00  0.25623738409E-02  0.33726023452E-02  0.12822482760E+00  0.24143006593E-01 0.  0.
         14    1    1    2    0    0 -0.21824901008E-01  0.49225503451E-02 -0.67215036959E-02  0.23361002073E-01  0.00000000000E+00 0.  1.
     999901    1    3    3    0    0  0.14768506723E+00 -0.74849241860E-02  0.33489013507E-02  0.89234417032E+00  0.88000000000E+00 0.  1.
        -11    1    4    4    0    0 -0.67913136849E-01 -0.17100743649E-02  0.13438159361E-01  0.69252897116E-01  0.51100000000E-03 0.  1.
         11    1    4    4    0    0 -0.57947029368E-01  0.42724482058E-02 -0.10065557016E-01  0.58971930486E-01  0.51100000000E-03 0. -1.
</event>
<event>
 8    1  0.1042301E+005  0.1043930E+01  0.7957747E-01            NaN
         13   -1    0    0    0    0  0.00000000000E+00  0.00000000000E+00  0.74505805969E-08  0.10566000000E+00  0.10566000000E+00 0.  1.
     999900   -1    0    0    0    0 -0.00000000000E+00 -0.00000000000E+00 -0.74505805969E-08  0.93827000000E+00  0.93827000000E+00 0. -1.
     999902    2    1    2    0    0 -0.12925362520E-01 -0.16611593022E-01 -0.10610518112E-01  0.10203589772E+01  0.10200866872E+01 0.  0.
     999903    2    3    3    0    0  0.92422182710E-01  0.52161397233E-01 -0.71064994847E-01  0.12935809440E+00  0.20508824350E-01 0.  0.
         14    1    1    2    0    0  0.12925362520E-01  0.16611593022E-01  0.10610518112E-01  0.23571022753E-01  0.00000000000E+00 0.  1.
     999901    1    3    3    0    0 -0.10534754523E+00 -0.68772990255E-01  0.60454476735E-01  0.89100088285E+00  0.88000000000E+00 0.  1.
        -11    1    4    4    0    0  0.17665230091E-01  0.19306015942E-01 -0.21153372690E-01  0.33652769617E-01  0.51100000000E-03 0.  1.
         11    1    4    4    0    0  0.74756952619E-01  0.32855381291E-01 -0.49911622157E-01  0.95705324784E-01  0.51100000000E-03 0. -1.
</event>
<event>
 8    1  0.1042301E+005  0.1043930E+01  0.7957747E-01            NaN
         13   -1    0    0    0    0  0.00000000000E+00  0.00000000000E+00  0.74505805969E-08  0.10566000000E+00  0.10566000000E+00 0.  1.
     999900   -1    0    0    0    0 -0.00000000000E+00 -0.00000000000E+00 -0.74505805969E-08  0.93827000000E+00  0.93827000000E+00 0. -1.
     999902    2    1    2    0    0 -0.18031468442E-01 -0.11771928872E-01  0.84447851829E-02  0.10207993588E+01  0.10205372626E+01 0.  0.
     999903    2    3    3    0    0  0.72923125063E-01  0.35517239013E-01  0.10045962308E+00  0.13008294276E+00  0.15817069636E-01 0.  0.
         14    1    1    2    0    0  0.18031468442E-01  0.11771928872E-01 -0.84447851829E-02  0.23130641157E-01  0.00000000000E+00 0.  1.
     999901    1    3    3    0    0 -0.90954593506E-01 -0.47289167885E-01 -0.92014837901E-01  0.89071641608E+00  0.88000000000E+00 0. -1.
        -11    1    4    4    0    0  0.26574207456E-01  0.18984847648E-01  0.48918089583E-01  0.58820519817E-01  0.51100000000E-03 0. -1.
         11    1    4    4    0    0  0.46348917607E-01  0.16532391365E-01  0.51541533501E-01  0.71262422946E-01  0.51100000000E-03 0.  1.
</event>
<event>
 8    1  0.1100897E+005  0.1043930E+01  0.7957747E-01            NaN
         13   -1    0    0    0    0  0.00000000000E+00  0.00000000000E+00  0.74505805969E-08  0.10566000000E+00  0.10566000000E+00 0.  1.
     999900   -1    0    0    0    0 -0.00000000000E+00 -0.00000000000E+00 -0.74505805969E-08  0.93827000000E+00  0.93827000000E+00 0.  1.
     999902    2    1    2    0    0  0.18193533026E-01 -0.16042514687E-01 -0.14501144659E-02  0.10196304166E+01  0.10193408246E+01 0.  0.
     999903    2    3    3    0    0  0.87649991459E-01  0.87762302264E-01 -0.34052758985E-01  0.13021343224E+00  0.20278186299E-01 0.  0.
         14    1    1    2    0    0 -0.18193533026E-01  0.16042514687E-01  0.14501144659E-02  0.24299583400E-01  0.00000000000E+00 0. -1.
     999901    1    3    3    0    0 -0.69456458433E-01 -0.10380481695E+00  0.32602644519E-01  0.88941698436E+00  0.88000000000E+00 0. -1.
        -11    1    4    4    0    0  0.39451454012E-01  0.25829230557E-01 -0.11102346746E-01  0.48446770782E-01  0.51100000000E-03 0.  1.
         11    1    4    4    0    0  0.48198537446E-01  0.61933071707E-01 -0.22950412239E-01  0.81766661458E-01  0.51100000000E-03 0. -1.
</event>
<event>
 8    1  0.1042301E+005  0.1043930E+01  0.7957747E-01            NaN
         13   -1    0    0    0    0  0.00000000000E+00  0.00000000000E+00  0.74505805969E-08  0.10566000000E+00  0.10566000000E+00 0. -1.
     999900   -1    0    0    0    0 -0.00000000000E+00 -0.00000000000E+00 -0.74505805969E-08  0.93827000000E+00  0.93827000000E+00 0. -1.
     999902    2    1    2    0    0 -0.21427227233E-01  0.35031330009E-02 -0.86479415752E-02  0.10205594009E+01  0.10202917749E+01 0.  0.
     999903    2    3    3    0    0 -0.89487256212E-01 -0.32173782318E-01 -0.91574556570E-01  0.13332671819E+00  0.18627750272E-01 0.  0.
         14    1    1    2    0    0  0.21427227233E-01 -0.35031330009E-02  0.86479415752E-02  0.23370599076E-01  0.00000000000E+00 0. -1.
     999901    1    3    3    0    0  0.68060028979E-01  0.35676915318E-01  0.82926614994E-01  0.88723268273E+00  0.88000000000E+00 0.  1.
        -11    1    4    4    0    0 -0.60894324183E-01 -0.26761093363E-01 -0.73194045730E-01  0.98903509983E-01  0.51100000000E-03 0. -1.
         11    1    4    4    0    0 -0.28592932029E-01 -0.54126889550E-02 -0.18380510840E-01  0.34423208210E-01  0.51100000000E-03 0.  1.
</event>
<event>
 8    1  0.1042301E+005  0.1043930E+01  0.7957747E-01            NaN
         13   -1    0    0    0    0  0.00000000000E+00  0.00000000000E+00  0.74505805969E-08  0.10566000000E+00  0.10566000000E+00 0. -1.
     999900   -1    0    0    0    0 -0.00000000000E+00 -0.00000000000E+00 -0.74505805969E-08  0.93827000000E+00  0.93827000000E+00 0.  1.
     999902    2    1    2    0    0  0.22560386982E-01  0.14353127159E-01  0.36374487007E-03  0.10171883540E+01  0.10168367774E+01 0.  0.
     999903    2    3    3    0    0  0.65934462332E-01 -0.89992020315E-01 -0.59390311459E-01  0.12795285794E+00  0.19970170682E-01 0.  0.
         14    1    1    2    0    0 -0.22560386982E-01 -0.14353127159E-01 -0.36374487007E-03  0.26741645992E-01  0.00000000000E+00 0. -1.
     999901    1    3    3    0    0 -0.43374075350E-01  0.10434514747E+00  0.59754056329E-01  0.88923549606E+00  0.88000000000E+00 0. -1.
        -11    1    4    4    0    0  0.19501181366E-01 -0.19922010879E-01 -0.23837476758E-01  0.36683361506E-01  0.51100000000E-03 0. -1.
         11    1    4    4    0    0  0.46433280966E-01 -0.70070009436E-01 -0.35552834701E-01  0.91269496437E-01  0.51100000000E-03 0.  1.
</event>
<event>
 8    1  0.1042301E+005  0.1043930E+01  0.7957747E-01            NaN
         13   -1    0    0    0    0  0.00000000000E+00  0.00000000000E+00  0.74505805969E-08  0.10566000000E+00  0.10566000000E+00 0. -1.
     999900   -1    0    0    0    0 -0.00000000000E+00 -0.00000000000E+00 -0.74505805969E-08  0.93827000000E+00  0.93827000000E+00 0. -1.
     999902    2    1    2    0    0 -0.10547882808E-01 -0.18878075179E-02  0.16876095865E-01  0.10239393957E+01  0.10237442365E+01 0.  0.
     999903    2    3    3    0    0  0.11094920709E+00 -0.35936566314E-01 -0.57400181682E-01  0.13184196478E+00  0.22053559079E-01 0.  0.
         14    1    1    2    0    0  0.10547882808E-01  0.18878075179E-02 -0.16876095865E-01  0.19990604308E-01  0.00000000000E+00 0.  1.
     999901    1    3    3    0    0 -0.12149708990E+00  0.34048758796E-01  0.74276277547E-01  0.89209743091E+00  0.88000000000E+00 0.  1.
        -11    1    4    4    0    0  0.81331876182E-01 -0.16767099184E-01 -0.35492565769E-01  0.90310536729E-01  0.51100000000E-03 0.  1.
         11    1    4    4    0    0  0.29617330908E-01 -0.19169467130E-01 -0.21907615913E-01  0.41531428053E-01  0.51100000000E-03 0. -1.
</event>
<event>
 8    1  0.1042301E+005  0.1043930E+01  0.7957747E-01            NaN
         13   -1    0    0    0    0  0.00000000000E+00  0.00000000000E+00  0.74505805969E-08  0.10566000000E+00  0.10566000000E+00 0.  1.
     999900   -1    0    0    0    0 -0.00000000000E+00 -0.00000000000E+00 -0.74505805969E-08  0.93827000000E+00  0.93827000000E+00 0. -1.
     999902    2    1    2    0    0 -0.56276269730E-03  0.23379837911E-01 -0.77938476912E-02  0.10192788827E+01  0.10189807472E+01 0.  0.
     999903    2    3    3    0    0  0.90962663638E-01 -0.86758852733E-01 -0.12948572190E-02  0.12767938083E+00  0.22339268806E-01 0.  0.
         14    1    1    2    0    0  0.56276269730E-03 -0.23379837911E-01  0.77938476912E-02  0.24651117306E-01  0.00000000000E+00 0. -1.
     999901    1    3    3    0    0 -0.91525426335E-01  0.11013869064E+00 -0.64989904722E-02  0.89159950186E+00  0.88000000000E+00 0.  1.
        -11    1    4    4    0    0  0.80220116404E-01 -0.68694074751E-01  0.50021730215E-02  0.10573280398E+00  0.51100000000E-03 0.  1.
         11    1    4    4    0    0  0.10742547233E-01 -0.18064777983E-01 -0.62970302405E-02  0.21946576851E-01  0.51100000000E-03 0. -1.
</event>
<event>
 8    1  0.1042301E+005  0.1043930E+01  0.7957747E-01            NaN
         13   -1    0    0    0    0  0.00000000000E+00  0.00000000000E+00  0.74505805969E-08  0.10566000000E+00  0.10566000000E+00 0.  1.
     999900   -1    0    0    0    0 -0.00000000000E+00 -0.00000000000E+00 -0.74505805969E-08  0.93827000000E+00  0.93827000000E+00 0. -1.
     999902    2    1    2    0    0 -0.15968343056E-01 -0.83582621493E-03  0.10772763813E-01  0.10246494651E+01  0.10244680509E+01 0.  0.
     999903    2    3    3    0    0 -0.35249720003E-01  0.12473775421E+00  0.32785408690E-01  0.13525357343E+00  0.20410683939E-01 0.  0.
         14    1    1    2    0    0  0.15968343056E-01  0.83582621493E-03 -0.10772763813E-01  0.19280534889E-01  0.00000000000E+00 0. -1.
     999901    1    3    3    0    0  0.19281376947E-01 -0.12557358042E+00 -0.22012644876E-01  0.88939589168E+00  0.88000000000E+00 0. -1.
        -11    1    4    4    0    0 -0.99418261989E-02  0.72266974181E-01  0.19172128934E-01  0.75426700275E-01  0.51100000000E-03 0. -1.
         11    1    4    4    0    0 -0.25307893804E-01  0.52470780026E-01  0.13613279755E-01  0.59826873159E-01  0.51100000000E-03 0.  1.
</event>
<event>
 8    1  0.1042301E+005  0.1043930E+01  0.7957747E-01            NaN
         13   -1    0    0    0    0  0.00000000000E+00  0.00000000000E+00  0.74505805969E-08  0.10566000000E+00  0.10566000000E+00 0.  1.
     999900   -1    0    0    0    0 -0.00000000000E+00 -0.00000000000E+00 -0.74505805969E-08  0.93827000000E+00  0.93827000000E+00 0. -1.
     999902    2    1    2    0    0 -0.20610548961E-01  0.48474028924E-02  0.58697280537E-02  0.10219585242E+01  0.10217223103E+01 0.  0.
     999903    2    3    3    0    0 -0.77699218485E-01  0.17521240859E-01 -0.10471910479E+00  0.13311116251E+00  0.20207133446E-01 0.  0.
         14    1    1    2    0    0  0.20610548961E-01 -0.48474028924E-02 -0.58697280537E-02  0.21971475842E-01  0.00000000000E+00 0. -1.
     999901    1    3    3    0    0  0.57088669525E-01 -0.12673837967E-01  0.11058883285E+00  0.88884736165E+00  0.88000000000E+00 0.  1.
        -11    1    4    4    0    0 -0.40271319197E-01  0.12719276529E-01 -0.39873501452E-01  0.58083701538E-01  0.51100000000E-03 0. -1.
         11    1    4    4    0    0 -0.37427899288E-01  0.48019643301E-02 -0.64845603339E-01  0.75027460973E-01  0.51100000000E-03 0.  1.
</event>
<event>
 8    1  0.1042301E+005  0.1043930E+01  0.7957747E-01            NaN
         13   -1    0    0    0    0  0.00000000000E+00  0.00000000000E+00  0.74505805969E-08  0.10566000000E+00  0.10566000000E+00 0.  1.
     999900   -1    0    0    0    0 -0.00000000000E+00 -0.00000000000E+00 -0.74505805969E-08  0.93827000000E+00  0.93827000000E+00 0.  1.
     999902    2    1    2    0    0 -0.13090869287E-01  0.10990385621E-01  0.16462315102E-01  0.10201988548E+01  0.10199228089E+01 0.  0.
     999903    2    3    3    0    0  0.79533650083E-01  0.92423502485E-01 -0.40198670253E-01  0.12979382258E+00  0.19047256572E-01 0.  0.
         14    1    1    2    0    0  0.13090869287E-01 -0.10990385621E-01 -0.16462315102E-01  0.23731145216E-01  0.00000000000E+00 0. -1.
     999901    1    3    3    0    0 -0.92624519370E-01 -0.81433116864E-01  0.56660985355E-01  0.89040503220E+00  0.88000000000E+00 0. -1.
        -11    1    4    4    0    0  0.11845300621E-01  0.25995036156E-01 -0.94149273335E-02  0.30082470464E-01  0.51100000000E-03 0.  1.
         11    1    4    4    0    0  0.67688349463E-01  0.66428466329E-01 -0.30783742920E-01  0.99711352117E-01  0.51100000000E-03 0. -1.
</event>
<event>
 8    1  0.1042301E+005  0.1043930E+01  0.7957747E-01            NaN
         13   -1    0    0    0    0  0.00000000000E+00  0.00000000000E+00  0.74505805969E-08  0.10566000000E+00  0.10566000000E+00 0.  1.
     999900   -1    0    0    0    0 -0.00000000000E+00 -0.00000000000E+00 -0.74505805969E-08  0.93827000000E+00  0.93827000000E+00 0. -1.
     999902    2    1    2    0    0  0.35632386382E-02  0.22854227833E-01 -0.47572816804E-02  0.10203155102E+01  0.10200422032E+01 0.  0.
     999903    2    3    3    0    0  0.11443381570E+00 -0.57123817252E-01 -0.82684675496E-02  0.12975327151E+00  0.20231540732E-01 0.  0.
         14    1    1    2    0    0 -0.35632386382E-02 -0.22854227833E-01  0.47572816804E-02  0.23614489798E-01  0.00000000000E+00 0.  1.
     999901    1    3    3    0    0 -0.11087057706E+00  0.79978045084E-01  0.35111858691E-02  0.89056223869E+00  0.88000000000E+00 0.  1.
        -11    1    4    4    0    0  0.10446136559E+00 -0.45946284192E-01 -0.40915192038E-02  0.11419386841E+00  0.51100000000E-03 0.  1.
         11    1    4    4    0    0  0.99724501057E-02 -0.11177533060E-01 -0.41769483458E-02  0.15559403103E-01  0.51100000000E-03 0. -1.
</event>
<event>
 8    1  0.1042301E+005  0.1043930E+01  0.7957747E-01            NaN
         13   -1    0    0    0    0  0.00000000000E+00  0.00000000000E+00  0.74505805969E-08  0.10566000000E+00  0.10566000000E+00 0. -1.
     999900   -1    0    0    0    0 -0.00000000000E+00 -0.00000000000E+00 -0.74505805969E-08  0.93827000000E+00  0.93827000000E+00 0. -1.
     999902    2    1    2    0    0 -0.21074809121E-01 -0.31727927658E-02  0.11483390812E-01  0.10197208600E+01  0.10194334456E+01 0.  0.
     999903    2    3    3    0    0  0.77453256016E-01  0.38963525351E-01 -0.91014526194E-01  0.12731452214E+00  0.20203474793E-01 0.  0.
         14    1    1    2    0    0  0.21074809121E-01  0.31727927658E-02 -0.11483390812E-01  0.24209139968E-01  0.00000000000E+00 0.  1.
     999901    1    3    3    0    0 -0.98528065137E-01 -0.42136318117E-01  0.10249791701E+00  0.89240633789E+00  0.88000000000E+00 0.  1.
        -11    1    4    4    0    0  0.20807764877E-01  0.81740685472E-02 -0.12150567975E-01  0.25449477380E-01  0.51100000000E-03 0.  1.
         11    1    4    4    0    0  0.56645491139E-01  0.30789456804E-01 -0.78863958219E-01  0.10186504476E+00  0.51100000000E-03 0. -1.
</event>
<event>
 8    1  0.1042301E+005  0.1043930E+01  0.7957747E-01            NaN
         13   -1    0    0    0    0  0.00000000000E+00  0.00000000000E+00  0.74505805969E-08  0.10566000000E+00  0.10566000000E+00 0. -1.
     999900   -1    0    0    0    0 -0.00000000000E+00 -0.00000000000E+00 -0.74505805969E-08  0.93827000000E+00  0.93827000000E+00 0.  1.
     999902    2    1    2    0    0 -0.31454953366E-02  0.15883998305E-01 -0.14679357045E-01  0.10220741297E+01  0.10218404218E+01 0.  0.
     999903    2    3    3    0    0  0.10254758261E-01  0.11655618783E+00 -0.64100115821E-01  0.13485551632E+00  0.19664191960E-01 0.  0.
         14    1    1    2    0    0  0.31454953366E-02 -0.15883998305E-01  0.14679357045E-01  0.21855870294E-01  0.00000000000E+00 0. -1.
     999901    1    3    3    0    0 -0.13400253597E-01 -0.10067218952E+00  0.49420758776E-01  0.88721861339E+00  0.88000000000E+00 0. -1.
        -11    1    4    4    0    0  0.11470951117E-01  0.10859856848E+00 -0.53697187567E-01  0.12169174528E+00  0.51100000000E-03 0. -1.
         11    1    4    4    0    0 -0.12161928561E-02  0.79576193495E-02 -0.10402928254E-01  0.13163771041E-01  0.51100000000E-03 0.  1.
</event>
<event>
 8    1  0.1042301E+005  0.1043930E+01  0.7957747E-01            NaN
         13   -1    0    0    0    0  0.00000000000E+00  0.00000000000E+00  0.74505805969E-08  0.10566000000E+00  0.10566000000E+00 0.  1.
     999900   -1    0    0    0    0 -0.00000000000E+00 -0.00000000000E+00 -0.74505805969E-08  0.93827000000E+00  0.93827000000E+00 0.  1.
     999902    2    1    2    0    0 -0.19842241804E-01 -0.11644306721E-01  0.72239439511E-02  0.10198159003E+01  0.10195307649E+01 0.  0.
     999903    2    3    3    0    0  0.47953953694E-01  0.11541953168E+00  0.18987951053E-01  0.12803120933E+00  0.20253353052E-01 0.  0.
         14    1    1    2    0    0  0.19842241804E-01  0.11644306721E-01 -0.72239439511E-02  0.24114099714E-01  0.00000000000E+00 0. -1.
     999901    1    3    3    0    0 -0.67796195498E-01 -0.12706383840E+00 -0.11764007102E-01  0.89178469095E+00  0.88000000000E+00 0.  1.
        -11    1    4    4    0    0  0.93746174509E-02  0.38412706785E-01 -0.12139791600E-02  0.39562031815E-01  0.51100000000E-03 0.  1.
         11    1    4    4    0    0  0.38579336243E-01  0.77006824896E-01  0.20201930213E-01  0.88469177519E-01  0.51100000000E-03 0. -1.
</event>
<event>
 8    1  0.1042301E+005  0.1043930E+01  0.7957747E-01            NaN
         13   -1    0    0    0    0  0.00000000000E+00  0.00000000000E+00  0.74505805969E-08  0.10566000000E+00  0.10566000000E+00 0.  1.
     999900   -1    0    0    0    0 -0.00000000000E+00 -0.00000000000E+00 -0.74505805969E-08  0.93827000000E+00  0.93827000000E+00 0.  1.
     999902    2    1    2    0    0 -0.68771411426E-02  0.86529291253E-03 -0.22950285405E-01  0.10199558597E+01  0.10196740638E+01 0.  0.
     999903    2    3    3    0    0  0.58806874505E-01  0.60888743158E-01  0.93584874923E-01  0.12782490067E+00  0.20381091378E-01 0.  0.
         14    1    1    2    0    0  0.68771411426E-02 -0.86529291253E-03  0.22950285405E-01  0.23974140282E-01  0.00000000000E+00 0.  1.
     999901    1    3    3    0    0 -0.65684015647E-01 -0.60023450245E-01 -0.11653516033E+00  0.89213095904E+00  0.88000000000E+00 0.  1.
        -11    1    4    4    0    0  0.43914003525E-01  0.53356193833E-01  0.65874238927E-01  0.95472507044E-01  0.51100000000E-03 0.  1.
         11    1    4    4    0    0  0.14892870980E-01  0.75325493243E-02  0.27710635996E-01  0.32352393631E-01  0.51100000000E-03 0. -1.
</event>
<event>
 8    1  0.1042301E+005  0.1043930E+01  0.7957747E-01            NaN
         13   -1    0    0    0    0  0.00000000000E+00  0.00000000000E+00  0.74505805969E-08  0.10566000000E+00  0.10566000000E+00 0.  1.
     999900   -1    0    0    0    0 -0.00000000000E+00 -0.00000000000E+00 -0.74505805969E-08  0.93827000000E+00  0.93827000000E+00 0. -1.
     999902    2    1    2    0    0  0.43092567444E-02 -0.19146335234E-01  0.17569859316E-01  0.10175889331E+01  0.10172479467E+01 0.  0.
     999903    2    3    3    0    0 -0.10277379166E+00 -0.31308124065E-01  0.69771765814E-01  0.12947873311E+00  0.18814678842E-01 0.  0.
         14    1    1    2    0    0 -0.43092567444E-02  0.19146335234E-01 -0.17569859316E-01  0.26341066854E-01  0.00000000000E+00 0. -1.
     999901    1    3    3    0    0  0.10708304840E+00  0.12161788831E-01 -0.52201906497E-01  0.88811020003E+00  0.88000000000E+00 0. -1.
        -11    1    4    4    0    0 -0.55024641366E-01 -0.96357700418E-02  0.43636880699E-01  0.70887218170E-01  0.51100000000E-03 0.  1.
         11    1    4    4    0    0 -0.47749150289E-01 -0.21672354023E-01  0.26134885114E-01  0.58591514942E-01  0.51100000000E-03 0. -1.
</event>
<event>
 8    1  0.1042301E+005  0.1043930E+01  0.7957747E-01            NaN
         13   -1    0    0    0    0  0.00000000000E+00  0.00000000000E+00  0.74505805969E-08  0.10566000000E+00  0.10566000000E+00 0. -1.
     999900   -1    0    0    0    0 -0.00000000000E+00 -0.00000000000E+00 -0.74505805969E-08  0.93827000000E+00  0.93827000000E+00 0. -1.
     999902    2    1    2    0    0 -0.19036224093E-01 -0.84372715897E-02  0.11457505023E-01  0.10201636414E+01  0.10198867660E+01 0.  0.
     999903    2    3    3    0    0  0.13646980508E-01  0.11213339058E+00 -0.58479490355E-01  0.12859386861E+00  0.18878424000E-01 0.  0.
         14    1    1    2    0    0  0.19036224093E-01  0.84372715897E-02 -0.11457505023E-01  0.23766358597E-01  0.00000000000E+00 0. -1.
     999901    1    3    3    0    0 -0.32683204601E-01 -0.12057066217E+00  0.69936995378E-01  0.89156977279E+00  0.88000000000E+00 0.  1.
        -11    1    4    4    0    0  0.16969432496E-01  0.83141756335E-01 -0.48554366564E-01  0.97766563400E-01  0.51100000000E-03 0.  1.
         11    1    4    4    0    0 -0.33224519882E-02  0.28991634241E-01 -0.99251237907E-02  0.30827305209E-01  0.51100000000E-03 0. -1.
</event>
<event>
 8    1  0.1042301E+005  0.1043930E+01  0.7957747E-01            NaN
         13   -1    0    0    0    0  0.00000000000E+00  0.00000000000E+00  0.74505805969E-08  0.10566000000E+00  0.10566000000E+00 0. -1.
     999900   -1    0    0    0    0 -0.00000000000E+00 -0.00000000000E+00 -0.74505805969E-08  0.93827000000E+00  0.93827000000E+00 0. -1.
     999902    2    1    2    0    0 -0.19677360430E-01 -0.11877021428E-01  0.91733469484E-03  0.10209277468E+01  0.10206685850E+01 0.  0.
     999903    2    3    3    0    0 -0.69172270470E-01 -0.10960368758E+00  0.27615636485E-01  0.13373382955E+00  0.18009510109E-01 0.  0.
         14    1    1    2    0    0  0.19677360430E-01  0.11877021428E-01 -0.91733469484E-03  0.23002253247E-01  0.00000000000E+00 0. -1.
     999901    1    3    3    0    0  0.49494910041E-01  0.97726666157E-01 -0.26698301790E-01  0.88719391720E+00  0.88000000000E+00 0. -1.
        -11    1    4    4    0    0 -0.26800053358E-01 -0.32340136703E-01  0.15550267175E-01  0.44790615448E-01  0.51100000000E-03 0. -1.
         11    1    4    4    0    0 -0.42372217112E-01 -0.77263550882E-01  0.12065369309E-01  0.88943214106E-01  0.51100000000E-03 0.  1.
</event>
<event>
 8    1  0.1042301E+005  0.1043930E+01  0.7957747E-01            NaN
         13   -1    0    0    0    0  0.00000000000E+00  0.00000000000E+00  0.74505805969E-08  0.10566000000E+00  0.10566000000E+00 0. -1.
     999900   -1    0    0    0    0 -0.00000000000E+00 -0.00000000000E+00 -0.74505805969E-08  0.93827000000E+00  0.93827000000E+00 0. -1.
     999902    2    1    2    0    0  0.15395393573E-01  0.16579665533E-01 -0.56973045269E-02  0.10205984177E+01  0.10203316949E+01 0.  0.
     999903    2    3    3    0    0 -0.69046426449E-02 -0.12064622715E+00 -0.40698752277E-01  0.12899685953E+00  0.19509359663E-01 0.  0.
         14    1    1    2    0    0 -0.15395393573E-01 -0.16579665533E-01  0.56973045269E-02  0.23331582272E-01  0.00000000000E+00 0. -1.
     999901    1    3    3    0    0  0.22300036218E-01  0.13722589269E+00  0.35001447750E-01  0.89160155820E+00  0.88000000000E+00 0. -1.
        -11    1    4    4    0    0 -0.12973990853E-01 -0.68108885035E-01 -0.26579084019E-01  0.74255326325E-01  0.51100000000E-03 0. -1.
         11    1    4    4    0    0  0.60693482085E-02 -0.52537342120E-01 -0.14119668258E-01  0.54741533203E-01  0.51100000000E-03 0.  1.
</event>
<event>
 8    1  0.1042301E+005  0.1043930E+01  0.7957747E-01            NaN
         13   -1    0    0    0    0  0.00000000000E+00  0.00000000000E+00  0.74505805969E-08  0.10566000000E+00  0.10566000000E+00 0.  1.
     999900   -1    0    0    0    0 -0.00000000000E+00 -0.00000000000E+00 -0.74505805969E-08  0.93827000000E+00  0.93827000000E+00 0. -1.
     999902    2    1    2    0    0  0.94897311489E-02  0.22155436377E-01 -0.15792463486E-02  0.10197760691E+01  0.10194899797E+01 0.  0.
     999903    2    3    3    0    0  0.87649242270E-01  0.23968491958E-01  0.92599883750E-01  0.13130440108E+00  0.20229409162E-01 0.  0.
         14    1    1    2    0    0 -0.94897311489E-02 -0.22155436377E-01  0.15792463486E-02  0.24153930889E-01  0.00000000000E+00 0.  1.
     999901    1    3    3    0    0 -0.78159511121E-01 -0.18130555810E-02 -0.94179130099E-01  0.88847166803E+00  0.88000000000E+00 0.  1.
        -11    1    4    4    0    0  0.29090237626E-01 -0.16028384042E-02  0.31061682604E-01  0.42589907998E-01  0.51100000000E-03 0. -1.
         11    1    4    4    0    0  0.58559004644E-01  0.25571330362E-01  0.61538201146E-01  0.88714493081E-01  0.51100000000E-03 0.  1.
</event>
<event>
 8    1  0.1042301E+005  0.1043930E+01  0.7957747E-01            NaN
         13   -1    0    0    0    0  0.00000000000E+00  0.00000000000E+00  0.74505805969E-08  0.10566000000E+00  0.10566000000E+00 0.  1.
     999900   -1    0    0    0    0 -0.00000000000E+00 -0.00000000000E+00 -0.74505805969E-08  0.93827000000E+00  0.93827000000E+00 0.  1.
     999902    2    1    2    0    0 -0.12298214083E-01  0.21533304710E-01 -0.73018594154E-02  0.10180795371E+01  0.10177512945E+01 0.  0.
     999903    2    3    3    0    0  0.16455258924E-01  0.12370318160E+00 -0.33844068176E-01  0.13130451783E+00  0.22851756354E-01 0.  0.
         14    1    1    2    0    0  0.12298214083E-01 -0.21533304710E-01  0.73018594154E-02  0.25850462903E-01  0.00000000000E+00 0.  1.
     999901    1    3    3    0    0 -0.28753473007E-01 -0.10216987689E+00  0.26542208761E-01  0.88677501927E+00  0.88000000000E+00 0. -1.
        -11    1    4    4    0    0  0.16316827909E-02  0.45868648159E-01 -0.21045523882E-02  0.45948727233E-01  0.51100000000E-03 0. -1.
         11    1    4    4    0    0  0.14823576133E-01  0.77834533437E-01 -0.31739515788E-01  0.85355790595E-01  0.51100000000E-03 0.  1.
</event>
<event>
 8    1  0.1042301E+005  0.1043930E+01  0.7957747E-01            NaN
         13   -1    0    0    0    0  0.00000000000E+00  0.00000000000E+00  0.74505805969E-08  0.10566000000E+00  0.10566000000E+00 0. -1.
     999900   -1    0    0    0    0 -0.00000000000E+00 -0.00000000000E+00 -0.74505805969E-08  0.93827000000E+00  0.93827000000E+00 0.  1.
     999902    2    1    2    0    0 -0.21583328172E-01  0.38803863112E-02 -0.91521520864E-02  0.10201674383E+01  0.10198906523E+01 0.  0.
     999903    2    3    3    0    0  0.92801381142E-01 -0.71268364504E-01 -0.49624613399E-01  0.12866913955E+00  0.20046672931E-01 0.  0.
         14    1    1    2    0    0  0.21583328172E-01 -0.38803863112E-02  0.91521520864E-02  0.23762561746E-01  0.00000000000E+00 0. -1.
     999901    1    3    3    0    0 -0.11438470931E+00  0.75148750816E-01  0.40472461313E-01  0.89149829871E+00  0.88000000000E+00 0. -1.
        -11    1    4    4    0    0  0.65934888883E-01 -0.38604607904E-01 -0.32794019097E-01  0.83147063285E-01  0.51100000000E-03 0.  1.
         11    1    4    4    0    0  0.26866492259E-01 -0.32663756601E-01 -0.16830594302E-01  0.45522076261E-01  0.51100000000E-03 0. -1.
</event>
<event>
 8    1  0.1042301E+005  0.1043930E+01  0.7957747E-01            NaN
         13   -1    0    0    0    0  0.00000000000E+00  0.00000000000E+00  0.74505805969E-08  0.10566000000E+00  0.10566000000E+00 0. -1.
     999900   -1    0    0    0    0 -0.00000000000E+00 -0.00000000000E+00 -0.74505805969E-08  0.93827000000E+00  0.93827000000E+00 0. -1.
     999902    2    1    2    0    0 -0.16748562824E-01 -0.13605886640E-01 -0.34073660028E-02  0.10220840702E+01  0.10218505770E+01 0.  0.
     999903    2    3    3    0    0  0.28052853423E-01 -0.16088786592E-01 -0.12678181570E+00  0.13234557681E+00  0.19897519169E-01 0.  0.
         14    1    1    2    0    0  0.16748562824E-01  0.13605886640E-01  0.34073660028E-02  0.21845929850E-01  0.00000000000E+00 0. -1.
     999901    1    3    3    0    0 -0.44801416247E-01  0.24828999517E-02  0.12337444970E+00  0.88973849334E+00  0.88000000000E+00 0.  1.
        -11    1    4    4    0    0  0.24957446420E-01 -0.20237413157E-01 -0.11609027520E+00  0.12045596764E+00  0.51100000000E-03 0. -1.
         11    1    4    4    0    0  0.30954070031E-02  0.41486265656E-02 -0.10691540509E-01  0.11889609176E-01  0.51100000000E-03 0.  1.
</event>
<event>
 8    1  0.1042301E+005  0.1043930E+01  0.7957747E-01            NaN
         13   -1    0    0    0    0  0.00000000000E+00  0.00000000000E+00  0.74505805969E-08  0.10566000000E+00  0.10566000000E+00 0.  1.
     999900   -1    0    0    0    0 -0.00000000000E+00 -0.00000000000E+00 -0.74505805969E-08  0.93827000000E+00  0.93827000000E+00 0. -1.
     999902    2    1    2    0    0 -0.11822332141E-01  0.23366401965E-01 -0.22877233488E-02  0.10176433122E+01  0.10173037506E+01 0.  0.
     999903    2    3    3    0    0 -0.12479884613E+00  0.86505931920E-02  0.28359997052E-01  0.12976971166E+00  0.19654614563E-01 0.  0.
         14    1    1    2    0    0  0.11822332141E-01 -0.23366401965E-01  0.22877233488E-02  0.26286687812E-01  0.00000000000E+00 0.  1.
     999901    1    3    3    0    0  0.11297651399E+00  0.14715808773E-01 -0.30647720401E-01  0.88787360052E+00  0.88000000000E+00 0. -1.
        -11    1    4    4    0    0 -0.19378199420E-01 -0.47555988134E-02  0.83272079621E-02  0.21627155298E-01  0.51100000000E-03 0.  1.
         11    1    4    4    0    0 -0.10542064671E+00  0.13406192005E-01  0.20032789090E-01  0.10814255637E+00  0.51100000000E-03 0. -1.
</event>
<event>
 8    1  0.1042301E+005  0.1043930E+01  0.7957747E-01            NaN
         13   -1    0    0    0    0  0.00000000000E+00  0.00000000000E+00  0.74505805969E-08  0.10566000000E+00  0.10566000000E+00 0.  1.
     999900   -1    0    0    0    0 -0.00000000000E+00 -0.00000000000E+00 -0.74505805969E-08  0.93827000000E+00  0.93827000000E+00 0. -1.
     999902    2    1    2    0    0 -0.18226870501E-01 -0.13089130452E-01 -0.81233833194E-02  0.10200650990E+01  0.10197858955E+01 0.  0.
     999903    2    3    3    0    0 -0.12013105686E-01  0.12058686173E+00  0.37987390607E-01  0.12875477971E+00  0.21195412811E-01 0.  0.
         14    1    1    2    0    0  0.18226870501E-01  0.13089130452E-01  0.81233833194E-02  0.23864901022E-01  0.00000000000E+00 0. -1.
     999901    1    3    3    0    0 -0.62137648150E-02 -0.13367599218E+00 -0.46110773926E-01  0.89131031927E+00  0.88000000000E+00 0. -1.
        -11    1    4    4    0    0 -0.92300656576E-02  0.18259759525E-01  0.36946602956E-02  0.20797224951E-01  0.51100000000E-03 0.  1.
         11    1    4    4    0    0 -0.27830400280E-02  0.10232710220E+00  0.34292730311E-01  0.10795755476E+00  0.51100000000E-03 0. -1.
</event>
<event>
 8    1  0.1042301E+005  0.1043930E+01  0.7957747E-01            NaN
         13   -1    0    0    0    0  0.00000000000E+00  0.00000000000E+00  0.74505805969E-08  0.10566000000E+00  0.10566000000E+00 0. -1.
     999900   -1    0    0    0    0 -0.00000000000E+00 -0.00000000000E+00 -0.74505805969E-08  0.93827000000E+00  0.93827000000E+00 0.  1.
     999902    2    1    2    0    0 -0.40723496073E-02 -0.15413079946E-01 -0.17581798415E-01  0.10201967596E+01  0.10199206644E+01 0.  0.
     999903    2    3    3    0    0 -0.71213134193E-01 -0.10271752544E-01  0.10532837275E+00  0.12910684921E+00  0.19942242266E-01 0.  0.
         14    1    1    2    0    0  0.40723496073E-02  0.15413079946E-01  0.17581798415E-01  0.23733240408E-01  0.00000000000E+00 0. -1.
     999901    1    3    3    0    0  0.67140784586E-01 -0.51413274023E-02 -0.12291017116E+00  0.89108991038E+00  0.88000000000E+00 0.  1.
        -11    1    4    4    0    0 -0.53045294452E-01 -0.78006874405E-02  0.91813730320E-01  0.10632345077E+00  0.51100000000E-03 0. -1.
         11    1    4    4    0    0 -0.18167839741E-01 -0.24710651036E-02  0.13514642427E-01  0.22783398441E-01  0.51100000000E-03 0.  1.
</event>
<event>
 7    1  0.1042301E+005  0.1043930E+01  0.7957747E-01            NaN
         13   -1    0    0    0    0  0.00000000000E+00  0.00000000000E+00  0.74505805969E-08  0.10566000000E+00  0.10566000000E+00 0.  1.
     999900   -1    0    0    0    0 -0.00000000000E+00 -0.00000000000E+00 -0.74505805969E-08  0.93827000000E+00  0.93827000000E+00 0.  1.
     999902    2    1    2    0    0  0.74142517093E-03 -0.19565006469E-01  0.13453098100E-01  0.10201744735E+01  0.10198978534E+01 0.  0.
         14    1    1    2    0    0 -0.74142517093E-03  0.19565006469E-01 -0.13453098100E-01  0.23755526471E-01  0.00000000000E+00 0. -1.
     999901    1    3    3    0    0 -0.10607576154E+00 -0.63715731042E-01 -0.36146427689E-01  0.88939211027E+00  0.88000000000E+00 0.  1.
        -11    1    3    3    0    0  0.72087616858E-01  0.16811205598E-01  0.17250134322E-01  0.76007035155E-01  0.51100000000E-03 0. -1.
         11    1    3    3    0    0  0.34729569855E-01  0.27339518975E-01  0.32349391467E-01  0.54775328109E-01  0.51100000000E-03 0.  1.
</event>
<event>
 8    1  0.1042301E+005  0.1043930E+01  0.7957747E-01            NaN
         13   -1    0    0    0    0  0.00000000000E+00  0.00000000000E+00  0.74505805969E-08  0.10566000000E+00  0.10566000000E+00 0.  1.
     999900   -1    0    0    0    0 -0.00000000000E+00 -0.00000000000E+00 -0.74505805969E-08  0.93827000000E+00  0.93827000000E+00 0.  1.
     999902    2    1    2    0    0  0.33219760301E-03  0.62509047677E-02  0.23624329464E-01  0.10194904192E+01  0.10191974400E+01 0.  0.
     999903    2    3    3    0    0 -0.13914991968E-01  0.86637157919E-01  0.97456712373E-01  0.13263296007E+00  0.19851125296E-01 0.  0.
         14    1    1    2    0    0 -0.33219760301E-03 -0.62509047677E-02 -0.23624329464E-01  0.24439580771E-01  0.00000000000E+00 0. -1.
     999901    1    3    3    0    0  0.14247189571E-01 -0.80386253152E-01 -0.73832382909E-01  0.88685745916E+00  0.88000000000E+00 0.  1.
        -11    1    4    4    0    0 -0.16264899613E-01  0.41188108202E-01  0.44037641529E-01  0.62454641214E-01  0.51100000000E-03 0. -1.
         11    1    4    4    0    0  0.23499076446E-02  0.45449049717E-01  0.53419070843E-01  0.70178318852E-01  0.51100000000E-03 0.  1.
</event>
<event>
 8    1  0.1042301E+005  0.1043930E+01  0.7957747E-01            NaN
         13   -1    0    0    0    0  0.00000000000E+00  0.00000000000E+00  0.74505805969E-08  0.10566000000E+00  0.10566000000E+00 0.  1.
     999900   -1    0    0    0    0 -0.00000000000E+00 -0.00000000000E+00 -0.74505805969E-08  0.93827000000E+00  0.93827000000E+00 0. -1.
     999902    2    1    2    0    0  0.17380590195E-01 -0.10174004376E-01 -0.11612145390E-01  0.10206826948E+01  0.10204179174E+01 0.  0.
     999903    2    3    3    0    0  0.63433738359E-01  0.20389213349E-01  0.11057850895E+00  0.13052228295E+00  0.19206783214E-01 0.  0.
         14    1    1    2    0    0 -0.17380590195E-01  0.10174004376E-01  0.11612145390E-01  0.23247305244E-01  0.00000000000E+00 0.  1.
     999901    1    3    3    0    0 -0.46053148164E-01 -0.30563217724E-01 -0.12219065434E+00  0.89016041180E+00  0.88000000000E+00 0. -1.
        -11    1    4    4    0    0  0.39075258919E-01  0.14814500194E-01  0.85225780894E-01  0.94921231163E-01  0.51100000000E-03 0. -1.
         11    1    4    4    0    0  0.24358479440E-01  0.55747131548E-02  0.25352728060E-01  0.35601051789E-01  0.51100000000E-03 0.  1.
</event>
<event>
 8    1  0.1042301E+005  0.1043930E+01  0.7957747E-01            NaN
         13   -1    0    0    0    0  0.00000000000E+00  0.00000000000E+00  0.74505805969E-08  0.10566000000E+00  0.10566000000E+00 0.  1.
     999900   -1    0    0    0    0 -0.00000000000E+00 -0.00000000000E+00 -0.74505805969E-08  0.93827000000E+00  0.93827000000E+00 0. -1.
     999902    2    1    2    0    0  0.94045491304E-02 -0.18386490228E-01  0.11561596878E-01  0.10202618972E+01  0.10199873332E+01 0.  0.
     999903    2    3    3    0    0  0.10097498230E-01  0.11158823022E+00  0.61232113469E-01  0.12932920146E+00  0.20561566961E-01 0.  0.
         14    1    1    2    0    0 -0.94045491304E-02  0.18386490228E-01 -0.11561596878E-01  0.23668102789E-01  0.00000000000E+00 0. -1.
     999901    1    3    3    0    0 -0.69294909936E-03 -0.12997472045E+00 -0.49670516591E-01  0.89093269575E+00  0.88000000000E+00 0. -1.
        -11    1    4    4    0    0  0.96075565945E-02  0.64714717855E-01  0.46220282651E-01  0.80105402441E-01  0.51100000000E-03 0. -1.
         11    1    4    4    0    0  0.48994163530E-03  0.46873512370E-01  0.15011830817E-01  0.49223799022E-01  0.51100000000E-03 0.  1.
</event>
<event>
 8    1  0.1042301E+005  0.1043930E+01  0.7957747E-01            NaN
         13   -1    0    0    0    0  0.00000000000E+00  0.00000000000E+00  0.74505805969E-08  0.10566000000E+00  0.10566000000E+00 0.  1.
     999900   -1    0    0    0    0 -0.00000000000E+00 -0.00000000000E+00 -0.74505805969E-08  0.93827000000E+00  0.93827000000E+00 0. -1.
     999902    2    1    2    0    0  0.21465276261E-01  0.12973610416E-02 -0.98721759904E-02  0.10202677708E+01  0.10199933446E+01 0.  0.
     999903    2    3    3    0    0 -0.54825588262E-02  0.61261373391E-01 -0.11460037707E+00  0.13162281096E+00  0.20206524167E-01 0.  0.
         14    1    1    2    0    0 -0.21465276261E-01 -0.12973610416E-02  0.98721759904E-02  0.23662229173E-01  0.00000000000E+00 0.  1.
     999901    1    3    3    0    0  0.26947835087E-01 -0.59964012349E-01  0.10472820108E+00  0.88864495987E+00  0.88000000000E+00 0.  1.
        -11    1    4    4    0    0 -0.11246275108E-01  0.46863411284E-01 -0.75688582988E-01  0.89731158115E-01  0.51100000000E-03 0.  1.
         11    1    4    4    0    0  0.57637162817E-02  0.14397962107E-01 -0.38911794086E-01  0.41891652847E-01  0.51100000000E-03 0. -1.
</event>
<event>
 8    1  0.1042301E+005  0.1043930E+01  0.7957747E-01            NaN
         13   -1    0    0    0    0  0.00000000000E+00  0.00000000000E+00  0.74505805969E-08  0.10566000000E+00  0.10566000000E+00 0.  1.
     999900   -1    0    0    0    0 -0.00000000000E+00 -0.00000000000E+00 -0.74505805969E-08  0.93827000000E+00  0.93827000000E+00 0.  1.
     999902    2    1    2    0    0 -0.10159745303E-02 -0.14139635950E-01 -0.19548171352E-01  0.10197826914E+01  0.10194967608E+01 0.  0.
     999903    2    3    3    0    0 -0.60168329683E-01  0.18805578602E-01 -0.11438013873E+00  0.13210172940E+00  0.19853792848E-01 0.  0.
         14    1    1    2    0    0  0.10159745303E-02  0.14139635950E-01  0.19548171352E-01  0.24147308592E-01  0.00000000000E+00 0. -1.
     999901    1    3    3    0    0  0.59152355153E-01 -0.32945214551E-01  0.94831967376E-01  0.88768096201E+00  0.88000000000E+00 0. -1.
        -11    1    4    4    0    0 -0.30026818638E-01  0.10879482588E-02 -0.41182027359E-01  0.50980525374E-01  0.51100000000E-03 0.  1.
         11    1    4    4    0    0 -0.30141511045E-01  0.17717630343E-01 -0.73198111369E-01  0.81121204022E-01  0.51100000000E-03 0. -1.
</event>
<event>
 8    1  0.1042301E+005  0.1043930E+01  0.7957747E-01            NaN
         13   -1    0    0    0    0  0.00000000000E+00  0.00000000000E+00  0.74505805969E-08  0.10566000000E+00  0.10566000000E+00 0.  1.
     999900   -1    0    0    0    0 -0.00000000000E+00 -0.00000000000E+00 -0.74505805969E-08  0.93827000000E+00  0.93827000000E+00 0. -1.
     999902    2    1    2    0    0 -0.13697442145E-01 -0.17907103689E-01  0.74068099846E-02  0.10201993212E+01  0.10199232862E+01 0.  0.
     999903    2    3    3    0    0  0.10266745907E+00 -0.69383105818E-01 -0.34915959953E-01  0.13004102856E+00  0.18355444058E-01 0.  0.
         14    1    1    2    0    0  0.13697442145E-01  0.17907103689E-01 -0.74068099846E-02  0.23730678835E-01  0.00000000000E+00 0. -1.
     999901    1    3    3    0    0 -0.11636490121E+00  0.51476002129E-01  0.42322769937E-01  0.89015829260E+00  0.88000000000E+00 0.  1.
        -11    1    4    4    0    0  0.48202634770E-01 -0.43472935871E-01 -0.19683802408E-01  0.67831433349E-01  0.51100000000E-03 0.  1.
         11    1    4    4    0    0  0.54464824297E-01 -0.25910169947E-01 -0.15232157545E-01  0.62209595216E-01  0.51100000000E-03 0. -1.
</event>
<event>
 8    1  0.1042301E+005  0.1043930E+01  0.7957747E-01            NaN
         13   -1    0    0    0    0  0.00000000000E+00  0.00000000000E+00  0.74505805969E-08  0.10566000000E+00  0.10566000000E+00 0.  1.
     999900   -1    0    0    0    0 -0.00000000000E+00 -0.00000000000E+00 -0.74505805969E-08  0.93827000000E+00  0.93827000000E+00 0. -1.
     999902    2    1    2    0    0  0.76341217035E-02  0.55992830082E-02 -0.21089445144E-01  0.10208129829E+01  0.10205511989E+01 0.  0.
     999903    2    3    3    0    0 -0.66696453320E-02 -0.11990195693E+00 -0.46050091112E-01  0.13144343492E+00  0.27125675045E-01 0.  0.
         14    1    1    2    0    0 -0.76341217035E-02 -0.55992830082E-02  0.21089445144E-01  0.23117017127E-01  0.00000000000E+00 0.  1.
     999901    1    3    3    0    0  0.14303767036E-01  0.12550123994E+00  0.24960645968E-01  0.88936954795E+00  0.88000000000E+00 0.  1.
        -11    1    4    4    0    0 -0.15941333694E-01 -0.98499390323E-01 -0.37203507661E-01  0.10649233830E+00  0.51100000000E-03 0.  1.
         11    1    4    4    0    0  0.92716883624E-02 -0.21402566612E-01 -0.88465834508E-02  0.24951096617E-01  0.51100000000E-03 0. -1.
</event>
<event>
 8    1  0.1042301E+005  0.1043930E+01  0.7957747E-01            NaN
         13   -1    0    0    0    0  0.00000000000E+00  0.00000000000E+00  0.74505805969E-08  0.10566000000E+00  0.10566000000E+00 0.  1.
     999900   -1    0    0    0    0 -0.00000000000E+00 -0.00000000000E+00 -0.74505805969E-08  0.93827000000E+00  0.93827000000E+00 0. -1.
     999902    2    1    2    0    0  0.77764320718E-02 -0.73090331953E-02  0.20875572200E-01  0.10204846513E+01  0.10202152906E+01 0.  0.
     999903    2    3    3    0    0  0.34520641816E-01  0.10816338831E+00  0.63561620566E-01  0.13151264294E+00  0.19091944980E-01 0.  0.
         14    1    1    2    0    0 -0.77764320718E-02  0.73090331953E-02 -0.20875572200E-01  0.23445348722E-01  0.00000000000E+00 0. -1.
     999901    1    3    3    0    0 -0.26744209744E-01 -0.11547242150E+00 -0.42686048366E-01  0.88897200834E+00  0.88000000000E+00 0.  1.
        -11    1    4    4    0    0  0.18608571034E-01  0.67058951989E-01  0.28562970482E-01  0.75228228489E-01  0.51100000000E-03 0.  1.
         11    1    4    4    0    0  0.15912070781E-01  0.41104436316E-01  0.34998650085E-01  0.56284414452E-01  0.51100000000E-03 0. -1.
</event>
<event>
 8    1  0.1042301E+005  0.1043930E+01  0.7957747E-01            NaN
         13   -1    0    0    0    0  0.00000000000E+00  0.00000000000E+00  0.74505805969E-08  0.10566000000E+00  0.10566000000E+00 0.  1.
     999900   -1    0    0    0    0 -0.00000000000E+00 -0.00000000000E+00 -0.74505805969E-08  0.93827000000E+00  0.93827000000E+00 0.  1.
     999902    2    1    2    0    0  0.60810050861E-02 -0.21208828941E-01  0.10044003689E-01  0.10196879898E+01  0.10193997849E+01 0.  0.
     999903    2    3    3    0    0 -0.38050929650E-01  0.11809554701E+00  0.23064058019E-01  0.12754290148E+00  0.18461025813E-01 0.  0.
         14    1    1    2    0    0 -0.60810050861E-02  0.21208828941E-01 -0.10044003689E-01  0.24242010190E-01  0.00000000000E+00 0. -1.
     999901    1    3    3    0    0  0.44131934736E-01 -0.13930437595E+00 -0.13020054330E-01  0.89214508833E+00  0.88000000000E+00 0. -1.
        -11    1    4    4    0    0 -0.12243106384E-01  0.53871165323E-01  0.18145334025E-01  0.58150755585E-01  0.51100000000E-03 0. -1.
         11    1    4    4    0    0 -0.25807823267E-01  0.64224381687E-01  0.49187239936E-02  0.69392145892E-01  0.51100000000E-03 0.  1.
</event>
<event>
 8    1  0.1042301E+005  0.1043930E+01  0.7957747E-01            NaN
         13   -1    0    0    0    0  0.00000000000E+00  0.00000000000E+00  0.74505805969E-08  0.10566000000E+00  0.10566000000E+00 0. -1.
     999900   -1    0    0    0    0 -0.00000000000E+00 -0.00000000000E+00 -0.74505805969E-08  0.93827000000E+00  0.93827000000E+00 0. -1.
     999902    2    1    2    0    0  0.10933536303E-01 -0.15751155253E-01 -0.14666158937E-01  0.10197900471E+01  0.10195042927E+01 0.  0.
     999903    2    3    3    0    0 -0.11533917134E+00 -0.51394963065E-01  0.18845540569E-01  0.12943151722E+00  0.21279017281E-01 0.  0.
         14    1    1    2    0    0 -0.10933536303E-01  0.15751155253E-01  0.14666158937E-01  0.24139952897E-01  0.00000000000E+00 0.  1.
     999901    1    3    3    0    0  0.12627270764E+00  0.35643807812E-01 -0.33511699506E-01  0.89035852988E+00  0.88000000000E+00 0.  1.
        -11    1    4    4    0    0 -0.65063623402E-01 -0.38493346787E-01  0.17023893608E-01  0.77492495841E-01  0.51100000000E-03 0. -1.
         11    1    4    4    0    0 -0.50275547940E-01 -0.12901616278E-01  0.18216469607E-02  0.51939021380E-01  0.51100000000E-03 0.  1.
</event>
<event>
 8    1  0.1042301E+005  0.1043930E+01  0.7957747E-01            NaN
         13   -1    0    0    0    0  0.00000000000E+00  0.00000000000E+00  0.74505805969E-08  0.10566000000E+00  0.10566000000E+00 0. -1.
     999900   -1    0    0    0    0 -0.00000000000E+00 -0.00000000000E+00 -0.74505805969E-08  0.93827000000E+00  0.93827000000E+00 0.  1.
     999902    2    1    2    0    0 -0.10388687878E-01 -0.20837712036E-01 -0.12640321323E-01  0.10174363630E+01  0.10170913626E+01 0.  0.
     999903    2    3    3    0    0 -0.86073516781E-01 -0.79077180976E-01 -0.56183891786E-01  0.13119933398E+00  0.19869189663E-01 0.  0.
         14    1    1    2    0    0  0.10388687878E-01  0.20837712036E-01  0.12640321323E-01  0.26493637007E-01  0.00000000000E+00 0. -1.
     999901    1    3    3    0    0  0.75684828903E-01  0.58239468940E-01  0.43543570463E-01  0.88623702901E+00  0.88000000000E+00 0. -1.
        -11    1    4    4    0    0 -0.55667693123E-01 -0.61515635022E-01 -0.33998623923E-01  0.89661769777E-01  0.51100000000E-03 0. -1.
         11    1    4    4    0    0 -0.30405823658E-01 -0.17561545953E-01 -0.22185267864E-01  0.41537564201E-01  0.51100000000E-03 0.  1.
</event>
<event>
 8    1  0.1042301E+005  0.1043930E+01  0.7957747E-01            NaN
         13   -1    0    0    0    0  0.00000000000E+00  0.00000000000E+00  0.74505805969E-08  0.10566000000E+00  0.10566000000E+00 0.  1.
     999900   -1    0    0    0    0 -0.00000000000E+00 -0.00000000000E+00 -0.74505805969E-08  0.93827000000E+00  0.93827000000E+00 0.  1.
     999902    2    1    2    0    0 -0.11918457998E-01 -0.18054512784E-01  0.10238669118E-01  0.10199958107E+01  0.10197149643E+01 0.  0.
     999903    2    3    3    0    0  0.11473547928E+00 -0.25539610651E-01 -0.49242872628E-01  0.12890922660E+00  0.19396553312E-01 0.  0.
         14    1    1    2    0    0  0.11918457998E-01  0.18054512784E-01 -0.10238669118E-01  0.23934189316E-01  0.00000000000E+00 0. -1.
     999901    1    3    3    0    0 -0.12665393728E+00  0.74850978672E-02  0.59481541746E-01  0.89108658408E+00  0.88000000000E+00 0. -1.
        -11    1    4    4    0    0  0.30306376341E-01 -0.95927804417E-02 -0.47367267143E-02  0.32143359882E-01  0.51100000000E-03 0.  1.
         11    1    4    4    0    0  0.84429102942E-01 -0.15946830210E-01 -0.44506145914E-01  0.96765866722E-01  0.51100000000E-03 0. -1.
</event>
<event>
 8    1  0.1042301E+005  0.1043930E+01  0.7957747E-01            NaN
         13   -1    0    0    0    0  0.00000000000E+00  0.00000000000E+00  0.74505805969E-08  0.10566000000E+00  0.10566000000E+00 0.  1.
     999900   -1    0    0    0    0 -0.00000000000E+00 -0.00000000000E+00 -0.74505805969E-08  0.93827000000E+00  0.93827000000E+00 0. -1.
     999902    2    1    2    0    0  0.10667036910E-01  0.35243251600E-02  0.20548695027E-01  0.10205108751E+01  0.10202421236E+01 0.  0.
     999903    2    3    3    0    0  0.97089804634E-01  0.72103195978E-01 -0.46618068296E-01  0.13108222118E+00  0.19596004267E-01 0.  0.
         14    1    1    2    0    0 -0.10667036910E-01 -0.35243251600E-02 -0.20548695027E-01  0.23419124911E-01  0.00000000000E+00 0. -1.
     999901    1    3    3    0    0 -0.86422767724E-01 -0.68578870818E-01  0.67166763323E-01  0.88942865391E+00  0.88000000000E+00 0.  1.
        -11    1    4    4    0    0  0.64565049497E-01  0.41961813622E-01 -0.20786559228E-01  0.79760777232E-01  0.51100000000E-03 0. -1.
         11    1    4    4    0    0  0.32524755136E-01  0.30141382356E-01 -0.25831509068E-01  0.51321443946E-01  0.51100000000E-03 0.  1.
</event>
<event>
 8    1  0.1042301E+005  0.1043930E+01  0.7957747E-01            NaN
         13   -1    0    0    0    0  0.00000000000E+00  0.00000000000E+00  0.74505805969E-08  0.10566000000E+00  0.10566000000E+00 0.  1.
     999900   -1    0    0    0    0 -0.00000000000E+00 -0.00000000000E+00 -0.74505805969E-08  0.93827000000E+00  0.93827000000E+00 0.  1.
     999902    2    1    2    0    0 -0.99333736000E-02 -0.70129303990E-02 -0.22775134556E-01  0.10181121795E+01  0.10177847759E+01 0.  0.
     999903    2    3    3    0    0 -0.16021615997E-01 -0.26223676672E-01  0.12084285000E+00  0.12624209645E+00  0.19740798432E-01 0.  0.
         14    1    1    2    0    0  0.99333736000E-02  0.70129303990E-02  0.22775134556E-01  0.25817820549E-01  0.00000000000E+00 0.  1.
     999901    1    3    3    0    0  0.60882423972E-02  0.19210746273E-01 -0.14361798455E+00  0.89187008300E+00  0.88000000000E+00 0.  1.
        -11    1    4    4    0    0 -0.12358683116E-01 -0.24321111513E-01  0.68502213502E-01  0.73736475975E-01  0.51100000000E-03 0.  1.
         11    1    4    4    0    0 -0.36629328810E-02 -0.19025651593E-02  0.52340636496E-01  0.52505620473E-01  0.51100000000E-03 0. -1.
</event>
<event>
 8    1  0.1042301E+005  0.1043930E+01  0.7957747E-01            NaN
         13   -1    0    0    0    0  0.00000000000E+00  0.00000000000E+00  0.74505805969E-08  0.10566000000E+00  0.10566000000E+00 0. -1.
     999900   -1    0    0    0    0 -0.00000000000E+00 -0.00000000000E+00 -0.74505805969E-08  0.93827000000E+00  0.93827000000E+00 0. -1.
     999902    2    1    2    0    0 -0.10510874056E-01  0.20891535863E-01  0.56918467146E-02  0.10198606863E+01  0.10195766217E+01 0.  0.
     999903    2    3    3    0    0 -0.67930208035E-01  0.20011281901E-01 -0.10797490447E+00  0.13069372497E+00  0.20181803273E-01 0.  0.
         14    1    1    2    0    0  0.10510874056E-01 -0.20891535863E-01 -0.56918467146E-02  0.24069313724E-01  0.00000000000E+00 0.  1.
     999901    1    3    3    0    0  0.57419333979E-01  0.88025396225E-03  0.11366675118E+00  0.88916696131E+00  0.88000000000E+00 0.  1.
        -11    1    4    4    0    0 -0.34061699647E-01  0.14797973146E-01 -0.71954706511E-01  0.80974812764E-01  0.51100000000E-03 0.  1.
         11    1    4    4    0    0 -0.33868508388E-01  0.52133087546E-02 -0.36020197958E-01  0.49718912201E-01  0.51100000000E-03 0. -1.
</event>
<event>
 8    1  0.1042301E+005  0.1043930E+01  0.7957747E-01            NaN
         13   -1    0    0    0    0  0.00000000000E+00  0.00000000000E+00  0.74505805969E-08  0.10566000000E+00  0.10566000000E+00 0. -1.
     999900   -1    0    0    0    0 -0.00000000000E+00 -0.00000000000E+00 -0.74505805969E-08  0.93827000000E+00  0.93827000000E+00 0.  1.
     999902    2    1    2    0    0 -0.62752951264E-02  0.11003622983E-01 -0.18342186318E-01  0.10216388617E+01  0.10213956476E+01 0.  0.
     999903    2    3    3    0    0  0.40118436196E-01 -0.11392261779E+00  0.41168875845E-01  0.12961839643E+00  0.22764019624E-01 0.  0.
         14    1    1    2    0    0  0.62752951264E-02 -0.11003622983E-01  0.18342186318E-01  0.22291138297E-01  0.00000000000E+00 0.  1.
     999901    1    3    3    0    0 -0.46393731323E-01  0.12492624077E+00 -0.59511062163E-01  0.89202046527E+00  0.88000000000E+00 0.  1.
        -11    1    4    4    0    0  0.21200109760E-01 -0.89615794401E-01  0.31577386384E-01  0.97354135566E-01  0.51100000000E-03 0. -1.
         11    1    4    4    0    0  0.18918326436E-01 -0.24306823386E-01  0.95914894612E-02  0.32264260868E-01  0.51100000000E-03 0.  1.
</event>
<event>
 8    1  0.1042301E+005  0.1043930E+01  0.7957747E-01            NaN
         13   -1    0    0    0    0  0.00000000000E+00  0.00000000000E+00  0.74505805969E-08  0.10566000000E+00  0.10566000000E+00 0.  1.
     999900   -1    0    0    0    0 -0.00000000000E+00 -0.00000000000E+00 -0.74505805969E-08  0.93827000000E+00  0.93827000000E+00 0. -1.
     999902    2    1    2    0    0 -0.39134059835E-02  0.21452937740E-01 -0.97533699210E-02  0.10200412682E+01  0.10197615002E+01 0.  0.
     999903    2    3    3    0    0 -0.76051089977E-01 -0.53325023648E-01 -0.88941665695E-01  0.13039730839E+00  0.21575720294E-01 0.  0.
         14    1    1    2    0    0  0.39134059835E-02 -0.21452937740E-01  0.97533699210E-02  0.23888731839E-01  0.00000000000E+00 0.  1.
     999901    1    3    3    0    0  0.72137683993E-01  0.74777961388E-01  0.79188295774E-01  0.88964395977E+00  0.88000000000E+00 0. -1.
        -11    1    4    4    0    0 -0.52108884270E-01 -0.24054263346E-01 -0.50101765346E-01  0.76186556667E-01  0.51100000000E-03 0.  1.
         11    1    4    4    0    0 -0.23942205707E-01 -0.29270760301E-01 -0.38839900349E-01  0.54210751728E-01  0.51100000000E-03 0. -1.
</event>
<event>
 8    1  0.1042301E+005  0.1043930E+01  0.7957747E-01            NaN
         13   -1    0    0    0    0  0.00000000000E+00  0.00000000000E+00  0.74505805969E-08  0.10566000000E+00  0.10566000000E+00 0.  1.
     999900   -1    0    0    0    0 -0.00000000000E+00 -0.00000000000E+00 -0.74505805969E-08  0.93827000000E+00  0.93827000000E+00 0. -1.
     999902    2    1    2    0    0  0.10784857116E-01  0.19868285277E-01  0.74827492106E-02  0.10201171161E+01  0.10198391428E+01 0.  0.
     999903    2    3    3    0    0 -0.35725932897E-01 -0.10468499513E+00  0.63988215483E-01  0.12833819679E+00  0.11870574906E-01 0.  0.
         14    1    1    2    0    0 -0.10784857116E-01 -0.19868285277E-01 -0.74827492106E-02  0.23812883879E-01  0.00000000000E+00 0. -1.
     999901    1    3    3    0    0  0.46510790012E-01  0.12455328040E+00 -0.56505466273E-01  0.89177891933E+00  0.88000000000E+00 0. -1.
        -11    1    4    4    0    0 -0.16975983401E-01 -0.65644979905E-01  0.36007443595E-01  0.76773983317E-01  0.51100000000E-03 0.  1.
         11    1    4    4    0    0 -0.18749949496E-01 -0.39040015221E-01  0.27980771889E-01  0.51564213472E-01  0.51100000000E-03 0. -1.
</event>
<event>
 8    1  0.1042301E+005  0.1043930E+01  0.7957747E-01            NaN
         13   -1    0    0    0    0  0.00000000000E+00  0.00000000000E+00  0.74505805969E-08  0.10566000000E+00  0.10566000000E+00 0. -1.
     999900   -1    0    0    0    0 -0.00000000000E+00 -0.00000000000E+00 -0.74505805969E-08  0.93827000000E+00  0.93827000000E+00 0. -1.
     999902    2    1    2    0    0  0.19522650473E-01  0.81775641940E-02  0.79825950104E-02  0.10213085884E+01  0.10210580319E+01 0.  0.
     999903    2    3    3    0    0  0.16033325081E-01  0.13031745212E+00 -0.16267946985E-02  0.13281398070E+00  0.19929906417E-01 0.  0.
         14    1    1    2    0    0 -0.19522650473E-01 -0.81775641940E-02 -0.79825950104E-02  0.22621411555E-01  0.00000000000E+00 0.  1.
     999901    1    3    3    0    0  0.34893253920E-02 -0.12213988792E+00  0.96093897089E-02  0.88849460774E+00  0.88000000000E+00 0. -1.
        -11    1    4    4    0    0  0.17903891115E-01  0.11993359825E+00 -0.59280477448E-02  0.12140848478E+00  0.51100000000E-03 0.  1.
         11    1    4    4    0    0 -0.18705660333E-02  0.10383853868E-01  0.43012530463E-02  0.11405495921E-01  0.51100000000E-03 0. -1.
</event>
<event>
 8    1  0.1042301E+005  0.1043930E+01  0.7957747E-01            NaN
         13   -1    0    0    0    0  0.00000000000E+00  0.00000000000E+00  0.74505805969E-08  0.10566000000E+00  0.10566000000E+00 0.  1.
     999900   -1    0    0    0    0 -0.00000000000E+00 -0.00000000000E+00 -0.74505805969E-08  0.93827000000E+00  0.93827000000E+00 0.  1.
     999902    2    1    2    0    0  0.23140582283E-01  0.54642966658E-02  0.45790694176E-02  0.10197160998E+01  0.10194285709E+01 0.  0.
     999903    2    3    3    0    0  0.34953342736E-01 -0.81195188097E-01 -0.93174342593E-01  0.12999415606E+00  0.20065586276E-01 0.  0.
         14    1    1    2    0    0 -0.23140582283E-01 -0.54642966658E-02 -0.45790694176E-02  0.24213900206E-01  0.00000000000E+00 0.  1.
     999901    1    3    3    0    0 -0.11812760453E-01  0.86659484763E-01  0.97753412011E-01  0.88972194374E+00  0.88000000000E+00 0. -1.
        -11    1    4    4    0    0  0.21951211940E-01 -0.27711442115E-01 -0.41186497327E-01  0.54280460691E-01  0.51100000000E-03 0. -1.
         11    1    4    4    0    0  0.13002130796E-01 -0.53483745982E-01 -0.51987845266E-01  0.75713695366E-01  0.51100000000E-03 0.  1.
</event>
<event>
 8    1  0.1042301E+005  0.1043930E+01  0.7957747E-01            NaN
         13   -1    0    0    0    0  0.00000000000E+00  0.00000000000E+00  0.74505805969E-08  0.10566000000E+00  0.10566000000E+00 0. -1.
     999900   -1    0    0    0    0 -0.00000000000E+00 -0.00000000000E+00 -0.74505805969E-08  0.93827000000E+00  0.93827000000E+00 0. -1.
     999902    2    1    2    0    0 -0.19909385174E-01  0.11501930513E-01  0.39680752937E-02  0.10205971124E+01  0.10203303593E+01 0.  0.
     999903    2    3    3    0    0 -0.91876889355E-02 -0.10655373914E-01  0.12937555071E+00  0.13136545763E+00  0.17913673939E-01 0.  0.
         14    1    1    2    0    0  0.19909385174E-01 -0.11501930513E-01 -0.39680752937E-02  0.23332887628E-01  0.00000000000E+00 0. -1.
     999901    1    3    3    0    0 -0.10721696238E-01  0.22157304427E-01 -0.12540747542E+00  0.88923165475E+00  0.88000000000E+00 0. -1.
        -11    1    4    4    0    0 -0.10363496779E-01  0.14538686229E-02  0.53064829443E-01  0.54089306192E-01  0.51100000000E-03 0.  1.
         11    1    4    4    0    0  0.11758078439E-02 -0.12109242537E-01  0.76310721270E-01  0.77276151435E-01  0.51100000000E-03 0. -1.
</event>
<event>
 8    1  0.1042301E+005  0.1043930E+01  0.7957747E-01            NaN
         13   -1    0    0    0    0  0.00000000000E+00  0.00000000000E+00  0.74505805969E-08  0.10566000000E+00  0.10566000000E+00 0.  1.
     999900   -1    0    0    0    0 -0.00000000000E+00 -0.00000000000E+00 -0.74505805969E-08  0.93827000000E+00  0.93827000000E+00 0.  1.
     999902    2    1    2    0    0 -0.18903919713E-01  0.12449335807E-02  0.14188450966E-01  0.10202610292E+01  0.10199864447E+01 0.  0.
     999903    2    3    3    0    0 -0.47287689387E-01  0.11806122321E-01 -0.11894525770E+00  0.12973210684E+00  0.17519564090E-01 0.  0.
         14    1    1    2    0    0  0.18903919713E-01 -0.12449335807E-02 -0.14188450966E-01  0.23668970847E-01  0.00000000000E+00 0. -1.
     999901    1    3    3    0    0  0.28383769675E-01 -0.10561188740E-01  0.13313370866E+00  0.89052892231E+00  0.88000000000E+00 0. -1.
        -11    1    4    4    0    0 -0.45147934422E-01  0.89982443077E-02 -0.95510783053E-01  0.10602770951E+00  0.51100000000E-03 0. -1.
         11    1    4    4    0    0 -0.21397549659E-02  0.28078780134E-02 -0.23434474642E-01  0.23704397335E-01  0.51100000000E-03 0.  1.
</event>
<event>
 8    1  0.1042301E+005  0.1043930E+01  0.7957747E-01            NaN
         13   -1    0    0    0    0  0.00000000000E+00  0.00000000000E+00  0.74505805969E-08  0.10566000000E+00  0.10566000000E+00 0. -1.
     999900   -1    0    0    0    0 -0.00000000000E+00 -0.00000000000E+00 -0.74505805969E-08  0.93827000000E+00  0.93827000000E+00 0.  1.
     999902    2    1    2    0    0 -0.17954051859E-01 -0.71815433920E-02  0.16229280346E-01  0.10186849592E+01  0.10183721000E+01 0.  0.
     999903    2    3    3    0    0  0.86903610320E-01  0.11317215345E-01  0.92610840591E-01  0.12898193228E+00  0.19474450181E-01 0.  0.
         14    1    1    2    0    0  0.17954051859E-01  0.71815433920E-02 -0.16229280346E-01  0.25245040784E-01  0.00000000000E+00 0.  1.
     999901    1    3    3    0    0 -0.10485766218E+00 -0.18498758737E-01 -0.76381560245E-01  0.88970302694E+00  0.88000000000E+00 0.  1.
        -11    1    4    4    0    0  0.29805063110E-01  0.69216434471E-02  0.45453666479E-01  0.54795509419E-01  0.51100000000E-03 0.  1.
         11    1    4    4    0    0  0.57098547210E-01  0.43955718979E-02  0.47157174112E-01  0.74186422862E-01  0.51100000000E-03 0. -1.
</event>
<event>
 8    1  0.1042301E+005  0.1043930E+01  0.7957747E-01            NaN
         13   -1    0    0    0    0  0.00000000000E+00  0.00000000000E+00  0.74505805969E-08  0.10566000000E+00  0.10566000000E+00 0.  1.
     999900   -1    0    0    0    0 -0.00000000000E+00 -0.00000000000E+00 -0.74505805969E-08  0.93827000000E+00  0.93827000000E+00 0. -1.
     999902    2    1    2    0    0 -0.30535782313E-03 -0.23751447125E-01 -0.15255848805E-02  0.10201276494E+01  0.10198499249E+01 0.  0.
     999903    2    3    3    0    0  0.61291786065E-01 -0.10879212866E+00  0.40302630653E-01  0.13289840888E+00  0.21101534254E-01 0.  0.
         14    1    1    2    0    0  0.30535782313E-03  0.23751447125E-01  0.15255848805E-02  0.23802350581E-01  0.00000000000E+00 0. -1.
     999901    1    3    3    0    0 -0.61597143888E-01  0.85040681537E-01 -0.41828215533E-01  0.88722924054E+00  0.88000000000E+00 0. -1.
        -11    1    4    4    0    0  0.31670752180E-01 -0.58788242919E-01  0.10556626801E-01  0.67607673674E-01  0.51100000000E-03 0.  1.
         11    1    4    4    0    0  0.29621033886E-01 -0.50003885742E-01  0.29746003852E-01  0.65290735207E-01  0.51100000000E-03 0. -1.
</event>
<event>
 8    1  0.1042301E+005  0.1043930E+01  0.7957747E-01            NaN
         13   -1    0    0    0    0  0.00000000000E+00  0.00000000000E+00  0.74505805969E-08  0.10566000000E+00  0.10566000000E+00 0. -1.
     999900   -1    0    0    0    0 -0.00000000000E+00 -0.00000000000E+00 -0.74505805969E-08  0.93827000000E+00  0.93827000000E+00 0.  1.
     999902    2    1    2    0    0 -0.87742758138E-02  0.12940251815E-01  0.17038838274E-01  0.10208051207E+01  0.10205431566E+01 0.  0.
     999903    2    3    3    0    0  0.10882909089E+00  0.64035161762E-01 -0.26276617943E-01  0.13045829477E+00  0.19612064131E-01 0.  0.
         14    1    1    2    0    0  0.87742758138E-02 -0.12940251815E-01 -0.17038838274E-01  0.23124879304E-01  0.00000000000E+00 0.  1.
     999901    1    3    3    0    0 -0.11760336670E+00 -0.51094909946E-01  0.43315456217E-01  0.89034682592E+00  0.88000000000E+00 0. -1.
        -11    1    4    4    0    0  0.63657614776E-01  0.26559560697E-01 -0.11481948655E-01  0.69927093814E-01  0.51100000000E-03 0. -1.
         11    1    4    4    0    0  0.45171476112E-01  0.37475601064E-01 -0.14794669288E-01  0.60531200960E-01  0.51100000000E-03 0.  1.
</event>
<event>
 8    1  0.1042301E+005  0.1043930E+01  0.7957747E-01            NaN
         13   -1    0    0    0    0  0.00000000000E+00  0.00000000000E+00  0.74505805969E-08  0.10566000000E+00  0.10566000000E+00 0.  1.
     999900   -1    0    0    0    0 -0.00000000000E+00 -0.00000000000E+00 -0.74505805969E-08  0.93827000000E+00  0.93827000000E+00 0. -1.
     999902    2    1    2    0    0  0.10157434754E-01  0.93980548803E-02 -0.20154389704E-01  0.10194821710E+01  0.10191889917E+01 0.  0.
     999903    2    3    3    0    0 -0.96063618977E-02 -0.27779727516E-02 -0.13051619332E+00  0.13228512923E+00  0.19101816037E-01 0.  0.
         14    1    1    2    0    0 -0.10157434754E-01 -0.93980548803E-02  0.20154389704E-01  0.24447828956E-01  0.00000000000E+00 0.  1.
     999901    1    3    3    0    0  0.19763796652E-01  0.12176027632E-01  0.11036180361E+00  0.88719704181E+00  0.88000000000E+00 0.  1.
        -11    1    4    4    0    0  0.13144210329E-02  0.67701471590E-02 -0.35598805074E-01  0.36264288755E-01  0.51100000000E-03 0.  1.
         11    1    4    4    0    0 -0.10920782931E-01 -0.95481199106E-02 -0.94917388243E-01  0.96020840475E-01  0.51100000000E-03 0. -1.
</event>
<event>
 8    1  0.1042301E+005  0.1043930E+01  0.7957747E-01            NaN
         13   -1    0    0    0    0  0.00000000000E+00  0.00000000000E+00  0.74505805969E-08  0.10566000000E+00  0.10566000000E+00 0. -1.
     999900   -1    0    0    0    0 -0.00000000000E+00 -0.00000000000E+00 -0.74505805969E-08  0.93827000000E+00  0.93827000000E+00 0.  1.
     999902    2    1    2    0    0  0.61501555114E-02 -0.17563311286E-01 -0.13714074397E-01  0.10208135523E+01  0.10205517814E+01 0.  0.
     999903    2    3    3    0    0 -0.10306482372E+00  0.68479273948E-01 -0.32315955205E-01  0.12970341990E+00  0.21607575620E-01 0.  0.
         14    1    1    2    0    0 -0.61501555114E-02  0.17563311286E-01  0.13714074397E-01  0.23116447666E-01  0.00000000000E+00 0.  1.
     999901    1    3    3    0    0  0.10921497923E+00 -0.86042585235E-01  0.18601880808E-01  0.89111013244E+00  0.88000000000E+00 0. -1.
        -11    1    4    4    0    0 -0.23478435537E-01  0.22864640763E-01 -0.16215458355E-01  0.36568168441E-01  0.51100000000E-03 0.  1.
         11    1    4    4    0    0 -0.79586388179E-01  0.45614633186E-01 -0.16100496850E-01  0.93135251457E-01  0.51100000000E-03 0. -1.
</event>
<event>
 8    1  0.1042301E+005  0.1043930E+01  0.7957747E-01            NaN
         13   -1    0    0    0    0  0.00000000000E+00  0.00000000000E+00  0.74505805969E-08  0.10566000000E+00  0.10566000000E+00 0. -1.
     999900   -1    0    0    0    0 -0.00000000000E+00 -0.00000000000E+00 -0.74505805969E-08  0.93827000000E+00  0.93827000000E+00 0. -1.
     999902    2    1    2    0    0  0.13418662411E-01  0.18642967103E-01 -0.55969765400E-02  0.10202879428E+01  0.10200139898E+01 0.  0.
     999903    2    3    3    0    0 -0.11209151370E+00  0.64916257172E-01 -0.13646340749E-02  0.13016888647E+00  0.12784713099E-01 0.  0.
         14    1    1    2    0    0 -0.13418662411E-01 -0.18642967103E-01  0.55969765400E-02  0.23642057222E-01  0.00000000000E+00 0. -1.
     999901    1    3    3    0    0  0.12551017611E+00 -0.46273290069E-01 -0.42323424651E-02  0.89011905631E+00  0.88000000000E+00 0. -1.
        -11    1    4    4    0    0 -0.56596085966E-01  0.25492987994E-01 -0.15363875467E-02  0.62093727471E-01  0.51100000000E-03 0.  1.
         11    1    4    4    0    0 -0.55495427737E-01  0.39423269178E-01  0.17175347176E-03  0.68075158998E-01  0.51100000000E-03 0. -1.
</event>
<event>
 8    1  0.1042301E+005  0.1043930E+01  0.7957747E-01            NaN
         13   -1    0    0    0    0  0.00000000000E+00  0.00000000000E+00  0.74505805969E-08  0.10566000000E+00  0.10566000000E+00 0.  1.
     999900   -1    0    0    0    0 -0.00000000000E+00 -0.00000000000E+00 -0.74505805969E-08  0.93827000000E+00  0.93827000000E+00 0.  1.
     999902    2    1    2    0    0 -0.10099493925E-01  0.19744965260E-01  0.12362953362E-01  0.10185389377E+01  0.10182224028E+01 0.  0.
     999903    2    3    3    0    0 -0.97731060659E-01 -0.63311217774E-01  0.45259054598E-01  0.12968587078E+00  0.34790408798E-01 0.  0.
         14    1    1    2    0    0  0.10099493925E-01 -0.19744965260E-01 -0.12362953362E-01  0.25391062335E-01  0.00000000000E+00 0. -1.
     999901    1    3    3    0    0  0.87631566734E-01  0.83056183034E-01 -0.32896101235E-01  0.88885306688E+00  0.88000000000E+00 0. -1.
        -11    1    4    4    0    0 -0.40417367396E-01 -0.27240914597E-01  0.37544940002E-01  0.61526536194E-01  0.51100000000E-03 0. -1.
         11    1    4    4    0    0 -0.57313693263E-01 -0.36070303177E-01  0.77141145958E-02  0.68159334590E-01  0.51100000000E-03 0.  1.
</event>
<event>
 8    1  0.1042301E+005  0.1043930E+01  0.7957747E-01            NaN
         13   -1    0    0    0    0  0.00000000000E+00  0.00000000000E+00  0.74505805969E-08  0.10566000000E+00  0.10566000000E+00 0.  1.
     999900   -1    0    0    0    0 -0.00000000000E+00 -0.00000000000E+00 -0.74505805969E-08  0.93827000000E+00  0.93827000000E+00 0.  1.
     999902    2    1    2    0    0 -0.22243048847E-01 -0.72146160168E-02  0.57503347614E-02  0.10198495047E+01  0.10195651729E+01 0.  0.
     999903    2    3    3    0    0 -0.11251935539E-01  0.12631003963E+00 -0.15328530310E-01  0.12945972664E+00  0.21071896309E-01 0.  0.
         14    1    1    2    0    0  0.22243048847E-01  0.72146160168E-02 -0.57503347614E-02  0.24080495347E-01  0.00000000000E+00 0.  1.
     999901    1    3    3    0    0 -0.10991113308E-01 -0.13352465565E+00  0.21078865071E-01  0.89038977801E+00  0.88000000000E+00 0. -1.
        -11    1    4    4    0    0 -0.12747244803E-01  0.51019518528E-01  0.89964810241E-04  0.52590424372E-01  0.51100000000E-03 0. -1.
         11    1    4    4    0    0  0.14953092641E-02  0.75290521107E-01 -0.15418495120E-01  0.76869302268E-01  0.51100000000E-03 0.  1.
</event>
<event>
 8    1  0.1042301E+005  0.1043930E+01  0.7957747E-01            NaN
         13   -1    0    0    0    0  0.00000000000E+00  0.00000000000E+00  0.74505805969E-08  0.10566000000E+00  0.10566000000E+00 0.  1.
     999900   -1    0    0    0    0 -0.00000000000E+00 -0.00000000000E+00 -0.74505805969E-08  0.93827000000E+00  0.93827000000E+00 0. -1.
     999902    2    1    2    0    0 -0.59909636481E-02 -0.82664263565E-02  0.21641316181E-01  0.10200015229E+01  0.10197208121E+01 0.  0.
     999903    2    3    3    0    0  0.78801878663E-01 -0.90581793005E-01  0.50230175338E-01  0.13164181616E+00  0.19791410837E-01 0.  0.
         14    1    1    2    0    0  0.59909636481E-02  0.82664263565E-02 -0.21641316181E-01  0.23928477097E-01  0.00000000000E+00 0. -1.
     999901    1    3    3    0    0 -0.84792842311E-01  0.82315366648E-01 -0.28588859156E-01  0.88835970674E+00  0.88000000000E+00 0. -1.
        -11    1    4    4    0    0  0.68735427997E-01 -0.84813076126E-01  0.40330014841E-01  0.11638121911E+00  0.51100000000E-03 0. -1.
         11    1    4    4    0    0  0.10066450666E-01 -0.57687168794E-02  0.99001604969E-02  0.15260597050E-01  0.51100000000E-03 0.  1.
</event>
<event>
 8    1  0.1042301E+005  0.1043930E+01  0.7957747E-01            NaN
         13   -1    0    0    0    0  0.00000000000E+00  0.00000000000E+00  0.74505805969E-08  0.10566000000E+00  0.10566000000E+00 0. -1.
     999900   -1    0    0    0    0 -0.00000000000E+00 -0.00000000000E+00 -0.74505805969E-08  0.93827000000E+00  0.93827000000E+00 0.  1.
     999902    2    1    2    0    0 -0.11600942360E-01 -0.92507587506E-02  0.17625984727E-01  0.10208901706E+01  0.10206301518E+01 0.  0.
     999903    2    3    3    0    0  0.88457823267E-01 -0.90230844451E-01 -0.25695698604E-01  0.13047100015E+00  0.19900280559E-01 0.  0.
         14    1    1    2    0    0  0.11600942360E-01  0.92507587506E-02 -0.17625984727E-01  0.23039829398E-01  0.00000000000E+00 0.  1.
     999901    1    3    3    0    0 -0.10005876563E+00  0.80980085700E-01  0.43321683331E-01  0.89041917045E+00  0.88000000000E+00 0. -1.
        -11    1    4    4    0    0  0.26776628903E-01 -0.37124545431E-01 -0.16041044872E-01  0.48505628235E-01  0.51100000000E-03 0. -1.
         11    1    4    4    0    0  0.61681194364E-01 -0.53106299020E-01 -0.96546537324E-02  0.81965371917E-01  0.51100000000E-03 0.  1.
</event>
<event>
 8    1  0.1042301E+005  0.1043930E+01  0.7957747E-01            NaN
         13   -1    0    0    0    0  0.00000000000E+00  0.00000000000E+00  0.74505805969E-08  0.10566000000E+00  0.10566000000E+00 0. -1.
     999900   -1    0    0    0    0 -0.00000000000E+00 -0.00000000000E+00 -0.74505805969E-08  0.93827000000E+00  0.93827000000E+00 0.  1.
     999902    2    1    2    0    0  0.13585869792E-01 -0.19554989022E-01  0.44840118918E-02  0.10197002700E+01  0.10194123605E+01 0.  0.
     999903    2    3    3    0    0 -0.70539787089E-01  0.91777816928E-01 -0.48296159233E-01  0.12714334391E+00  0.20829826264E-01 0.  0.
         14    1    1    2    0    0 -0.13585869792E-01  0.19554989022E-01 -0.44840118918E-02  0.24229730009E-01  0.00000000000E+00 0. -1.
     999901    1    3    3    0    0  0.84125656880E-01 -0.11133280595E+00  0.52780171125E-01  0.89255692608E+00  0.88000000000E+00 0. -1.
        -11    1    4    4    0    0 -0.48154766913E-01  0.49341730999E-01 -0.35169222276E-01  0.77399116991E-01  0.51100000000E-03 0. -1.
         11    1    4    4    0    0 -0.22385020175E-01  0.42436085929E-01 -0.13126936957E-01  0.49744226922E-01  0.51100000000E-03 0.  1.
</event>
<event>
 8    1  0.1042301E+005  0.1043930E+01  0.7957747E-01            NaN
         13   -1    0    0    0    0  0.00000000000E+00  0.00000000000E+00  0.74505805969E-08  0.10566000000E+00  0.10566000000E+00 0. -1.
     999900   -1    0    0    0    0 -0.00000000000E+00 -0.00000000000E+00 -0.74505805969E-08  0.93827000000E+00  0.93827000000E+00 0.  1.
     999902    2    1    2    0    0  0.41803466047E-02 -0.21242564501E-01 -0.92291013154E-02  0.10203949590E+01  0.10201235093E+01 0.  0.
     999903    2    3    3    0    0 -0.80845941552E-01  0.84114608208E-01 -0.51833735513E-01  0.12902255737E+00  0.18674865266E-01 0.  0.
         14    1    1    2    0    0 -0.41803466047E-02  0.21242564501E-01  0.92291013154E-02  0.23535041012E-01  0.00000000000E+00 0. -1.
     999901    1    3    3    0    0  0.85026288157E-01 -0.10535717271E+00  0.42604634197E-01  0.89137240162E+00  0.88000000000E+00 0. -1.
        -11    1    4    4    0    0 -0.16924599238E-01  0.90258377320E-02 -0.48624794468E-02  0.19794257589E-01  0.51100000000E-03 0.  1.
         11    1    4    4    0    0 -0.63921342314E-01  0.75088770476E-01 -0.46971256066E-01  0.10922829978E+00  0.51100000000E-03 0. -1.
</event>
<event>
 8    1  0.1042301E+005  0.1043930E+01  0.7957747E-01            NaN
         13   -1    0    0    0    0  0.00000000000E+00  0.00000000000E+00  0.74505805969E-08  0.10566000000E+00  0.10566000000E+00 0.  1.
     999900   -1    0    0    0    0 -0.00000000000E+00 -0.00000000000E+00 -0.74505805969E-08  0.93827000000E+00  0.93827000000E+00 0.  1.
     999902    2    1    2    0    0 -0.73067230402E-02 -0.14685943390E-02 -0.18647392842E-01  0.10238484107E+01  0.10236514533E+01 0.  0.
     999903    2    3    3    0    0 -0.21791271801E-01  0.11732829398E+00  0.54615023669E-01  0.13273119923E+00  0.19848988468E-01 0.  0.
         14    1    1    2    0    0  0.73067230402E-02  0.14685943390E-02  0.18647392842E-01  0.20081589347E-01  0.00000000000E+00 0.  1.
     999901    1    3    3    0    0  0.14484548761E-01 -0.11879688832E+00 -0.73262416511E-01  0.89111721143E+00  0.88000000000E+00 0.  1.
        -11    1    4    4    0    0 -0.64784325039E-04  0.36493618158E-01  0.23610891018E-01  0.43468651451E-01  0.51100000000E-03 0. -1.
         11    1    4    4    0    0 -0.21726487476E-01  0.80834675820E-01  0.31004132651E-01  0.89262547776E-01  0.51100000000E-03 0.  1.
</event>
<event>
 8    1  0.1042301E+005  0.1043930E+01  0.7957747E-01            NaN
         13   -1    0    0    0    0  0.00000000000E+00  0.00000000000E+00  0.74505805969E-08  0.10566000000E+00  0.10566000000E+00 0.  1.
     999900   -1    0    0    0    0 -0.00000000000E+00 -0.00000000000E+00 -0.74505805969E-08  0.93827000000E+00  0.93827000000E+00 0.  1.
     999902    2    1    2    0    0  0.90583944099E-02 -0.84144041552E-02  0.20831560360E-01  0.10197058258E+01  0.10194180500E+01 0.  0.
     999903    2    3    3    0    0  0.11903593202E+00 -0.11373703632E-01  0.53120009229E-01  0.13226773777E+00  0.19341789656E-01 0.  0.
         14    1    1    2    0    0 -0.90583944099E-02  0.84144041552E-02 -0.20831560360E-01  0.24224174157E-01  0.00000000000E+00 0. -1.
     999901    1    3    3    0    0 -0.10997753761E+00  0.29592994773E-02 -0.32288448869E-01  0.88743808807E+00  0.88000000000E+00 0. -1.
        -11    1    4    4    0    0  0.40446272290E-01 -0.42096671399E-02  0.28277433304E-01  0.49532783031E-01  0.51100000000E-03 0.  1.
         11    1    4    4    0    0  0.78589659733E-01 -0.71640364925E-02  0.24842575925E-01  0.82734954738E-01  0.51100000000E-03 0. -1.
</event>
<event>
 8    1  0.1042301E+005  0.1043930E+01  0.7957747E-01            NaN
         13   -1    0    0    0    0  0.00000000000E+00  0.00000000000E+00  0.74505805969E-08  0.10566000000E+00  0.10566000000E+00 0.  1.
     999900   -1    0    0    0    0 -0.00000000000E+00 -0.00000000000E+00 -0.74505805969E-08  0.93827000000E+00  0.93827000000E+00 0. -1.
     999902    2    1    2    0    0 -0.10124578636E-01 -0.41326659468E-03 -0.20994518411E-01  0.10206180356E+01  0.10203517662E+01 0.  0.
     999903    2    3    3    0    0 -0.10397879307E+00  0.17768827834E-01 -0.79390762554E-01  0.13351639346E+00  0.19910135393E-01 0.  0.
         14    1    1    2    0    0  0.10124578636E-01  0.41326659468E-03  0.20994518411E-01  0.23311964420E-01  0.00000000000E+00 0.  1.
     999901    1    3    3    0    0  0.93854214438E-01 -0.18182094429E-01  0.58396244144E-01  0.88710164212E+00  0.88000000000E+00 0.  1.
        -11    1    4    4    0    0 -0.36546162254E-02  0.48042106987E-02 -0.61014731033E-02  0.85980087941E-02  0.51100000000E-03 0.  1.
         11    1    4    4    0    0 -0.10032417685E+00  0.12964617135E-01 -0.73289289451E-01  0.12491838466E+00  0.51100000000E-03 0. -1.
</event>
<event>
 8    1  0.1042301E+005  0.1043930E+01  0.7957747E-01            NaN
         13   -1    0    0    0    0  0.00000000000E+00  0.00000000000E+00  0.74505805969E-08  0.10566000000E+00  0.10566000000E+00 0. -1.
     999900   -1    0    0    0    0 -0.00000000000E+00 -0.00000000000E+00 -0.74505805969E-08  0.93827000000E+00  0.93827000000E+00 0. -1.
     999902    2    1    2    0    0  0.38221947012E-02 -0.16743084024E-01  0.14499613613E-01  0.10214538164E+01  0.10212065022E+01 0.  0.
     999903    2    3    3    0    0 -0.63292834026E-01  0.89929007068E-02  0.11493659868E+00  0.13282883589E+00  0.18607063847E-01 0.  0.
         14    1    1    2    0    0 -0.38221947012E-02  0.16743084024E-01 -0.14499613613E-01  0.22476183615E-01  0.00000000000E+00 0.  1.
     999901    1    3    3    0    0  0.67115028727E-01 -0.25735984730E-01 -0.10043698507E+00  0.88862498050E+00  0.88000000000E+00 0. -1.
        -11    1    4    4    0    0 -0.48605139152E-01  0.23961478132E-02  0.71408779838E-01  0.86415716367E-01  0.51100000000E-03 0. -1.
         11    1    4    4    0    0 -0.14687694874E-01  0.65967528936E-02  0.43527818845E-01  0.46413119522E-01  0.51100000000E-03 0.  1.
</event>
<event>
 8    1  0.1042301E+005  0.1043930E+01  0.7957747E-01            NaN
         13   -1    0    0    0    0  0.00000000000E+00  0.00000000000E+00  0.74505805969E-08  0.10566000000E+00  0.10566000000E+00 0. -1.
     999900   -1    0    0    0    0 -0.00000000000E+00 -0.00000000000E+00 -0.74505805969E-08  0.93827000000E+00  0.93827000000E+00 0.  1.
     999902    2    1    2    0    0 -0.17355218950E-01  0.51986250457E-02  0.14505207012E-01  0.10207215886E+01  0.10204577067E+01 0.  0.
     999903    2    3    3    0    0 -0.55423010396E-03  0.12644013394E+00  0.32553537810E-01  0.13206669559E+00  0.19861133359E-01 0.  0.
         14    1    1    2    0    0  0.17355218950E-01 -0.51986250457E-02 -0.14505207012E-01  0.23208411355E-01  0.00000000000E+00 0.  1.
     999901    1    3    3    0    0 -0.16800988846E-01 -0.12124150889E+00 -0.18048330798E-01  0.88865489305E+00  0.88000000000E+00 0.  1.
        -11    1    4    4    0    0 -0.40801073043E-02  0.11681431646E+00  0.33927888366E-01  0.12171111098E+00  0.51100000000E-03 0. -1.
         11    1    4    4    0    0  0.35258772003E-02  0.96258174770E-02 -0.13743505560E-02  0.10355584608E-01  0.51100000000E-03 0.  1.
</event>
<event>
 8    1  0.1042301E+005  0.1043930E+01  0.7957747E-01            NaN
         13   -1    0    0    0    0  0.00000000000E+00  0.00000000000E+00  0.74505805969E-08  0.10566000000E+00  0.10566000000E+00 0.  1.
     999900   -1    0    0    0    0 -0.00000000000E+00 -0.00000000000E+00 -0.74505805969E-08  0.93827000000E+00  0.93827000000E+00 0. -1.
     999902    2    1    2    0    0  0.12601157325E-01 -0.30798531411E-02  0.24086165792E-01  0.10165727698E+01  0.10162045947E+01 0.  0.
     999903    2    3    3    0    0  0.11260527552E+00 -0.34725103577E-01  0.51819487301E-01  0.12990970942E+00  0.17478342138E-01 0.  0.
         14    1    1    2    0    0 -0.12601157325E-01  0.30798531411E-02 -0.24086165792E-01  0.27357230193E-01  0.00000000000E+00 0. -1.
     999901    1    3    3    0    0 -0.10000411820E+00  0.31645250436E-01 -0.27733321509E-01  0.88666306039E+00  0.88000000000E+00 0. -1.
        -11    1    4    4    0    0  0.82582702642E-01 -0.20390557324E-01  0.30375031978E-01  0.90324865305E-01  0.51100000000E-03 0.  1.
         11    1    4    4    0    0  0.30022572879E-01 -0.14334546253E-01  0.21444455323E-01  0.39584844116E-01  0.51100000000E-03 0. -1.
</event>
<event>
 8    1  0.1042301E+005  0.1043930E+01  0.7957747E-01            NaN
         13   -1    0    0    0    0  0.00000000000E+00  0.00000000000E+00  0.74505805969E-08  0.10566000000E+00  0.10566000000E+00 0. -1.
     999900   -1    0    0    0    0 -0.00000000000E+00 -0.00000000000E+00 -0.74505805969E-08  0.93827000000E+00  0.93827000000E+00 0.  1.
     999902    2    1    2    0    0 -0.22932549736E-01  0.15678321949E-01 -0.23740857602E-01  0.10073876966E+01  0.10067247049E+01 0.  0.
     999903    2    3    3    0    0  0.54139935930E-01  0.13735391897E-01 -0.10452900317E+00  0.12033038873E+00  0.20815770311E-01 0.  0.
         14    1    1    2    0    0  0.22932549736E-01 -0.15678321949E-01  0.23740857602E-01  0.36542303379E-01  0.00000000000E+00 0. -1.
     999901    1    3    3    0    0 -0.77072485666E-01  0.19429300519E-02  0.80788145571E-01  0.88705730789E+00  0.88000000000E+00 0. -1.
        -11    1    4    4    0    0  0.11742040623E-01  0.12088963508E-01 -0.24387282820E-01  0.29648258651E-01  0.51100000000E-03 0. -1.
         11    1    4    4    0    0  0.42397895307E-01  0.16464283895E-02 -0.80141720353E-01  0.90682130076E-01  0.51100000000E-03 0.  1.
</event>
<event>
 8    1  0.1042301E+005  0.1043930E+01  0.7957747E-01            NaN
         13   -1    0    0    0    0  0.00000000000E+00  0.00000000000E+00  0.74505805969E-08  0.10566000000E+00  0.10566000000E+00 0.  1.
     999900   -1    0    0    0    0 -0.00000000000E+00 -0.00000000000E+00 -0.74505805969E-08  0.93827000000E+00  0.93827000000E+00 0. -1.
     999902    2    1    2    0    0  0.10264623780E-01 -0.13539877508E-01  0.16247509926E-01  0.10204210153E+01  0.10201501733E+01 0.  0.
     999903    2    3    3    0    0 -0.11059058044E+00  0.20405376196E-01  0.62764008228E-01  0.13029627949E+00  0.19777357268E-01 0.  0.
         14    1    1    2    0    0 -0.10264623780E-01  0.13539877508E-01 -0.16247509926E-01  0.23508984731E-01  0.00000000000E+00 0. -1.
     999901    1    3    3    0    0  0.12085520422E+00 -0.33945253705E-01 -0.46516498301E-01  0.89012473578E+00  0.88000000000E+00 0. -1.
        -11    1    4    4    0    0 -0.17852109089E-01 -0.75818049007E-03  0.34811549571E-02  0.18211320584E-01  0.51100000000E-03 0. -1.
         11    1    4    4    0    0 -0.92738471348E-01  0.21163556686E-01  0.59282853271E-01  0.11208495890E+00  0.51100000000E-03 0.  1.
</event>
<event>
 8    1  0.1042301E+005  0.1043930E+01  0.7957747E-01            NaN
         13   -1    0    0    0    0  0.00000000000E+00  0.00000000000E+00  0.74505805969E-08  0.10566000000E+00  0.10566000000E+00 0. -1.
     999900   -1    0    0    0    0 -0.00000000000E+00 -0.00000000000E+00 -0.74505805969E-08  0.93827000000E+00  0.93827000000E+00 0.  1.
     999902    2    1    2    0    0  0.20929616172E-01  0.11171553882E-01 -0.17782485263E-03  0.10202048220E+01  0.10199289165E+01 0.  0.
     999903    2    3    3    0    0  0.59453803015E-01 -0.11300472793E+00  0.17737690667E-01  0.13047181282E+00  0.20085941441E-01 0.  0.
         14    1    1    2    0    0 -0.20929616172E-01 -0.11171553882E-01  0.17782485263E-03  0.23725177996E-01  0.00000000000E+00 0. -1.
     999901    1    3    3    0    0 -0.38524186843E-01  0.12417628181E+00 -0.17915515519E-01  0.88973300918E+00  0.88000000000E+00 0.  1.
        -11    1    4    4    0    0  0.42195495037E-01 -0.93465557827E-01  0.19299534530E-01  0.10435038790E+00  0.51100000000E-03 0.  1.
         11    1    4    4    0    0  0.17258307979E-01 -0.19539170100E-01 -0.15618438635E-02  0.26121424918E-01  0.51100000000E-03 0. -1.
</event>
<event>
 8    1  0.1042301E+005  0.1043930E+01  0.7957747E-01            NaN
         13   -1    0    0    0    0  0.00000000000E+00  0.00000000000E+00  0.74505805969E-08  0.10566000000E+00  0.10566000000E+00 0. -1.
     999900   -1    0    0    0    0 -0.00000000000E+00 -0.00000000000E+00 -0.74505805969E-08  0.93827000000E+00  0.93827000000E+00 0. -1.
     999902    2    1    2    0    0  0.22672310521E-01  0.86092423224E-02 -0.45187269243E-02  0.10192607558E+01  0.10189621763E+01 0.  0.
     999903    2    3    3    0    0  0.78208100152E-01  0.96891422430E-01  0.39215236622E-01  0.13202311747E+00  0.19692996039E-01 0.  0.
         14    1    1    2    0    0 -0.22672310521E-01 -0.86092423224E-02  0.45187269243E-02  0.24669244228E-01  0.00000000000E+00 0.  1.
     999901    1    3    3    0    0 -0.55535789631E-01 -0.88282180108E-01 -0.43733963546E-01  0.88723763830E+00  0.88000000000E+00 0.  1.
        -11    1    4    4    0    0  0.58376626998E-01  0.57411817033E-01  0.25139325853E-01  0.85651585742E-01  0.51100000000E-03 0.  1.
         11    1    4    4    0    0  0.19831473154E-01  0.39479605397E-01  0.14075910769E-01  0.46371531728E-01  0.51100000000E-03 0. -1.
</event>
<event>
 8    1  0.1042301E+005  0.1043930E+01  0.7957747E-01            NaN
         13   -1    0    0    0    0  0.00000000000E+00  0.00000000000E+00  0.74505805969E-08  0.10566000000E+00  0.10566000000E+00 0. -1.
     999900   -1    0    0    0    0 -0.00000000000E+00 -0.00000000000E+00 -0.74505805969E-08  0.93827000000E+00  0.93827000000E+00 0.  1.
     999902    2    1    2    0    0 -0.17180974107E-01  0.15170331367E-01  0.45385535791E-02  0.10205649985E+01  0.10202975022E+01 0.  0.
     999903    2    3    3    0    0  0.12231226525E+00  0.38749942583E-02  0.35275528536E-01  0.12897613022E+00  0.20375805337E-01 0.  0.
         14    1    1    2    0    0  0.17180974107E-01 -0.15170331367E-01 -0.45385535791E-02  0.23365001469E-01  0.00000000000E+00 0.  1.
     999901    1    3    3    0    0 -0.13949323935E+00  0.11295337109E-01 -0.30736974957E-01  0.89158886831E+00  0.88000000000E+00 0. -1.
        -11    1    4    4    0    0  0.52005228172E-01  0.59831297397E-02  0.56618416420E-02  0.52656045906E-01  0.51100000000E-03 0. -1.
         11    1    4    4    0    0  0.70307037074E-01 -0.21081354814E-02  0.29613686894E-01  0.76320084315E-01  0.51100000000E-03 0.  1.
</event>
<event>
 8    1  0.1042301E+005  0.1043930E+01  0.7957747E-01            NaN
         13   -1    0    0    0    0  0.00000000000E+00  0.00000000000E+00  0.74505805969E-08  0.10566000000E+00  0.10566000000E+00 0. -1.
     999900   -1    0    0    0    0 -0.00000000000E+00 -0.00000000000E+00 -0.74505805969E-08  0.93827000000E+00  0.93827000000E+00 0. -1.
     999902    2    1    2    0    0 -0.52096092496E-02  0.14859719361E-01  0.18857806947E-01  0.10193623756E+01  0.10190662807E+01 0.  0.
     999903    2    3    3    0    0  0.12558889863E+00  0.17974936830E-01 -0.11022914718E-01  0.12918777933E+00  0.21732645178E-01 0.  0.
         14    1    1    2    0    0  0.52096092496E-02 -0.14859719361E-01 -0.18857806947E-01  0.24567624445E-01  0.00000000000E+00 0.  1.
     999901    1    3    3    0    0 -0.13079850788E+00 -0.31152174692E-02  0.29880721666E-01  0.89017459623E+00  0.88000000000E+00 0.  1.
        -11    1    4    4    0    0  0.69262506507E-01  0.19821569986E-01 -0.10649141372E-01  0.72827568799E-01  0.51100000000E-03 0.  1.
         11    1    4    4    0    0  0.56326392119E-01 -0.18466331556E-02 -0.37377334619E-03  0.56360210527E-01  0.51100000000E-03 0. -1.
</event>
<event>
 8    1  0.1042301E+005  0.1043930E+01  0.7957747E-01            NaN
         13   -1    0    0    0    0  0.00000000000E+00  0.00000000000E+00  0.74505805969E-08  0.10566000000E+00  0.10566000000E+00 0.  1.
     999900   -1    0    0    0    0 -0.00000000000E+00 -0.00000000000E+00 -0.74505805969E-08  0.93827000000E+00  0.93827000000E+00 0. -1.
     999902    2    1    2    0    0 -0.67112967878E-02  0.64683769562E-02  0.22088384657E-01  0.10199554689E+01  0.10196736637E+01 0.  0.
     999903    2    3    3    0    0 -0.10611145497E+00 -0.56159505701E-01  0.50030668984E-01  0.13170808534E+00  0.20746588851E-01 0.  0.
         14    1    1    2    0    0  0.67112967878E-02 -0.64683769562E-02 -0.22088384657E-01  0.23974531106E-01  0.00000000000E+00 0. -1.
     999901    1    3    3    0    0  0.99400158183E-01  0.62627882657E-01 -0.27942284327E-01  0.88824738355E+00  0.88000000000E+00 0. -1.
        -11    1    4    4    0    0 -0.82168017412E-01 -0.35738417728E-01  0.43319588739E-01  0.99527209730E-01  0.51100000000E-03 0. -1.
         11    1    4    4    0    0 -0.23943437559E-01 -0.20421087973E-01  0.67110802451E-02  0.32180875612E-01  0.51100000000E-03 0.  1.
</event>
<event>
 8    1  0.1042301E+005  0.1043930E+01  0.7957747E-01            NaN
         13   -1    0    0    0    0  0.00000000000E+00  0.00000000000E+00  0.74505805969E-08  0.10566000000E+00  0.10566000000E+00 0.  1.
     999900   -1    0    0    0    0 -0.00000000000E+00 -0.00000000000E+00 -0.74505805969E-08  0.93827000000E+00  0.93827000000E+00 0. -1.
     999902    2    1    2    0    0 -0.21418635021E-01 -0.10697665923E-01 -0.22067013796E-02  0.10198869654E+01  0.10196035282E+01 0.  0.
     999903    2    3    3    0    0  0.10094638288E+00  0.69132009959E-01 -0.28948395043E-01  0.12744027626E+00  0.20823242274E-01 0.  0.
         14    1    1    2    0    0  0.21418635021E-01  0.10697665923E-01  0.22067013796E-02  0.24043034612E-01  0.00000000000E+00 0. -1.
     999901    1    3    3    0    0 -0.12236501791E+00 -0.79829675881E-01  0.26741693664E-01  0.89244668913E+00  0.88000000000E+00 0. -1.
        -11    1    4    4    0    0  0.88847321478E-01  0.61135593548E-01 -0.32228123285E-01  0.11256251767E+00  0.51100000000E-03 0. -1.
         11    1    4    4    0    0  0.12099061407E-01  0.79964164109E-02  0.32797282417E-02  0.14877758591E-01  0.51100000000E-03 0.  1.
</event>
<event>
 8    1  0.1115010E+005  0.1043930E+01  0.7957747E-01            NaN
         13   -1    0    0    0    0  0.00000000000E+00  0.00000000000E+00  0.74505805969E-08  0.10566000000E+00  0.10566000000E+00 0. -1.
     999900   -1    0    0    0    0 -0.00000000000E+00 -0.00000000000E+00 -0.74505805969E-08  0.93827000000E+00  0.93827000000E+00 0. -1.
     999902    2    1    2    0    0  0.38052241205E-02 -0.39700905063E-02 -0.22857897534E-01  0.10204198994E+01  0.10201490314E+01 0.  0.
     999903    2    3    3    0    0  0.73084713529E-01 -0.56152475003E-01  0.87727300854E-01  0.12926798477E+00  0.22795981437E-01 0.  0.
         14    1    1    2    0    0 -0.38052241205E-02  0.39700905063E-02  0.22857897534E-01  0.23510100572E-01  0.00000000000E+00 0. -1.
     999901    1    3    3    0    0 -0.69279489408E-01  0.52182384496E-01 -0.11058519839E+00  0.89115191466E+00  0.88000000000E+00 0.  1.
        -11    1    4    4    0    0  0.21966460364E-01 -0.14220322861E-01  0.39685333187E-01  0.47538718476E-01  0.51100000000E-03 0.  1.
         11    1    4    4    0    0  0.51118253165E-01 -0.41932152142E-01  0.48041967667E-01  0.81729266289E-01  0.51100000000E-03 0. -1.
</event>
<event>
 8    1  0.1042301E+005  0.1043930E+01  0.7957747E-01            NaN
         13   -1    0    0    0    0  0.00000000000E+00  0.00000000000E+00  0.74505805969E-08  0.10566000000E+00  0.10566000000E+00 0. -1.
     999900   -1    0    0    0    0 -0.00000000000E+00 -0.00000000000E+00 -0.74505805969E-08  0.93827000000E+00  0.93827000000E+00 0.  1.
     999902    2    1    2    0    0  0.12422769978E-01 -0.12904167423E-01 -0.14369024056E-01  0.10209667336E+01  0.10207084596E+01 0.  0.
     999903    2    3    3    0    0 -0.21899483902E-01 -0.29748489432E-01 -0.12623264037E+00  0.13306177420E+00  0.20154310730E-01 0.  0.
         14    1    1    2    0    0 -0.12422769978E-01  0.12904167423E-01  0.14369024056E-01  0.22963266386E-01  0.00000000000E+00 0. -1.
     999901    1    3    3    0    0  0.34322253880E-01  0.16844322010E-01  0.11186361631E+00  0.88790495941E+00  0.88000000000E+00 0. -1.
        -11    1    4    4    0    0 -0.71140315312E-02 -0.70768495731E-02 -0.11931557085E-01  0.15598539033E-01  0.51100000000E-03 0.  1.
         11    1    4    4    0    0 -0.14785452370E-01 -0.22671639859E-01 -0.11430108328E+00  0.11746323517E+00  0.51100000000E-03 0. -1.
</event>
<event>
 8    1  0.1042301E+005  0.1043930E+01  0.7957747E-01            NaN
         13   -1    0    0    0    0  0.00000000000E+00  0.00000000000E+00  0.74505805969E-08  0.10566000000E+00  0.10566000000E+00 0. -1.
     999900   -1    0    0    0    0 -0.00000000000E+00 -0.00000000000E+00 -0.74505805969E-08  0.93827000000E+00  0.93827000000E+00 0.  1.
     999902    2    1    2    0    0  0.10291184503E-01  0.17290022138E-01 -0.10315986320E-01  0.10213186551E+01  0.10210683240E+01 0.  0.
     999903    2    3    3    0    0  0.85141887924E-01 -0.88294048885E-01  0.40107575906E-01  0.13042407129E+00  0.18890224409E-01 0.  0.
         14    1    1    2    0    0 -0.10291184503E-01 -0.17290022138E-01  0.10315986320E-01  0.22611344890E-01  0.00000000000E+00 0. -1.
     999901    1    3    3    0    0 -0.74850703422E-01  0.10558407102E+00 -0.50423562226E-01  0.89089458382E+00  0.88000000000E+00 0. -1.
        -11    1    4    4    0    0  0.24387011577E-01 -0.33106476520E-01  0.20892945542E-01  0.46125279573E-01  0.51100000000E-03 0. -1.
         11    1    4    4    0    0  0.60754876347E-01 -0.55187572365E-01  0.19214630364E-01  0.84298791714E-01  0.51100000000E-03 0.  1.
</event>
<event>
 8    1  0.1042301E+005  0.1043930E+01  0.7957747E-01            NaN
         13   -1    0    0    0    0  0.00000000000E+00  0.00000000000E+00  0.74505805969E-08  0.10566000000E+00  0.10566000000E+00 0. -1.
     999900   -1    0    0    0    0 -0.00000000000E+00 -0.00000000000E+00 -0.74505805969E-08  0.93827000000E+00  0.93827000000E+00 0. -1.
     999902    2    1    2    0    0  0.17587818767E-01  0.32507614751E-02  0.14215612132E-01  0.10210830648E+01  0.10208274305E+01 0.  0.
     999903    2    3    3    0    0  0.98931220838E-02  0.12970444830E+00  0.95427020232E-02  0.13199837854E+00  0.20282776006E-01 0.  0.
         14    1    1    2    0    0 -0.17587818767E-01 -0.32507614751E-02 -0.14215612132E-01  0.22846935187E-01  0.00000000000E+00 0.  1.
     999901    1    3    3    0    0  0.76946966833E-02 -0.12645368683E+00  0.46729101090E-02  0.88908468627E+00  0.88000000000E+00 0.  1.
        -11    1    4    4    0    0 -0.34565412256E-02  0.16440779572E-01  0.61542265907E-02  0.17899232836E-01  0.51100000000E-03 0.  1.
         11    1    4    4    0    0  0.13349663309E-01  0.11326366873E+00  0.33884754326E-02  0.11409914571E+00  0.51100000000E-03 0. -1.
</event>
<event>
 8    1  0.1042301E+005  0.1043930E+01  0.7957747E-01            NaN
         13   -1    0    0    0    0  0.00000000000E+00  0.00000000000E+00  0.74505805969E-08  0.10566000000E+00  0.10566000000E+00 0.  1.
     999900   -1    0    0    0    0 -0.00000000000E+00 -0.00000000000E+00 -0.74505805969E-08  0.93827000000E+00  0.93827000000E+00 0.  1.
     999902    2    1    2    0    0 -0.11642830260E-01  0.18143881555E-01  0.14387600586E-01  0.10180116863E+01  0.10176816960E+01 0.  0.
     999903    2    3    3    0    0  0.63747669838E-01  0.80407286308E-01  0.77737035102E-01  0.13033290998E+00  0.20359855018E-01 0.  0.
         14    1    1    2    0    0  0.11642830260E-01 -0.18143881555E-01 -0.14387600586E-01  0.25918313699E-01  0.00000000000E+00 0. -1.
     999901    1    3    3    0    0 -0.75390500099E-01 -0.62263404753E-01 -0.63349434516E-01  0.88767877632E+00  0.88000000000E+00 0.  1.
        -11    1    4    4    0    0  0.31195612269E-01  0.25319516110E-01  0.35887891140E-01  0.53874353569E-01  0.51100000000E-03 0.  1.
         11    1    4    4    0    0  0.32552057569E-01  0.55087770198E-01  0.41849143962E-01  0.76458556412E-01  0.51100000000E-03 0. -1.
</event>
<event>
 8    1  0.1042301E+005  0.1043930E+01  0.7957747E-01            NaN
         13   -1    0    0    0    0  0.00000000000E+00  0.00000000000E+00  0.74505805969E-08  0.10566000000E+00  0.10566000000E+00 0.  1.
     999900   -1    0    0    0    0 -0.00000000000E+00 -0.00000000000E+00 -0.74505805969E-08  0.93827000000E+00  0.93827000000E+00 0.  1.
     999902    2    1    2    0    0 -0.87685796866E-02  0.16212623194E-01 -0.20078372499E-01  0.10166742083E+01  0.10163087954E+01 0.  0.
     999903    2    3    3    0    0  0.12337629748E+00 -0.13465606236E-01 -0.38330838450E-03  0.12609520481E+00  0.22289468800E-01 0.  0.
         14    1    1    2    0    0  0.87685796866E-02 -0.16212623194E-01  0.20078372499E-01  0.27255791729E-01  0.00000000000E+00 0.  1.
     999901    1    3    3    0    0 -0.13214487716E+00  0.29678229430E-01 -0.19695064114E-01  0.89057900347E+00  0.88000000000E+00 0. -1.
        -11    1    4    4    0    0  0.72435084865E-01 -0.14838297136E-01  0.82750718099E-02  0.74402651269E-01  0.51100000000E-03 0.  1.
         11    1    4    4    0    0  0.50941212612E-01  0.13726909000E-02 -0.86583801944E-02  0.51692553538E-01  0.51100000000E-03 0. -1.
</event>
<event>
 8    1  0.1042301E+005  0.1043930E+01  0.7957747E-01            NaN
         13   -1    0    0    0    0  0.00000000000E+00  0.00000000000E+00  0.74505805969E-08  0.10566000000E+00  0.10566000000E+00 0.  1.
     999900   -1    0    0    0    0 -0.00000000000E+00 -0.00000000000E+00 -0.74505805969E-08  0.93827000000E+00  0.93827000000E+00 0. -1.
     999902    2    1    2    0    0  0.53467705507E-02  0.28888739642E-02 -0.22521923508E-01  0.10206025358E+01  0.10203359082E+01 0.  0.
     999903    2    3    3    0    0 -0.59212732548E-02  0.12524965149E+00  0.30069666672E-01  0.13050984171E+00  0.20151854859E-01 0.  0.
         14    1    1    2    0    0 -0.53467705507E-02 -0.28888739642E-02  0.22521923508E-01  0.23327464213E-01  0.00000000000E+00 0.  1.
     999901    1    3    3    0    0  0.11268043806E-01 -0.12236077753E+00 -0.52591590179E-01  0.89009269408E+00  0.88000000000E+00 0. -1.
        -11    1    4    4    0    0 -0.85809936547E-02  0.10735506508E+00  0.31888124937E-01  0.11232033246E+00  0.51100000000E-03 0. -1.
         11    1    4    4    0    0  0.26597203998E-02  0.17894586410E-01 -0.18184582658E-02  0.18189509253E-01  0.51100000000E-03 0.  1.
</event>
<event>
 8    1  0.1042301E+005  0.1043930E+01  0.7957747E-01            NaN
         13   -1    0    0    0    0  0.00000000000E+00  0.00000000000E+00  0.74505805969E-08  0.10566000000E+00  0.10566000000E+00 0. -1.
     999900   -1    0    0    0    0 -0.00000000000E+00 -0.00000000000E+00 -0.74505805969E-08  0.93827000000E+00  0.93827000000E+00 0.  1.
     999902    2    1    2    0    0  0.24241011262E-01  0.70773347969E-04 -0.41215134217E-02  0.10193410084E+01  0.10190443920E+01 0.  0.
     999903    2    3    3    0    0 -0.92499253993E-01  0.78847295263E-01 -0.33558835694E-01  0.12765687940E+00  0.19926752004E-01 0.  0.
         14    1    1    2    0    0 -0.24241011262E-01 -0.70773347969E-04  0.41215134217E-02  0.24588991617E-01  0.00000000000E+00 0.  1.
     999901    1    3    3    0    0  0.11674026525E+00 -0.78776521915E-01  0.29437322273E-01  0.89168412898E+00  0.88000000000E+00 0.  1.
        -11    1    4    4    0    0 -0.36505775921E-01  0.28755508695E-01 -0.22779091825E-01  0.51756150371E-01  0.51100000000E-03 0. -1.
         11    1    4    4    0    0 -0.55993478072E-01  0.50091786569E-01 -0.10779743870E-01  0.75900729029E-01  0.51100000000E-03 0.  1.
</event>
<event>
 8    1  0.1042301E+005  0.1043930E+01  0.7957747E-01            NaN
         13   -1    0    0    0    0  0.00000000000E+00  0.00000000000E+00  0.74505805969E-08  0.10566000000E+00  0.10566000000E+00 0.  1.
     999900   -1    0    0    0    0 -0.00000000000E+00 -0.00000000000E+00 -0.74505805969E-08  0.93827000000E+00  0.93827000000E+00 0.  1.
     999902    2    1    2    0    0  0.14388832493E-01 -0.13194055900E-01 -0.12952650492E-01  0.10205015394E+01  0.10202325711E+01 0.  0.
     999903    2    3    3    0    0 -0.44768950488E-01 -0.27629361978E-03 -0.12219543662E+00  0.13168181741E+00  0.20100772095E-01 0.  0.
         14    1    1    2    0    0 -0.14388832493E-01  0.13194055900E-01  0.12952650492E-01  0.23428460606E-01  0.00000000000E+00 0.  1.
     999901    1    3    3    0    0  0.59157782981E-01 -0.12917762280E-01  0.10924278613E+00  0.88881972199E+00  0.88000000000E+00 0. -1.
        -11    1    4    4    0    0 -0.26573347201E-01  0.24602696270E-02 -0.96164695341E-01  0.99800327951E-01  0.51100000000E-03 0.  1.
         11    1    4    4    0    0 -0.18195603288E-01 -0.27365632467E-02 -0.26030741281E-01  0.31881489458E-01  0.51100000000E-03 0. -1.
</event>
<event>
 8    1  0.1042301E+005  0.1043930E+01  0.7957747E-01            NaN
         13   -1    0    0    0    0  0.00000000000E+00  0.00000000000E+00  0.74505805969E-08  0.10566000000E+00  0.10566000000E+00 0.  1.
     999900   -1    0    0    0    0 -0.00000000000E+00 -0.00000000000E+00 -0.74505805969E-08  0.93827000000E+00  0.93827000000E+00 0. -1.
     999902    2    1    2    0    0 -0.50711064724E-02  0.22174104359E-01 -0.55021776475E-02  0.10205274150E+01  0.10202590474E+01 0.  0.
     999903    2    3    3    0    0 -0.12572849609E+00  0.16986967540E-02 -0.33250794801E-01  0.13162503920E+00  0.20223631930E-01 0.  0.
         14    1    1    2    0    0  0.50711064724E-02 -0.22174104359E-01  0.55021776475E-02  0.23402584982E-01  0.00000000000E+00 0. -1.
     999901    1    3    3    0    0  0.12065738962E+00  0.20475407605E-01  0.27748617154E-01  0.88890237582E+00  0.88000000000E+00 0.  1.
        -11    1    4    4    0    0 -0.10667842519E-01 -0.53603642915E-02 -0.14255359520E-02  0.12034518815E-01  0.51100000000E-03 0.  1.
         11    1    4    4    0    0 -0.11506065357E+00  0.70590610455E-02 -0.31825258849E-01  0.11959052038E+00  0.51100000000E-03 0. -1.
</event>
<event>
 8    1  0.1348191E+005  0.1043930E+01  0.7957747E-01            NaN
         13   -1    0    0    0    0  0.00000000000E+00  0.00000000000E+00  0.74505805969E-08  0.10566000000E+00  0.10566000000E+00 0. -1.
     999900   -1    0    0    0    0 -0.00000000000E+00 -0.00000000000E+00 -0.74505805969E-08  0.93827000000E+00  0.93827000000E+00 0. -1.
     999902    2    1    2    0    0  0.24486043526E-01  0.16641865540E-02  0.38921923716E-03  0.10193843825E+01  0.10190888244E+01 0.  0.
     999903    2    3    3    0    0 -0.88302534573E-02  0.12080264335E+00 -0.41684409174E-01  0.12973606004E+00  0.20557317204E-01 0.  0.
         14    1    1    2    0    0 -0.24486043526E-01 -0.16641865540E-02 -0.38921923716E-03  0.24545617451E-01  0.00000000000E+00 0.  1.
     999901    1    3    3    0    0  0.33316296983E-01 -0.11913845680E+00  0.42073628411E-01  0.88964832251E+00  0.88000000000E+00 0. -1.
        -11    1    4    4    0    0  0.46081036889E-02  0.73790320712E-01 -0.26325108900E-01  0.78482600173E-01  0.51100000000E-03 0. -1.
         11    1    4    4    0    0 -0.13438357146E-01  0.47012322637E-01 -0.15359300274E-01  0.51253459868E-01  0.51100000000E-03 0.  1.
</event>
<event>
 8    1  0.1042301E+005  0.1043930E+01  0.7957747E-01            NaN
         13   -1    0    0    0    0  0.00000000000E+00  0.00000000000E+00  0.74505805969E-08  0.10566000000E+00  0.10566000000E+00 0. -1.
     999900   -1    0    0    0    0 -0.00000000000E+00 -0.00000000000E+00 -0.74505805969E-08  0.93827000000E+00  0.93827000000E+00 0. -1.
     999902    2    1    2    0    0 -0.13234493251E-01 -0.26126048014E-03 -0.19491699971E-01  0.10203684543E+01  0.10200963857E+01 0.  0.
     999903    2    3    3    0    0 -0.39700525255E-01  0.12098045224E+00 -0.26747482474E-01  0.13163190720E+00  0.19978229272E-01 0.  0.
         14    1    1    2    0    0  0.13234493251E-01  0.26126048014E-03  0.19491699971E-01  0.23561545713E-01  0.00000000000E+00 0. -1.
     999901    1    3    3    0    0  0.26466032004E-01 -0.12124171272E+00  0.72557825030E-02  0.88873654709E+00  0.88000000000E+00 0. -1.
        -11    1    4    4    0    0 -0.28159679086E-01  0.10752076529E+00 -0.23098256696E-01  0.11352300682E+00  0.51100000000E-03 0.  1.
         11    1    4    4    0    0 -0.11540846169E-01  0.13459686947E-01 -0.36492257782E-02  0.18108900375E-01  0.51100000000E-03 0. -1.
</event>
<event>
 8    1  0.1042301E+005  0.1043930E+01  0.7957747E-01            NaN
         13   -1    0    0    0    0  0.00000000000E+00  0.00000000000E+00  0.74505805969E-08  0.10566000000E+00  0.10566000000E+00 0. -1.
     999900   -1    0    0    0    0 -0.00000000000E+00 -0.00000000000E+00 -0.74505805969E-08  0.93827000000E+00  0.93827000000E+00 0. -1.
     999902    2    1    2    0    0  0.10362171920E-01 -0.19399681122E-02  0.20414929632E-01  0.10209537637E+01  0.10206951945E+01 0.  0.
     999903    2    3    3    0    0 -0.10730600679E+00  0.86800968711E-02 -0.67577625687E-01  0.12870868757E+00  0.20230363032E-01 0.  0.
         14    1    1    2    0    0 -0.10362171920E-01  0.19399681122E-02 -0.20414929632E-01  0.22976236312E-01  0.00000000000E+00 0.  1.
     999901    1    3    3    0    0  0.11766817871E+00 -0.10620064983E-01  0.87992555319E-01  0.89224507612E+00  0.88000000000E+00 0.  1.
        -11    1    4    4    0    0 -0.35913358300E-01  0.10358476549E-01 -0.16236816473E-01  0.40754909777E-01  0.51100000000E-03 0.  1.
         11    1    4    4    0    0 -0.71392648490E-01 -0.16783796783E-02 -0.51340809214E-01  0.87953777795E-01  0.51100000000E-03 0. -1.
</event>
<event>
 8    1  0.1042301E+005  0.1043930E+01  0.7957747E-01            NaN
         13   -1    0    0    0    0  0.00000000000E+00  0.00000000000E+00  0.74505805969E-08  0.10566000000E+00  0.10566000000E+00 0. -1.
     999900   -1    0    0    0    0 -0.00000000000E+00 -0.00000000000E+00 -0.74505805969E-08  0.93827000000E+00  0.93827000000E+00 0. -1.
     999902    2    1    2    0    0  0.21704265768E-01 -0.50307267830E-02  0.11200080960E-01  0.10189935773E+01  0.10186884143E+01 0.  0.
     999903    2    3    3    0    0  0.90019558932E-01  0.63040576130E-01 -0.67018746327E-01  0.13027603694E+00  0.20067341968E-01 0.  0.
         14    1    1    2    0    0 -0.21704265768E-01  0.50307267830E-02 -0.11200080960E-01  0.24936422718E-01  0.00000000000E+00 0.  1.
     999901    1    3    3    0    0 -0.68315293165E-01 -0.68071302913E-01  0.78218827287E-01  0.88871754034E+00  0.88000000000E+00 0.  1.
        -11    1    4    4    0    0  0.72118821219E-01  0.55479963312E-01 -0.47157908301E-01  0.10248551185E+00  0.51100000000E-03 0. -1.
         11    1    4    4    0    0  0.17900737713E-01  0.75606128177E-02 -0.19860838026E-01  0.27790525093E-01  0.51100000000E-03 0.  1.
</event>
<event>
 8    1  0.1042301E+005  0.1043930E+01  0.7957747E-01            NaN
         13   -1    0    0    0    0  0.00000000000E+00  0.00000000000E+00  0.74505805969E-08  0.10566000000E+00  0.10566000000E+00 0. -1.
     999900   -1    0    0    0    0 -0.00000000000E+00 -0.00000000000E+00 -0.74505805969E-08  0.93827000000E+00  0.93827000000E+00 0.  1.
     999902    2    1    2    0    0 -0.46843705394E-02 -0.21163629938E-01 -0.12392489577E-01  0.10189616929E+01  0.10186557394E+01 0.  0.
     999903    2    3    3    0    0  0.80891680247E-01 -0.92589888241E-01  0.33592780437E-01  0.13073896417E+00  0.29117872820E-01 0.  0.
         14    1    1    2    0    0  0.46843705394E-02  0.21163629938E-01  0.12392489577E-01  0.24968307059E-01  0.00000000000E+00 0.  1.
     999901    1    3    3    0    0 -0.85576050787E-01  0.71426258303E-01 -0.45985270014E-01  0.88822272877E+00  0.88000000000E+00 0.  1.
        -11    1    4    4    0    0  0.67249076777E-01 -0.74534875211E-01  0.15119674768E-01  0.10152217313E+00  0.51100000000E-03 0.  1.
         11    1    4    4    0    0  0.13642603470E-01 -0.18055013030E-01  0.18473105670E-01  0.29216791046E-01  0.51100000000E-03 0. -1.
</event>
<event>
 8    1  0.1042301E+005  0.1043930E+01  0.7957747E-01            NaN
         13   -1    0    0    0    0  0.00000000000E+00  0.00000000000E+00  0.74505805969E-08  0.10566000000E+00  0.10566000000E+00 0. -1.
     999900   -1    0    0    0    0 -0.00000000000E+00 -0.00000000000E+00 -0.74505805969E-08  0.93827000000E+00  0.93827000000E+00 0. -1.
     999902    2    1    2    0    0 -0.17173650521E-01  0.80949494488E-04  0.16685409269E-01  0.10199854034E+01  0.10197043098E+01 0.  0.
     999903    2    3    3    0    0 -0.77995886562E-01  0.93913317335E-01  0.47307642976E-01  0.13238099890E+00  0.19586890810E-01 0.  0.
         14    1    1    2    0    0  0.17173650521E-01 -0.80949494488E-04 -0.16685409269E-01  0.23944596624E-01  0.00000000000E+00 0.  1.
     999901    1    3    3    0    0  0.60822236042E-01 -0.93832367841E-01 -0.30622233707E-01  0.88760440448E+00  0.88000000000E+00 0.  1.
        -11    1    4    4    0    0 -0.64470586978E-02  0.12596845351E-01  0.11688048751E-01  0.18360737547E-01  0.51100000000E-03 0.  1.
         11    1    4    4    0    0 -0.71548827865E-01  0.81316471984E-01  0.35619594225E-01  0.11402026135E+00  0.51100000000E-03 0. -1.
</event>
<event>
 8    1  0.1042301E+005  0.1043930E+01  0.7957747E-01            NaN
         13   -1    0    0    0    0  0.00000000000E+00  0.00000000000E+00  0.74505805969E-08  0.10566000000E+00  0.10566000000E+00 0. -1.
     999900   -1    0    0    0    0 -0.00000000000E+00 -0.00000000000E+00 -0.74505805969E-08  0.93827000000E+00  0.93827000000E+00 0. -1.
     999902    2    1    2    0    0 -0.41506937742E-05 -0.23441056950E-01  0.39993520891E-02  0.10201502190E+01  0.10198730270E+01 0.  0.
     999903    2    3    3    0    0  0.86397234570E-01 -0.38616195421E-02  0.96401488079E-01  0.13088832928E+00  0.18950292616E-01 0.  0.
         14    1    1    2    0    0  0.41506937742E-05  0.23441056950E-01 -0.39993520891E-02  0.23779781019E-01  0.00000000000E+00 0.  1.
     999901    1    3    3    0    0 -0.86401385264E-01 -0.19579437408E-01 -0.92402135990E-01  0.88926188970E+00  0.88000000000E+00 0. -1.
        -11    1    4    4    0    0  0.70876244036E-01 -0.10092724537E-01  0.74466397764E-01  0.10329961556E+00  0.51100000000E-03 0.  1.
         11    1    4    4    0    0  0.15520990533E-01  0.62311049944E-02  0.21935090315E-01  0.27588713720E-01  0.51100000000E-03 0. -1.
</event>
<event>
 8    1  0.1042301E+005  0.1043930E+01  0.7957747E-01            NaN
         13   -1    0    0    0    0  0.00000000000E+00  0.00000000000E+00  0.74505805969E-08  0.10566000000E+00  0.10566000000E+00 0. -1.
     999900   -1    0    0    0    0 -0.00000000000E+00 -0.00000000000E+00 -0.74505805969E-08  0.93827000000E+00  0.93827000000E+00 0. -1.
     999902    2    1    2    0    0  0.11430244486E-01  0.66539521749E-02 -0.19944857199E-01  0.10199983704E+01  0.10197175847E+01 0.  0.
     999903    2    3    3    0    0 -0.32952138647E-01  0.12499307780E+00 -0.67794237993E-02  0.13087111669E+00  0.19291854666E-01 0.  0.
         14    1    1    2    0    0 -0.11430244486E-01 -0.66539521749E-02  0.19944857199E-01  0.23931629640E-01  0.00000000000E+00 0. -1.
     999901    1    3    3    0    0  0.44382383132E-01 -0.11833912563E+00 -0.13165433400E-01  0.88912725367E+00  0.88000000000E+00 0. -1.
        -11    1    4    4    0    0 -0.26481240139E-01  0.11574803864E+00 -0.24244178582E-02  0.11876448734E+00  0.51100000000E-03 0. -1.
         11    1    4    4    0    0 -0.64708985077E-02  0.92450391571E-02 -0.43550059411E-02  0.12106629352E-01  0.51100000000E-03 0.  1.
</event>
<event>
 8    1  0.1042301E+005  0.1043930E+01  0.7957747E-01            NaN
         13   -1    0    0    0    0  0.00000000000E+00  0.00000000000E+00  0.74505805969E-08  0.10566000000E+00  0.10566000000E+00 0.  1.
     999900   -1    0    0    0    0 -0.00000000000E+00 -0.00000000000E+00 -0.74505805969E-08  0.93827000000E+00  0.93827000000E+00 0.  1.
     999902    2    1    2    0    0 -0.20031644218E-01 -0.10593289370E-01 -0.86657594872E-02  0.10196693335E+01  0.10193806795E+01 0.  0.
     999903    2    3    3    0    0 -0.11209465973E+00 -0.53055291011E-01  0.41599564039E-01  0.13242346955E+00  0.20624619164E-01 0.  0.
         14    1    1    2    0    0  0.20031644218E-01  0.10593289370E-01  0.86657594872E-02  0.24260666463E-01  0.00000000000E+00 0.  1.
     999901    1    3    3    0    0  0.92063015513E-01  0.42462001642E-01 -0.50265323526E-01  0.88724586398E+00  0.88000000000E+00 0.  1.
        -11    1    4    4    0    0 -0.38072033223E-01 -0.25343484142E-01  0.23122080250E-01  0.51250986511E-01  0.51100000000E-03 0.  1.
         11    1    4    4    0    0 -0.74022626507E-01 -0.27711806869E-01  0.18477483788E-01  0.81172483042E-01  0.51100000000E-03 0. -1.
</event>
<event>
 8    1  0.1042301E+005  0.1043930E+01  0.7957747E-01            NaN
         13   -1    0    0    0    0  0.00000000000E+00  0.00000000000E+00  0.74505805969E-08  0.10566000000E+00  0.10566000000E+00 0. -1.
     999900   -1    0    0    0    0 -0.00000000000E+00 -0.00000000000E+00 -0.74505805969E-08  0.93827000000E+00  0.93827000000E+00 0. -1.
     999902    2    1    2    0    0 -0.39419637342E-03 -0.92485198939E-02 -0.20564298997E-01  0.10213782616E+01  0.10211292633E+01 0.  0.
     999903    2    3    3    0    0  0.83589067403E-01 -0.97262495154E-01 -0.29116140628E-01  0.13296800591E+00  0.19637102614E-01 0.  0.
         14    1    1    2    0    0  0.39419637342E-03  0.92485198939E-02  0.20564298997E-01  0.22551738386E-01  0.00000000000E+00 0. -1.
     999901    1    3    3    0    0 -0.83983263776E-01  0.88013975260E-01  0.85518416316E-02  0.88841025570E+00  0.88000000000E+00 0. -1.
        -11    1    4    4    0    0  0.35173576443E-01 -0.55109730458E-01 -0.18040674281E-01  0.67823225524E-01  0.51100000000E-03 0. -1.
         11    1    4    4    0    0  0.48415490960E-01 -0.42152764696E-01 -0.11075466347E-01  0.65144780391E-01  0.51100000000E-03 0.  1.
</event>
<event>
 8    1  0.1042301E+005  0.1043930E+01  0.7957747E-01            NaN
         13   -1    0    0    0    0  0.00000000000E+00  0.00000000000E+00  0.74505805969E-08  0.10566000000E+00  0.10566000000E+00 0.  1.
     999900   -1    0    0    0    0 -0.00000000000E+00 -0.00000000000E+00 -0.74505805969E-08  0.93827000000E+00  0.93827000000E+00 0.  1.
     999902    2    1    2    0    0 -0.13121128828E-01 -0.93605794966E-02  0.16974663488E-01  0.10205222305E+01  0.10202537426E+01 0.  0.
     999903    2    3    3    0    0  0.40448775180E-01  0.17354111099E-01 -0.11873438828E+00  0.12810957037E+00  0.19414903457E-01 0.  0.
         14    1    1    2    0    0  0.13121128828E-01  0.93605794966E-02 -0.16974663488E-01  0.23407769453E-01  0.00000000000E+00 0. -1.
     999901    1    3    3    0    0 -0.53569904008E-01 -0.26714690596E-01  0.13570905176E+00  0.89241266017E+00  0.88000000000E+00 0. -1.
        -11    1    4    4    0    0  0.15750709178E-01  0.15711350270E-01 -0.42773362882E-01  0.48215693090E-01  0.51100000000E-03 0.  1.
         11    1    4    4    0    0  0.24698066003E-01  0.16427608289E-02 -0.75961025394E-01  0.79893877283E-01  0.51100000000E-03 0. -1.
</event>
<event>
 8    1  0.1042301E+005  0.1043930E+01  0.7957747E-01            NaN
         13   -1    0    0    0    0  0.00000000000E+00  0.00000000000E+00  0.74505805969E-08  0.10566000000E+00  0.10566000000E+00 0. -1.
     999900   -1    0    0    0    0 -0.00000000000E+00 -0.00000000000E+00 -0.74505805969E-08  0.93827000000E+00  0.93827000000E+00 0.  1.
     999902    2    1    2    0    0  0.12715300421E-01  0.16228899165E-01 -0.11315551232E-01  0.10204119701E+01  0.10201409172E+01 0.  0.
     999903    2    3    3    0    0 -0.72846703864E-01  0.84588499878E-01  0.64151968954E-01  0.13041801603E+00  0.20773233022E-01 0.  0.
         14    1    1    2    0    0 -0.12715300421E-01 -0.16228899165E-01  0.11315551232E-01  0.23518029947E-01  0.00000000000E+00 0.  1.
     999901    1    3    3    0    0  0.85562004285E-01 -0.68359600713E-01 -0.75467520186E-01  0.88999395402E+00  0.88000000000E+00 0.  1.
        -11    1    4    4    0    0 -0.13784200192E-01  0.28705577359E-01  0.23011603844E-01  0.39291339744E-01  0.51100000000E-03 0. -1.
         11    1    4    4    0    0 -0.59062503671E-01  0.55882922519E-01  0.41140365110E-01  0.91126676290E-01  0.51100000000E-03 0.  1.
</event>
<event>
 8    1  0.1042301E+005  0.1043930E+01  0.7957747E-01            NaN
         13   -1    0    0    0    0  0.00000000000E+00  0.00000000000E+00  0.74505805969E-08  0.10566000000E+00  0.10566000000E+00 0.  1.
     999900   -1    0    0    0    0 -0.00000000000E+00 -0.00000000000E+00 -0.74505805969E-08  0.93827000000E+00  0.93827000000E+00 0.  1.
     999902    2    1    2    0    0 -0.17686678094E-02 -0.13287128763E-01 -0.19312192880E-01  0.10204217723E+01  0.10201509479E+01 0.  0.
     999903    2    3    3    0    0  0.92851163332E-01  0.40516781701E-01  0.76616571525E-01  0.12854167885E+00  0.19746291730E-01 0.  0.
         14    1    1    2    0    0  0.17686678094E-02  0.13287128763E-01  0.19312192880E-01  0.23508227717E-01  0.00000000000E+00 0.  1.
     999901    1    3    3    0    0 -0.94619831141E-01 -0.53803910464E-01 -0.95928764405E-01  0.89188009344E+00  0.88000000000E+00 0. -1.
        -11    1    4    4    0    0  0.74661397614E-01  0.39893630175E-01  0.58825355606E-01  0.10308496304E+00  0.51100000000E-03 0. -1.
         11    1    4    4    0    0  0.18189765718E-01  0.62315152567E-03  0.17791215919E-01  0.25456715805E-01  0.51100000000E-03 0.  1.
</event>
<event>
 8    1  0.1042301E+005  0.1043930E+01  0.7957747E-01            NaN
         13   -1    0    0    0    0  0.00000000000E+00  0.00000000000E+00  0.74505805969E-08  0.10566000000E+00  0.10566000000E+00 0.  1.
     999900   -1    0    0    0    0 -0.00000000000E+00 -0.00000000000E+00 -0.74505805969E-08  0.93827000000E+00  0.93827000000E+00 0. -1.
     999902    2    1    2    0    0  0.13105191060E-01 -0.15467862696E-01 -0.14222655595E-01  0.10191654136E+01  0.10188644932E+01 0.  0.
     999903    2    3    3    0    0 -0.49153336496E-01  0.29717832455E-01  0.11141908346E+00  0.12691896897E+00  0.19874920676E-01 0.  0.
         14    1    1    2    0    0 -0.13105191060E-01  0.15467862696E-01  0.14222655595E-01  0.24764586435E-01  0.00000000000E+00 0.  1.
     999901    1    3    3    0    0  0.62258527556E-01 -0.45185695151E-01 -0.12564173905E+00  0.89224644459E+00  0.88000000000E+00 0. -1.
        -11    1    4    4    0    0 -0.26791216646E-01  0.13382051889E-01  0.77757547914E-01  0.83326742291E-01  0.51100000000E-03 0. -1.
         11    1    4    4    0    0 -0.22362119850E-01  0.16335780566E-01  0.33661535542E-01  0.43592226680E-01  0.51100000000E-03 0.  1.
</event>
<event>
 8    1  0.1042301E+005  0.1043930E+01  0.7957747E-01            NaN
         13   -1    0    0    0    0  0.00000000000E+00  0.00000000000E+00  0.74505805969E-08  0.10566000000E+00  0.10566000000E+00 0. -1.
     999900   -1    0    0    0    0 -0.00000000000E+00 -0.00000000000E+00 -0.74505805969E-08  0.93827000000E+00  0.93827000000E+00 0. -1.
     999902    2    1    2    0    0 -0.23592071260E-02 -0.21799201044E-01 -0.98126282800E-02  0.10199079539E+01  0.10196250172E+01 0.  0.
     999903    2    3    3    0    0 -0.63731467812E-02  0.84434678519E-01  0.93179380839E-01  0.12754642246E+00  0.20392668578E-01 0.  0.
         14    1    1    2    0    0  0.23592071260E-02  0.21799201044E-01  0.98126282800E-02  0.24022046087E-01  0.00000000000E+00 0. -1.
     999901    1    3    3    0    0  0.40139396552E-02 -0.10623387956E+00 -0.10299200912E+00  0.89236153146E+00  0.88000000000E+00 0.  1.
        -11    1    4    4    0    0  0.52018571592E-02  0.35957624344E-01  0.48563426208E-01  0.60652102621E-01  0.51100000000E-03 0. -1.
         11    1    4    4    0    0 -0.11575003940E-01  0.48477054175E-01  0.44615954632E-01  0.66894319837E-01  0.51100000000E-03 0.  1.
</event>
<event>
 8    1  0.1042301E+005  0.1043930E+01  0.7957747E-01            NaN
         13   -1    0    0    0    0  0.00000000000E+00  0.00000000000E+00  0.74505805969E-08  0.10566000000E+00  0.10566000000E+00 0.  1.
     999900   -1    0    0    0    0 -0.00000000000E+00 -0.00000000000E+00 -0.74505805969E-08  0.93827000000E+00  0.93827000000E+00 0. -1.
     999902    2    1    2    0    0  0.23068555630E-01  0.81260948306E-02 -0.61897939499E-02  0.10187009448E+01  0.10183884867E+01 0.  0.
     999903    2    3    3    0    0 -0.11900133694E+00 -0.35939479308E-02  0.36617566838E-01  0.12620238240E+00  0.20296809284E-01 0.  0.
         14    1    1    2    0    0 -0.23068555630E-01 -0.81260948306E-02  0.61897939499E-02  0.25229055179E-01  0.00000000000E+00 0. -1.
     999901    1    3    3    0    0  0.14206989257E+00  0.11720042761E-01 -0.42807360788E-01  0.89249856242E+00  0.88000000000E+00 0. -1.
        -11    1    4    4    0    0 -0.58268554894E-01 -0.11523727895E-01  0.15175138452E-01  0.61307150823E-01  0.51100000000E-03 0. -1.
         11    1    4    4    0    0 -0.60732782050E-01  0.79297799645E-02  0.21442428386E-01  0.64895231581E-01  0.51100000000E-03 0.  1.
</event>
<event>
 8    1  0.1042301E+005  0.1043930E+01  0.7957747E-01            NaN
         13   -1    0    0    0    0  0.00000000000E+00  0.00000000000E+00  0.74505805969E-08  0.10566000000E+00  0.10566000000E+00 0. -1.
     999900   -1    0    0    0    0 -0.00000000000E+00 -0.00000000000E+00 -0.74505805969E-08  0.93827000000E+00  0.93827000000E+00 0. -1.
     999902    2    1    2    0    0 -0.20879533846E-01 -0.52521745132E-02 -0.96044882844E-02  0.10203548761E+01  0.10200824902E+01 0.  0.
     999903    2    3    3    0    0 -0.62840912234E-01  0.82899662441E-01  0.76743221778E-01  0.13075528604E+00  0.19649133718E-01 0.  0.
         14    1    1    2    0    0  0.20879533846E-01  0.52521745132E-02  0.96044882844E-02  0.23575123880E-01  0.00000000000E+00 0. -1.
     999901    1    3    3    0    0  0.41961378388E-01 -0.88151836954E-01 -0.86347710062E-01  0.88959959008E+00  0.88000000000E+00 0. -1.
        -11    1    4    4    0    0 -0.54713112793E-01  0.71143689077E-01  0.73701726977E-01  0.11613421067E+00  0.51100000000E-03 0.  1.
         11    1    4    4    0    0 -0.81277994404E-02  0.11755973364E-01  0.30414948011E-02  0.14621075374E-01  0.51100000000E-03 0. -1.
</event>
<event>
 8    1  0.1042301E+005  0.1043930E+01  0.7957747E-01            NaN
         13   -1    0    0    0    0  0.00000000000E+00  0.00000000000E+00  0.74505805969E-08  0.10566000000E+00  0.10566000000E+00 0.  1.
     999900   -1    0    0    0    0 -0.00000000000E+00 -0.00000000000E+00 -0.74505805969E-08  0.93827000000E+00  0.93827000000E+00 0.  1.
     999902    2    1    2    0    0  0.10185696151E-01 -0.10301942465E-01  0.18197714109E-01  0.10206698361E+01  0.10204047624E+01 0.  0.
     999903    2    3    3    0    0  0.98071348576E-01 -0.72547002777E-01  0.49553532699E-01  0.13355004557E+00  0.22338420839E-01 0.  0.
         14    1    1    2    0    0 -0.10185696151E-01  0.10301942465E-01 -0.18197714109E-01  0.23260163874E-01  0.00000000000E+00 0. -1.
     999901    1    3    3    0    0 -0.87885652425E-01  0.62245060312E-01 -0.31355818590E-01  0.88711979056E+00  0.88000000000E+00 0.  1.
        -11    1    4    4    0    0  0.47530701742E-01 -0.42456648304E-01  0.15536962161E-01  0.65600250819E-01  0.51100000000E-03 0.  1.
         11    1    4    4    0    0  0.50540646835E-01 -0.30090354473E-01  0.34016570537E-01  0.67949794752E-01  0.51100000000E-03 0. -1.
</event>
<event>
 8    1  0.1042301E+005  0.1043930E+01  0.7957747E-01            NaN
         13   -1    0    0    0    0  0.00000000000E+00  0.00000000000E+00  0.74505805969E-08  0.10566000000E+00  0.10566000000E+00 0. -1.
     999900   -1    0    0    0    0 -0.00000000000E+00 -0.00000000000E+00 -0.74505805969E-08  0.93827000000E+00  0.93827000000E+00 0. -1.
     999902    2    1    2    0    0  0.10283322862E-01  0.11523289260E-01 -0.19782933856E-01  0.10188322432E+01  0.10185230691E+01 0.  0.
     999903    2    3    3    0    0  0.11864415019E+00  0.40541126317E-01  0.26455126910E-01  0.13050681745E+00  0.24741430124E-01 0.  0.
         14    1    1    2    0    0 -0.10283322862E-01 -0.11523289260E-01  0.19782933856E-01  0.25097756800E-01  0.00000000000E+00 0. -1.
     999901    1    3    3    0    0 -0.10836082733E+00 -0.29017837057E-01 -0.46238060766E-01  0.88832542575E+00  0.88000000000E+00 0. -1.
        -11    1    4    4    0    0  0.60686335181E-01  0.86520855115E-02  0.79613961694E-02  0.61816945988E-01  0.51100000000E-03 0. -1.
         11    1    4    4    0    0  0.57957815008E-01  0.31889040805E-01  0.18493730741E-01  0.68689871464E-01  0.51100000000E-03 0.  1.
</event>
<event>
 8    1  0.1042301E+005  0.1043930E+01  0.7957747E-01            NaN
         13   -1    0    0    0    0  0.00000000000E+00  0.00000000000E+00  0.74505805969E-08  0.10566000000E+00  0.10566000000E+00 0.  1.
     999900   -1    0    0    0    0 -0.00000000000E+00 -0.00000000000E+00 -0.74505805969E-08  0.93827000000E+00  0.93827000000E+00 0. -1.
     999902    2    1    2    0    0 -0.48155893861E-02 -0.20200237085E-01 -0.14154797139E-01  0.10187983912E+01  0.10184883721E+01 0.  0.
     999903    2    3    3    0    0  0.23382243091E-01 -0.12678853060E+00 -0.23772747566E-01  0.13186621394E+00  0.14194860599E-01 0.  0.
         14    1    1    2    0    0  0.48155893861E-02  0.20200237085E-01  0.14154797139E-01  0.25131608811E-01  0.00000000000E+00 0.  1.
     999901    1    3    3    0    0 -0.28197832477E-01  0.10658829352E+00  0.96179504273E-02  0.88693217725E+00  0.88000000000E+00 0. -1.
        -11    1    4    4    0    0  0.12824371859E-01 -0.38125104503E-01 -0.41212820030E-02  0.40438029048E-01  0.51100000000E-03 0.  1.
         11    1    4    4    0    0  0.10557871232E-01 -0.88663426099E-01 -0.19651465563E-01  0.91428184891E-01  0.51100000000E-03 0. -1.
</event>
<event>
 7    1  0.1042301E+005  0.1043930E+01  0.7957747E-01            NaN
         13   -1    0    0    0    0  0.00000000000E+00  0.00000000000E+00  0.74505805969E-08  0.10566000000E+00  0.10566000000E+00 0.  1.
     999900   -1    0    0    0    0 -0.00000000000E+00 -0.00000000000E+00 -0.74505805969E-08  0.93827000000E+00  0.93827000000E+00 0. -1.
     999903    2    1    2    0    0  0.85335751405E-01  0.27126663329E-02  0.16325710495E-01  0.89150785467E-01  0.19793551975E-01 0.  0.
         14    1    1    2    0    0  0.38339697233E-01 -0.38014696485E-01 -0.36551452375E-01  0.65200139597E-01  0.00000000000E+00 0. -1.
     999901    1    1    2    0    0 -0.12367544864E+00  0.35302030152E-01  0.20225741880E-01  0.88957907494E+00  0.88000000000E+00 0.  1.
        -11    1    3    3    0    0  0.16113379734E-01  0.40698154096E-02 -0.37831374598E-02  0.17052203786E-01  0.51100000000E-03 0. -1.
         11    1    3    3    0    0  0.69222371671E-01 -0.13571490767E-02  0.20108847955E-01  0.72098581681E-01  0.51100000000E-03 0.  1.
</event>
<event>
 8    1  0.1042301E+005  0.1043930E+01  0.7957747E-01            NaN
         13   -1    0    0    0    0  0.00000000000E+00  0.00000000000E+00  0.74505805969E-08  0.10566000000E+00  0.10566000000E+00 0.  1.
     999900   -1    0    0    0    0 -0.00000000000E+00 -0.00000000000E+00 -0.74505805969E-08  0.93827000000E+00  0.93827000000E+00 0. -1.
     999902    2    1    2    0    0 -0.99477393407E-02  0.31843897845E-02 -0.20693216290E-01  0.10207501153E+01  0.10204868891E+01 0.  0.
     999903    2    3    3    0    0 -0.17954784128E-01 -0.80845305121E-01  0.96576303610E-01  0.12896693382E+00  0.21145920822E-01 0.  0.
         14    1    1    2    0    0  0.99477393407E-02 -0.31843897845E-02  0.20693216290E-01  0.23179884743E-01  0.00000000000E+00 0.  1.
     999901    1    3    3    0    0  0.80070447868E-02  0.84029694906E-01 -0.11726951990E+00  0.89178318143E+00  0.88000000000E+00 0. -1.
        -11    1    4    4    0    0 -0.13470466696E-01 -0.18458442621E-01  0.28116345608E-01  0.36234756634E-01  0.51100000000E-03 0. -1.
         11    1    4    4    0    0 -0.44843174316E-02 -0.62386862500E-01  0.68459958002E-01  0.92732177188E-01  0.51100000000E-03 0.  1.
</event>
<event>
 8    1  0.1042301E+005  0.1043930E+01  0.7957747E-01            NaN
         13   -1    0    0    0    0  0.00000000000E+00  0.00000000000E+00  0.74505805969E-08  0.10566000000E+00  0.10566000000E+00 0. -1.
     999900   -1    0    0    0    0 -0.00000000000E+00 -0.00000000000E+00 -0.74505805969E-08  0.93827000000E+00  0.93827000000E+00 0. -1.
     999902    2    1    2    0    0 -0.10918109360E-01 -0.12667684234E-01 -0.17173554010E-01  0.10199590531E+01  0.10196773332E+01 0.  0.
     999903    2    3    3    0    0  0.36977470707E-01  0.29793901794E-01  0.11670258757E+00  0.12753550227E+00  0.19768673918E-01 0.  0.
         14    1    1    2    0    0  0.10918109360E-01  0.12667684234E-01  0.17173554010E-01  0.23970946857E-01  0.00000000000E+00 0. -1.
     999901    1    3    3    0    0 -0.47895580067E-01 -0.42461586028E-01 -0.13387614158E+00  0.89242355088E+00  0.88000000000E+00 0. -1.
        -11    1    4    4    0    0  0.23541070871E-01  0.26303329606E-01  0.64648223840E-01  0.73659358759E-01  0.51100000000E-03 0. -1.
         11    1    4    4    0    0  0.13436399836E-01  0.34905721879E-02  0.52054363730E-01  0.53876143506E-01  0.51100000000E-03 0.  1.
</event>
<event>
 8    1  0.1042301E+005  0.1043930E+01  0.7957747E-01            NaN
         13   -1    0    0    0    0  0.00000000000E+00  0.00000000000E+00  0.74505805969E-08  0.10566000000E+00  0.10566000000E+00 0.  1.
     999900   -1    0    0    0    0 -0.00000000000E+00 -0.00000000000E+00 -0.74505805969E-08  0.93827000000E+00  0.93827000000E+00 0. -1.
     999902    2    1    2    0    0  0.14558021807E-01 -0.15473400082E-01  0.79267866224E-02  0.10212541085E+01  0.10210023301E+01 0.  0.
     999903    2    3    3    0    0 -0.68606734986E-01 -0.45363578351E-02  0.11031694559E+00  0.13135538375E+00  0.18893007391E-01 0.  0.
         14    1    1    2    0    0 -0.14558021807E-01  0.15473400082E-01 -0.79267866224E-02  0.22675891498E-01  0.00000000000E+00 0. -1.
     999901    1    3    3    0    0  0.83164756793E-01 -0.10937042247E-01 -0.10239015896E+00  0.88989872475E+00  0.88000000000E+00 0. -1.
        -11    1    4    4    0    0 -0.55603557253E-01 -0.40972449027E-03  0.74052893289E-01  0.92606779335E-01  0.51100000000E-03 0.  1.
         11    1    4    4    0    0 -0.13003177733E-01 -0.41266333448E-02  0.36264052299E-01  0.38748604414E-01  0.51100000000E-03 0. -1.
</event>
<event>
 8    1  0.1042301E+005  0.1043930E+01  0.7957747E-01            NaN
         13   -1    0    0    0    0  0.00000000000E+00  0.00000000000E+00  0.74505805969E-08  0.10566000000E+00  0.10566000000E+00 0. -1.
     999900   -1    0    0    0    0 -0.00000000000E+00 -0.00000000000E+00 -0.74505805969E-08  0.93827000000E+00  0.93827000000E+00 0. -1.
     999902    2    1    2    0    0  0.22874074232E-01 -0.94300197025E-02  0.14284729213E-02  0.10191471616E+01  0.10188457920E+01 0.  0.
     999903    2    3    3    0    0 -0.96891273622E-01  0.34609226171E-01  0.71959237847E-01  0.12715064675E+00  0.20085756601E-01 0.  0.
         14    1    1    2    0    0 -0.22874074232E-01  0.94300197025E-02 -0.14284729213E-02  0.24782838385E-01  0.00000000000E+00 0. -1.
     999901    1    3    3    0    0  0.11976534785E+00 -0.44039245873E-01 -0.70530764925E-01  0.89199651486E+00  0.88000000000E+00 0. -1.
        -11    1    4    4    0    0 -0.85697935189E-02  0.59622639371E-02  0.14786996864E-01  0.18108184599E-01  0.51100000000E-03 0.  1.
         11    1    4    4    0    0 -0.88321480103E-01  0.28646962234E-01  0.57172240982E-01  0.10904246215E+00  0.51100000000E-03 0. -1.
</event>
<event>
 8    1  0.1042301E+005  0.1043930E+01  0.7957747E-01            NaN
         13   -1    0    0    0    0  0.00000000000E+00  0.00000000000E+00  0.74505805969E-08  0.10566000000E+00  0.10566000000E+00 0.  1.
     999900   -1    0    0    0    0 -0.00000000000E+00 -0.00000000000E+00 -0.74505805969E-08  0.93827000000E+00  0.93827000000E+00 0.  1.
     999902    2    1    2    0    0 -0.77557748045E-02 -0.14931449483E-01  0.17203532410E-01  0.10198662980E+01  0.10195823675E+01 0.  0.
     999903    2    3    3    0    0 -0.10664236617E+00 -0.22557374072E-01  0.72933168949E-01  0.13254307332E+00  0.19156976889E-01 0.  0.
         14    1    1    2    0    0  0.77557748045E-02  0.14931449483E-01 -0.17203532410E-01  0.24063701999E-01  0.00000000000E+00 0. -1.
     999901    1    3    3    0    0  0.98886591366E-01  0.76259245890E-02 -0.55729636539E-01  0.88732322469E+00  0.88000000000E+00 0.  1.
        -11    1    4    4    0    0 -0.44539859873E-01 -0.12718629292E-01  0.20437971893E-01  0.50631358512E-01  0.51100000000E-03 0. -1.
         11    1    4    4    0    0 -0.62102506297E-01 -0.98387447797E-02  0.52495197056E-01  0.81911714804E-01  0.51100000000E-03 0.  1.
</event>
<event>
 8    1  0.1042301E+005  0.1043930E+01  0.7957747E-01            NaN
         13   -1    0    0    0    0  0.00000000000E+00  0.00000000000E+00  0.74505805969E-08  0.10566000000E+00  0.10566000000E+00 0. -1.
     999900   -1    0    0    0    0 -0.00000000000E+00 -0.00000000000E+00 -0.74505805969E-08  0.93827000000E+00  0.93827000000E+00 0. -1.
     999902    2    1    2    0    0  0.82890399808E-02  0.75211573283E-02 -0.20940033883E-01  0.10201863480E+01  0.10199100076E+01 0.  0.
     999903    2    3    3    0    0  0.12257236909E+00  0.39259324815E-01 -0.22728969889E-01  0.13222734507E+00  0.20054537208E-01 0.  0.
         14    1    1    2    0    0 -0.82890399808E-02 -0.75211573283E-02  0.20940033883E-01  0.23743652002E-01  0.00000000000E+00 0. -1.
     999901    1    3    3    0    0 -0.11428332911E+00 -0.31738167487E-01  0.17889360054E-02  0.88795900293E+00  0.88000000000E+00 0.  1.
        -11    1    4    4    0    0  0.58919206608E-01  0.20298224617E-01 -0.94455310345E-03  0.62326913380E-01  0.51100000000E-03 0. -1.
         11    1    4    4    0    0  0.63653162483E-01  0.18961100198E-01 -0.21784416785E-01  0.69900431691E-01  0.51100000000E-03 0.  1.
</event>
<event>
 8    1  0.1042301E+005  0.1043930E+01  0.7957747E-01            NaN
         13   -1    0    0    0    0  0.00000000000E+00  0.00000000000E+00  0.74505805969E-08  0.10566000000E+00  0.10566000000E+00 0.  1.
     999900   -1    0    0    0    0 -0.00000000000E+00 -0.00000000000E+00 -0.74505805969E-08  0.93827000000E+00  0.93827000000E+00 0. -1.
     999902    2    1    2    0    0 -0.16942875959E-01  0.14780549706E-01  0.74540477842E-02  0.10202426928E+01  0.10199676777E+01 0.  0.
     999903    2    3    3    0    0  0.14302795045E-01 -0.11385140124E+00 -0.53885661421E-01  0.12823090435E+00  0.19307739724E-01 0.  0.
         14    1    1    2    0    0  0.16942875959E-01 -0.14780549706E-01 -0.74540477842E-02  0.23687307229E-01  0.00000000000E+00 0. -1.
     999901    1    3    3    0    0 -0.31245671003E-01  0.12863195094E+00  0.61339709205E-01  0.89201178842E+00  0.88000000000E+00 0. -1.
        -11    1    4    4    0    0  0.14481703588E-01 -0.64045443241E-01 -0.38410284853E-01  0.76073317544E-01  0.51100000000E-03 0.  1.
         11    1    4    4    0    0 -0.17890854330E-03 -0.49805957997E-01 -0.15475376568E-01  0.52157586804E-01  0.51100000000E-03 0. -1.
</event>
<event>
 8    1  0.1042301E+005  0.1043930E+01  0.7957747E-01            NaN
         13   -1    0    0    0    0  0.00000000000E+00  0.00000000000E+00  0.74505805969E-08  0.10566000000E+00  0.10566000000E+00 0. -1.
     999900   -1    0    0    0    0 -0.00000000000E+00 -0.00000000000E+00 -0.74505805969E-08  0.93827000000E+00  0.93827000000E+00 0.  1.
     999902    2    1    2    0    0  0.82201821911E-02  0.20866440270E-01  0.76342899090E-02  0.10202390290E+01  0.10199639279E+01 0.  0.
     999903    2    3    3    0    0  0.11314900107E+00  0.20990760322E-02  0.64809344147E-01  0.13196471448E+00  0.20182472980E-01 0.  0.
         14    1    1    2    0    0 -0.82201821911E-02 -0.20866440270E-01 -0.76342899090E-02  0.23690971006E-01  0.00000000000E+00 0. -1.
     999901    1    3    3    0    0 -0.10492881888E+00  0.18767364238E-01 -0.57175054238E-01  0.88827431451E+00  0.88000000000E+00 0.  1.
        -11    1    4    4    0    0  0.37773876315E-01  0.57241458827E-02  0.31314434166E-01  0.49401280207E-01  0.51100000000E-03 0. -1.
         11    1    4    4    0    0  0.75375124759E-01 -0.36250698505E-02  0.33494909982E-01  0.82563434276E-01  0.51100000000E-03 0.  1.
</event>
<event>
 8    1  0.1042301E+005  0.1043930E+01  0.7957747E-01            NaN
         13   -1    0    0    0    0  0.00000000000E+00  0.00000000000E+00  0.74505805969E-08  0.10566000000E+00  0.10566000000E+00 0. -1.
     999900   -1    0    0    0    0 -0.00000000000E+00 -0.00000000000E+00 -0.74505805969E-08  0.93827000000E+00  0.93827000000E+00 0. -1.
     999902    2    1    2    0    0 -0.20570454419E-01  0.11392149294E-01 -0.64055553737E-02  0.10195587916E+01  0.10192674692E+01 0.  0.
     999903    2    3    3    0    0  0.37201102350E-01 -0.78618775802E-01  0.91416374125E-01  0.12770193686E+00  0.19646813864E-01 0.  0.
         14    1    1    2    0    0  0.20570454419E-01 -0.11392149294E-01  0.64055553737E-02  0.24371208426E-01  0.00000000000E+00 0. -1.
     999901    1    3    3    0    0 -0.57771556769E-01  0.90010925096E-01 -0.97821929499E-01  0.89185685471E+00  0.88000000000E+00 0. -1.
        -11    1    4    4    0    0  0.17524836876E-01 -0.55627640230E-01  0.53116778967E-01  0.78887309461E-01  0.51100000000E-03 0. -1.
         11    1    4    4    0    0  0.19676265474E-01 -0.22991135572E-01  0.38299595158E-01  0.48814627399E-01  0.51100000000E-03 0.  1.
</event>
<event>
 8    1  0.1042301E+005  0.1043930E+01  0.7957747E-01            NaN
         13   -1    0    0    0    0  0.00000000000E+00  0.00000000000E+00  0.74505805969E-08  0.10566000000E+00  0.10566000000E+00 0. -1.
     999900   -1    0    0    0    0 -0.00000000000E+00 -0.00000000000E+00 -0.74505805969E-08  0.93827000000E+00  0.93827000000E+00 0. -1.
     999902    2    1    2    0    0  0.24600044517E-02  0.88705851247E-02  0.21900673971E-01  0.10201733499E+01  0.10198967033E+01 0.  0.
     999903    2    3    3    0    0 -0.12181746983E+00 -0.16061265718E-01 -0.34547683761E-01  0.12930135862E+00  0.20684261546E-01 0.  0.
         14    1    1    2    0    0 -0.24600044517E-02 -0.88705851247E-02 -0.21900673971E-01  0.23756650074E-01  0.00000000000E+00 0.  1.
     999901    1    3    3    0    0  0.12427747428E+00  0.24931850842E-01  0.56448357732E-01  0.89087199130E+00  0.88000000000E+00 0. -1.
        -11    1    4    4    0    0 -0.88686654120E-01 -0.10748010798E-01 -0.15368564897E-01  0.90649303710E-01  0.51100000000E-03 0. -1.
         11    1    4    4    0    0 -0.33130815711E-01 -0.53132549198E-02 -0.19179118863E-01  0.38652054912E-01  0.51100000000E-03 0.  1.
</event>
<event>
 8    1  0.1042301E+005  0.1043930E+01  0.7957747E-01            NaN
         13   -1    0    0    0    0  0.00000000000E+00  0.00000000000E+00  0.74505805969E-08  0.10566000000E+00  0.10566000000E+00 0.  1.
     999900   -1    0    0    0    0 -0.00000000000E+00 -0.00000000000E+00 -0.74505805969E-08  0.93827000000E+00  0.93827000000E+00 0.  1.
     999902    2    1    2    0    0 -0.13037081515E-01  0.98568922659E-02 -0.16103169705E-01  0.10209858091E+01  0.10207279689E+01 0.  0.
     999903    2    3    3    0    0 -0.88345661796E-01  0.56000829570E-01 -0.81331024630E-01  0.13416264849E+00  0.21067316189E-01 0.  0.
         14    1    1    2    0    0  0.13037081515E-01 -0.98568922659E-02  0.16103169705E-01  0.22944190858E-01  0.00000000000E+00 0.  1.
     999901    1    3    3    0    0  0.75308580282E-01 -0.46143937304E-01  0.65227854925E-01  0.88682316065E+00  0.88000000000E+00 0. -1.
        -11    1    4    4    0    0 -0.35703624229E-01  0.29850897254E-01 -0.25388474256E-01  0.53015663686E-01  0.51100000000E-03 0. -1.
         11    1    4    4    0    0 -0.52642037567E-01  0.26149932316E-01 -0.55942550374E-01  0.81146984803E-01  0.51100000000E-03 0.  1.
</event>
<event>
 8    1  0.1042301E+005  0.1043930E+01  0.7957747E-01            NaN
         13   -1    0    0    0    0  0.00000000000E+00  0.00000000000E+00  0.74505805969E-08  0.10566000000E+00  0.10566000000E+00 0.  1.
     999900   -1    0    0    0    0 -0.00000000000E+00 -0.00000000000E+00 -0.74505805969E-08  0.93827000000E+00  0.93827000000E+00 0. -1.
     999902    2    1    2    0    0 -0.10112992099E-01 -0.45305172850E-02 -0.27262445584E-01  0.10145014571E+01  0.10140745374E+01 0.  0.
     999903    2    3    3    0    0 -0.97754949666E-01  0.76168666481E-01 -0.13774747233E-01  0.12637118009E+00  0.20548371205E-01 0.  0.
         14    1    1    2    0    0  0.10112992099E-01  0.45305172850E-02  0.27262445584E-01  0.29428542867E-01  0.00000000000E+00 0.  1.
     999901    1    3    3    0    0  0.87641957567E-01 -0.80699183766E-01 -0.13487698351E-01  0.88813027704E+00  0.88000000000E+00 0.  1.
        -11    1    4    4    0    0 -0.70114341844E-01  0.64857550504E-01 -0.13774256445E-01  0.96501368132E-01  0.51100000000E-03 0. -1.
         11    1    4    4    0    0 -0.27640607822E-01  0.11311115977E-01 -0.49078741902E-06  0.29869811962E-01  0.51100000000E-03 0.  1.
</event>
<event>
 8    1  0.1042301E+005  0.1043930E+01  0.7957747E-01            NaN
         13   -1    0    0    0    0  0.00000000000E+00  0.00000000000E+00  0.74505805969E-08  0.10566000000E+00  0.10566000000E+00 0.  1.
     999900   -1    0    0    0    0 -0.00000000000E+00 -0.00000000000E+00 -0.74505805969E-08  0.93827000000E+00  0.93827000000E+00 0.  1.
     999902    2    1    2    0    0  0.20169596628E-02 -0.26688107571E-02  0.23638918230E-01  0.10200555548E+01  0.10197761253E+01 0.  0.
     999903    2    3    3    0    0 -0.18657968258E-01  0.11671836522E+00  0.53186249089E-01  0.13126210571E+00  0.20728404270E-01 0.  0.
         14    1    1    2    0    0 -0.20169596628E-02  0.26688107571E-02 -0.23638918230E-01  0.23874445171E-01  0.00000000000E+00 0. -1.
     999901    1    3    3    0    0  0.20674927920E-01 -0.11938717598E+00 -0.29547330858E-01  0.88879344912E+00  0.88000000000E+00 0.  1.
        -11    1    4    4    0    0 -0.19709223297E-01  0.94530892328E-01  0.35571253730E-01  0.10290830044E+00  0.51100000000E-03 0. -1.
         11    1    4    4    0    0  0.10512550391E-02  0.22187472896E-01  0.17614995358E-01  0.28353805267E-01  0.51100000000E-03 0.  1.
</event>
<event>
 8    1  0.1042301E+005  0.1043930E+01  0.7957747E-01            NaN
         13   -1    0    0    0    0  0.00000000000E+00  0.00000000000E+00  0.74505805969E-08  0.10566000000E+00  0.10566000000E+00 0.  1.
     999900   -1    0    0    0    0 -0.00000000000E+00 -0.00000000000E+00 -0.74505805969E-08  0.93827000000E+00  0.93827000000E+00 0. -1.
     999902    2    1    2    0    0  0.12528151707E-01  0.15832509694E-01  0.13445525850E-01  0.10196729368E+01  0.10193843696E+01 0.  0.
     999903    2    3    3    0    0 -0.11150469240E+00  0.59746607645E-01  0.21400552937E-01  0.12985504710E+00  0.20034870589E-01 0.  0.
         14    1    1    2    0    0 -0.12528151707E-01 -0.15832509694E-01 -0.13445525850E-01  0.24257063174E-01  0.00000000000E+00 0.  1.
     999901    1    3    3    0    0  0.12403284411E+00 -0.43914097951E-01 -0.79550270867E-02  0.88981788972E+00  0.88000000000E+00 0.  1.
        -11    1    4    4    0    0 -0.81926163570E-01  0.36423973778E-01  0.21425558346E-01  0.92184151645E-01  0.51100000000E-03 0. -1.
         11    1    4    4    0    0 -0.29578528831E-01  0.23322633868E-01 -0.25005408862E-04  0.37670895458E-01  0.51100000000E-03 0.  1.
</event>
<event>
 8    1  0.1042301E+005  0.1043930E+01  0.7957747E-01            NaN
         13   -1    0    0    0    0  0.00000000000E+00  0.00000000000E+00  0.74505805969E-08  0.10566000000E+00  0.10566000000E+00 0. -1.
     999900   -1    0    0    0    0 -0.00000000000E+00 -0.00000000000E+00 -0.74505805969E-08  0.93827000000E+00  0.93827000000E+00 0. -1.
     999902    2    1    2    0    0  0.34779746582E-02  0.14699039364E-01  0.13949811864E-01  0.10233689855E+01  0.10231624139E+01 0.  0.
     999903    2    3    3    0    0 -0.10367571718E+00 -0.21376041830E-01  0.79321612744E-01  0.13373040861E+00  0.19654883385E-01 0.  0.
         14    1    1    2    0    0 -0.34779746582E-02 -0.14699039364E-01 -0.13949811864E-01  0.20561014493E-01  0.00000000000E+00 0.  1.
     999901    1    3    3    0    0  0.10715369184E+00  0.36075081194E-01 -0.65371800881E-01  0.88963857690E+00  0.88000000000E+00 0. -1.
        -11    1    4    4    0    0 -0.85468814844E-01 -0.14691625001E-01  0.55311430149E-01  0.10286096238E+00  0.51100000000E-03 0.  1.
         11    1    4    4    0    0 -0.18206902336E-01 -0.66844168290E-02  0.24010182595E-01  0.30869446226E-01  0.51100000000E-03 0. -1.
</event>
<event>
 8    1  0.1042301E+005  0.1043930E+01  0.7957747E-01            NaN
         13   -1    0    0    0    0  0.00000000000E+00  0.00000000000E+00  0.74505805969E-08  0.10566000000E+00  0.10566000000E+00 0. -1.
     999900   -1    0    0    0    0 -0.00000000000E+00 -0.00000000000E+00 -0.74505805969E-08  0.93827000000E+00  0.93827000000E+00 0.  1.
     999902    2    1    2    0    0  0.21206585063E-01  0.12365255957E-02  0.11010369195E-01  0.10200035194E+01  0.10197228560E+01 0.  0.
     999903    2    3    3    0    0  0.92272014623E-01 -0.56310636944E-01  0.71613268272E-01  0.13319199341E+00  0.30440670172E-01 0.  0.
         14    1    1    2    0    0 -0.21206585063E-01 -0.12365255957E-02 -0.11010369195E-01  0.23926480632E-01  0.00000000000E+00 0.  1.
     999901    1    3    3    0    0 -0.71065429560E-01  0.57547162540E-01 -0.60602899077E-01  0.88681152596E+00  0.88000000000E+00 0.  1.
        -11    1    4    4    0    0  0.52466695980E-01 -0.21714737566E-01  0.22359103236E-01  0.61028473954E-01  0.51100000000E-03 0. -1.
         11    1    4    4    0    0  0.39805318644E-01 -0.34595899378E-01  0.49254165036E-01  0.72163519457E-01  0.51100000000E-03 0.  1.
</event>
<event>
 8    1  0.1042301E+005  0.1043930E+01  0.7957747E-01            NaN
         13   -1    0    0    0    0  0.00000000000E+00  0.00000000000E+00  0.74505805969E-08  0.10566000000E+00  0.10566000000E+00 0. -1.
     999900   -1    0    0    0    0 -0.00000000000E+00 -0.00000000000E+00 -0.74505805969E-08  0.93827000000E+00  0.93827000000E+00 0.  1.
     999902    2    1    2    0    0 -0.20025170745E-01 -0.10268797681E-01 -0.91213882006E-02  0.10196471791E+01  0.10193579913E+01 0.  0.
     999903    2    3    3    0    0 -0.97579626791E-01  0.54508911057E-01 -0.67201440957E-01  0.13196247282E+00  0.20125993546E-01 0.  0.
         14    1    1    2    0    0  0.20025170745E-01  0.10268797681E-01  0.91213882006E-02  0.24282820921E-01  0.00000000000E+00 0. -1.
     999901    1    3    3    0    0  0.77554456045E-01 -0.64777708738E-01  0.58080052757E-01  0.88768470626E+00  0.88000000000E+00 0. -1.
        -11    1    4    4    0    0 -0.71696847124E-01  0.31922515321E-01 -0.53453507346E-01  0.94958008828E-01  0.51100000000E-03 0. -1.
         11    1    4    4    0    0 -0.25882779667E-01  0.22586395735E-01 -0.13747933611E-01  0.37004463990E-01  0.51100000000E-03 0.  1.
</event>
<event>
 8    1  0.1042301E+005  0.1043930E+01  0.7957747E-01            NaN
         13   -1    0    0    0    0  0.00000000000E+00  0.00000000000E+00  0.74505805969E-08  0.10566000000E+00  0.10566000000E+00 0. -1.
     999900   -1    0    0    0    0 -0.00000000000E+00 -0.00000000000E+00 -0.74505805969E-08  0.93827000000E+00  0.93827000000E+00 0.  1.
     999902    2    1    2    0    0 -0.80412050181E-02  0.19000732662E-01 -0.11075811011E-01  0.10205128608E+01  0.10202441554E+01 0.  0.
     999903    2    3    3    0    0  0.11887529229E-01 -0.16127390619E-01  0.12568283100E+00  0.12903427682E+00  0.21266511408E-01 0.  0.
         14    1    1    2    0    0  0.80412050181E-02 -0.19000732662E-01  0.11075811011E-01  0.23417139223E-01  0.00000000000E+00 0. -1.
     999901    1    3    3    0    0 -0.19928734247E-01  0.35128123282E-01 -0.13675864201E+00  0.89147858396E+00  0.88000000000E+00 0.  1.
        -11    1    4    4    0    0  0.14696858332E-01 -0.15231787882E-01  0.12357074280E+00  0.12537142659E+00  0.51100000000E-03 0. -1.
         11    1    4    4    0    0 -0.28093291023E-02 -0.89560273721E-03  0.21120881918E-02  0.36628502287E-02  0.51100000000E-03 0.  1.
</event>
<event>
 7    1  0.1042301E+005  0.1043930E+01  0.7957747E-01            NaN
         13   -1    0    0    0    0  0.00000000000E+00  0.00000000000E+00  0.74505805969E-08  0.10566000000E+00  0.10566000000E+00 0.  1.
     999900   -1    0    0    0    0 -0.00000000000E+00 -0.00000000000E+00 -0.74505805969E-08  0.93827000000E+00  0.93827000000E+00 0. -1.
     999903    2    1    2    0    0  0.12494533501E-01 -0.83682847756E-01  0.19058982995E-01  0.89087869142E-01  0.20358566245E-01 0.  0.
         14    1    1    2    0    0  0.39901212725E-01  0.60650377416E-01  0.36509649213E-02  0.72690471195E-01  0.00000000000E+00 0.  1.
     999901    1    1    2    0    0 -0.52395746226E-01  0.23032470340E-01 -0.22709947916E-01  0.88215165966E+00  0.88000000000E+00 0. -1.
        -11    1    3    3    0    0 -0.36870616433E-02 -0.43391020385E-01  0.80015659663E-02  0.44279354699E-01  0.51100000000E-03 0. -1.
         11    1    3    3    0    0  0.16181595144E-01 -0.40291827371E-01  0.11057417028E-01  0.44808514443E-01  0.51100000000E-03 0.  1.
</event>
<event>
 8    1  0.1042301E+005  0.1043930E+01  0.7957747E-01            NaN
         13   -1    0    0    0    0  0.00000000000E+00  0.00000000000E+00  0.74505805969E-08  0.10566000000E+00  0.10566000000E+00 0.  1.
     999900   -1    0    0    0    0 -0.00000000000E+00 -0.00000000000E+00 -0.74505805969E-08  0.93827000000E+00  0.93827000000E+00 0. -1.
     999902    2    1    2    0    0  0.23474981760E-01  0.11227923423E-02 -0.46767928544E-03  0.10204235295E+01  0.10201527461E+01 0.  0.
     999903    2    3    3    0    0  0.82808223931E-01 -0.25276885630E-01  0.97762125566E-01  0.13257980948E+00  0.22887765051E-01 0.  0.
         14    1    1    2    0    0 -0.23474981760E-01 -0.11227923423E-02  0.46767928544E-03  0.23506470496E-01  0.00000000000E+00 0. -1.
     999901    1    3    3    0    0 -0.59333242171E-01  0.26399677972E-01 -0.98229804852E-01  0.88784372002E+00  0.88000000000E+00 0.  1.
        -11    1    4    4    0    0  0.19547430078E-01 -0.95146941153E-02  0.39751513778E-01  0.45310875023E-01  0.51100000000E-03 0. -1.
         11    1    4    4    0    0  0.63260793853E-01 -0.15762191515E-01  0.58010611788E-01  0.87268934457E-01  0.51100000000E-03 0.  1.
</event>
<event>
 8    1  0.1042301E+005  0.1043930E+01  0.7957747E-01            NaN
         13   -1    0    0    0    0  0.00000000000E+00  0.00000000000E+00  0.74505805969E-08  0.10566000000E+00  0.10566000000E+00 0.  1.
     999900   -1    0    0    0    0 -0.00000000000E+00 -0.00000000000E+00 -0.74505805969E-08  0.93827000000E+00  0.93827000000E+00 0. -1.
     999902    2    1    2    0    0 -0.21475577852E-01  0.38680463641E-02 -0.66849985560E-02  0.10211078302E+01  0.10208527561E+01 0.  0.
     999903    2    3    3    0    0 -0.34696120521E-01 -0.12388534899E+00 -0.18620867563E-01  0.13170455965E+00  0.21164920258E-01 0.  0.
         14    1    1    2    0    0  0.21475577852E-01 -0.38680463641E-02  0.66849985560E-02  0.22822169757E-01  0.00000000000E+00 0.  1.
     999901    1    3    3    0    0  0.13220542669E-01  0.12775339536E+00  0.11935869007E-01  0.88940327059E+00  0.88000000000E+00 0.  1.
        -11    1    4    4    0    0 -0.25385007709E-01 -0.66957907238E-01 -0.18726717296E-01  0.74018315434E-01  0.51100000000E-03 0.  1.
         11    1    4    4    0    0 -0.93111128122E-02 -0.56927441754E-01  0.10584973276E-03  0.57686244215E-01  0.51100000000E-03 0. -1.
</event>
<event>
 8    1  0.1042301E+005  0.1043930E+01  0.7957747E-01            NaN
         13   -1    0    0    0    0  0.00000000000E+00  0.00000000000E+00  0.74505805969E-08  0.10566000000E+00  0.10566000000E+00 0. -1.
     999900   -1    0    0    0    0 -0.00000000000E+00 -0.00000000000E+00 -0.74505805969E-08  0.93827000000E+00  0.93827000000E+00 0.  1.
     999902    2    1    2    0    0 -0.23085790224E-01  0.21649742514E-02  0.44162776177E-02  0.10203260950E+01  0.10200530358E+01 0.  0.
     999903    2    3    3    0    0 -0.24244390328E-03  0.12772483374E+00 -0.19609676958E-01  0.13079568894E+00  0.20230691625E-01 0.  0.
         14    1    1    2    0    0  0.23085790224E-01 -0.21649742514E-02 -0.44162776177E-02  0.23603905011E-01  0.00000000000E+00 0. -1.
     999901    1    3    3    0    0 -0.22843346320E-01 -0.12555985949E+00  0.24025954576E-01  0.88953040605E+00  0.88000000000E+00 0.  1.
        -11    1    4    4    0    0 -0.80688240053E-02  0.57496478421E-01 -0.15065165929E-01  0.59984758874E-01  0.51100000000E-03 0. -1.
         11    1    4    4    0    0  0.78263801020E-02  0.70228355316E-01 -0.45445110288E-02  0.70810930070E-01  0.51100000000E-03 0.  1.
</event>
<event>
 8    1  0.1042301E+005  0.1043930E+01  0.7957747E-01            NaN
         13   -1    0    0    0    0  0.00000000000E+00  0.00000000000E+00  0.74505805969E-08  0.10566000000E+00  0.10566000000E+00 0.  1.
     999900   -1    0    0    0    0 -0.00000000000E+00 -0.00000000000E+00 -0.74505805969E-08  0.93827000000E+00  0.93827000000E+00 0. -1.
     999902    2    1    2    0    0  0.14737575204E-01 -0.23616997047E-01  0.70884528868E-02  0.10152036212E+01  0.10147971165E+01 0.  0.
     999903    2    3    3    0    0 -0.10450473585E+00  0.23520154837E-01  0.59036875503E-01  0.12439540482E+00  0.22680973802E-01 0.  0.
         14    1    1    2    0    0 -0.14737575204E-01  0.23616997047E-01 -0.70884528868E-02  0.28726378761E-01  0.00000000000E+00 0. -1.
     999901    1    3    3    0    0  0.11924231105E+00 -0.47137151884E-01 -0.51948422617E-01  0.89080821642E+00  0.88000000000E+00 0. -1.
        -11    1    4    4    0    0 -0.70669470786E-01  0.15232166421E-01  0.27328795654E-01  0.77287238196E-01  0.51100000000E-03 0.  1.
         11    1    4    4    0    0 -0.33835265060E-01  0.82879884161E-02  0.31708079850E-01  0.47108166621E-01  0.51100000000E-03 0. -1.
</event>
<event>
 8    1  0.1042301E+005  0.1043930E+01  0.7957747E-01            NaN
         13   -1    0    0    0    0  0.00000000000E+00  0.00000000000E+00  0.74505805969E-08  0.10566000000E+00  0.10566000000E+00 0. -1.
     999900   -1    0    0    0    0 -0.00000000000E+00 -0.00000000000E+00 -0.74505805969E-08  0.93827000000E+00  0.93827000000E+00 0. -1.
     999902    2    1    2    0    0  0.43372760811E-02  0.22123366840E-01 -0.68203171123E-03  0.10213751670E+01  0.10211260996E+01 0.  0.
     999903    2    3    3    0    0  0.77489423474E-01  0.79182118285E-01 -0.71998709706E-01  0.13362914119E+00  0.19962829724E-01 0.  0.
         14    1    1    2    0    0 -0.43372760811E-02 -0.22123366840E-01  0.68203171123E-03  0.22554832994E-01  0.00000000000E+00 0.  1.
     999901    1    3    3    0    0 -0.73152147393E-01 -0.57058751445E-01  0.71316677995E-01  0.88774602581E+00  0.88000000000E+00 0.  1.
        -11    1    4    4    0    0  0.30456834494E-01  0.23334415357E-01 -0.15830498819E-01  0.41508788483E-01  0.51100000000E-03 0.  1.
         11    1    4    4    0    0  0.47032588980E-01  0.55847702928E-01 -0.56168210887E-01  0.92120352711E-01  0.51100000000E-03 0. -1.
</event>
<event>
 8    1  0.1042301E+005  0.1043930E+01  0.7957747E-01            NaN
         13   -1    0    0    0    0  0.00000000000E+00  0.00000000000E+00  0.74505805969E-08  0.10566000000E+00  0.10566000000E+00 0.  1.
     999900   -1    0    0    0    0 -0.00000000000E+00 -0.00000000000E+00 -0.74505805969E-08  0.93827000000E+00  0.93827000000E+00 0.  1.
     999902    2    1    2    0    0  0.83840430975E-02 -0.17002025387E-02  0.21379615471E-01  0.10209023899E+01  0.10206426500E+01 0.  0.
     999903    2    3    3    0    0 -0.77241715269E-01  0.10185722604E+00  0.18409388397E-01  0.13069750692E+00  0.20043843398E-01 0.  0.
         14    1    1    2    0    0 -0.83840430975E-02  0.17002025387E-02 -0.21379615471E-01  0.23027610059E-01  0.00000000000E+00 0. -1.
     999901    1    3    3    0    0  0.85625758367E-01 -0.10355742858E+00  0.29702270745E-02  0.89020488302E+00  0.88000000000E+00 0.  1.
        -11    1    4    4    0    0 -0.24032791339E-01  0.30530063923E-01 -0.36095822869E-02  0.39024992864E-01  0.51100000000E-03 0. -1.
         11    1    4    4    0    0 -0.53208923930E-01  0.71327162121E-01  0.22018970684E-01  0.91672514054E-01  0.51100000000E-03 0.  1.
</event>
<event>
 8    1  0.1267938E+005  0.1043930E+01  0.7957747E-01            NaN
         13   -1    0    0    0    0  0.00000000000E+00  0.00000000000E+00  0.74505805969E-08  0.10566000000E+00  0.10566000000E+00 0.  1.
     999900   -1    0    0    0    0 -0.00000000000E+00 -0.00000000000E+00 -0.74505805969E-08  0.93827000000E+00  0.93827000000E+00 0. -1.
     999902    2    1    2    0    0 -0.26732973197E-02 -0.42321171212E-02 -0.23353744746E-01  0.10200458059E+01  0.10197661455E+01 0.  0.
     999903    2    3    3    0    0  0.93043864834E-01  0.88201107528E-01 -0.11809531528E-02  0.12976646276E+00  0.20033573169E-01 0.  0.
         14    1    1    2    0    0  0.26732973197E-02  0.42321171212E-02  0.23353744746E-01  0.23884194094E-01  0.00000000000E+00 0.  1.
     999901    1    3    3    0    0 -0.95717162153E-01 -0.92433224649E-01 -0.22172791593E-01  0.89027934315E+00  0.88000000000E+00 0.  1.
        -11    1    4    4    0    0  0.48835498767E-01  0.41898465017E-01  0.88899695603E-02  0.64959063959E-01  0.51100000000E-03 0. -1.
         11    1    4    4    0    0  0.44208366066E-01  0.46302642511E-01 -0.10070922713E-01  0.64807398799E-01  0.51100000000E-03 0.  1.
</event>
<event>
 8    1  0.1042301E+005  0.1043930E+01  0.7957747E-01            NaN
         13   -1    0    0    0    0  0.00000000000E+00  0.00000000000E+00  0.74505805969E-08  0.10566000000E+00  0.10566000000E+00 0. -1.
     999900   -1    0    0    0    0 -0.00000000000E+00 -0.00000000000E+00 -0.74505805969E-08  0.93827000000E+00  0.93827000000E+00 0. -1.
     999902    2    1    2    0    0  0.19648864548E-01 -0.90833874874E-02  0.26635564822E-02  0.10221199028E+01  0.10218871833E+01 0.  0.
     999903    2    3    3    0    0  0.27151622956E-01 -0.57815745870E-01 -0.11489048196E+00  0.13293483428E+00  0.19798389352E-01 0.  0.
         14    1    1    2    0    0 -0.19648864548E-01  0.90833874874E-02 -0.26635564822E-02  0.21810097189E-01  0.00000000000E+00 0.  1.
     999901    1    3    3    0    0 -0.75027584080E-02  0.48732358383E-01  0.11755403844E+00  0.88918506853E+00  0.88000000000E+00 0.  1.
        -11    1    4    4    0    0  0.23729307787E-01 -0.55152223915E-01 -0.11341082384E+00  0.12832429207E+00  0.51100000000E-03 0. -1.
         11    1    4    4    0    0  0.34223151692E-02 -0.26635219554E-02 -0.14796581217E-02  0.46105422112E-02  0.51100000000E-03 0.  1.
</event>
<event>
 8    1  0.1042301E+005  0.1043930E+01  0.7957747E-01            NaN
         13   -1    0    0    0    0  0.00000000000E+00  0.00000000000E+00  0.74505805969E-08  0.10566000000E+00  0.10566000000E+00 0. -1.
     999900   -1    0    0    0    0 -0.00000000000E+00 -0.00000000000E+00 -0.74505805969E-08  0.93827000000E+00  0.93827000000E+00 0. -1.
     999902    2    1    2    0    0 -0.19124662940E-01  0.94190606162E-02 -0.44607438951E-02  0.10221499708E+01  0.10219178994E+01 0.  0.
     999903    2    3    3    0    0 -0.12765876394E+00 -0.13665458064E-01 -0.35230095050E-01  0.13464825303E+00  0.20136724983E-01 0.  0.
         14    1    1    2    0    0  0.19124662940E-01 -0.94190606162E-02  0.44607438951E-02  0.21780029191E-01  0.00000000000E+00 0.  1.
     999901    1    3    3    0    0  0.10853410100E+00  0.23084518680E-01  0.30769351155E-01  0.88750171777E+00  0.88000000000E+00 0. -1.
        -11    1    4    4    0    0 -0.51301844350E-01 -0.15070317392E-01 -0.11737405539E-01  0.54745059227E-01  0.51100000000E-03 0. -1.
         11    1    4    4    0    0 -0.76356919590E-01  0.14048593281E-02 -0.23492689512E-01  0.79903193807E-01  0.51100000000E-03 0.  1.
</event>
<event>
 8    1  0.1042301E+005  0.1043930E+01  0.7957747E-01            NaN
         13   -1    0    0    0    0  0.00000000000E+00  0.00000000000E+00  0.74505805969E-08  0.10566000000E+00  0.10566000000E+00 0.  1.
     999900   -1    0    0    0    0 -0.00000000000E+00 -0.00000000000E+00 -0.74505805969E-08  0.93827000000E+00  0.93827000000E+00 0.  1.
     999902    2    1    2    0    0 -0.11306408861E-01 -0.11953064925E-01  0.16988091363E-01  0.10202803512E+01  0.10200062201E+01 0.  0.
     999903    2    3    3    0    0  0.31649898299E-01  0.12041303187E+00  0.28306634212E-01  0.12927297895E+00  0.20229266894E-01 0.  0.
         14    1    1    2    0    0  0.11306408861E-01  0.11953064925E-01 -0.16988091363E-01  0.23649648847E-01  0.00000000000E+00 0. -1.
     999901    1    3    3    0    0 -0.42956307160E-01 -0.13236609680E+00 -0.11318542849E-01  0.89100737220E+00  0.88000000000E+00 0. -1.
        -11    1    4    4    0    0  0.52581205483E-02  0.59333388787E-01  0.14734458468E-01  0.61363378688E-01  0.51100000000E-03 0. -1.
         11    1    4    4    0    0  0.26391777751E-01  0.61079643086E-01  0.13572175744E-01  0.67909600262E-01  0.51100000000E-03 0.  1.
</event>
<event>
 8    1  0.1042301E+005  0.1043930E+01  0.7957747E-01            NaN
         13   -1    0    0    0    0  0.00000000000E+00  0.00000000000E+00  0.74505805969E-08  0.10566000000E+00  0.10566000000E+00 0. -1.
     999900   -1    0    0    0    0 -0.00000000000E+00 -0.00000000000E+00 -0.74505805969E-08  0.93827000000E+00  0.93827000000E+00 0. -1.
     999902    2    1    2    0    0 -0.11458027599E-01  0.15751037036E-01  0.14157278558E-01  0.10198507537E+01  0.10195664519E+01 0.  0.
     999903    2    3    3    0    0 -0.85033833801E-01 -0.91032150452E-01  0.32122274181E-01  0.13016609643E+00  0.19843559524E-01 0.  0.
         14    1    1    2    0    0  0.11458027599E-01 -0.15751037036E-01 -0.14157278558E-01  0.24079246258E-01  0.00000000000E+00 0.  1.
     999901    1    3    3    0    0  0.73575806202E-01  0.10678318749E+00 -0.17964995624E-01  0.88968465731E+00  0.88000000000E+00 0.  1.
        -11    1    4    4    0    0 -0.26692587676E-01 -0.34948394393E-01  0.20083062136E-01  0.48347440607E-01  0.51100000000E-03 0. -1.
         11    1    4    4    0    0 -0.58341246125E-01 -0.56083756059E-01  0.12039212045E-01  0.81818655823E-01  0.51100000000E-03 0.  1.
</event>
<event>
 8    1  0.1042301E+005  0.1043930E+01  0.7957747E-01            NaN
         13   -1    0    0    0    0  0.00000000000E+00  0.00000000000E+00  0.74505805969E-08  0.10566000000E+00  0.10566000000E+00 0.  1.
     999900   -1    0    0    0    0 -0.00000000000E+00 -0.00000000000E+00 -0.74505805969E-08  0.93827000000E+00  0.93827000000E+00 0. -1.
     999902    2    1    2    0    0 -0.11006723976E-01 -0.18272849252E-01  0.10845041460E-01  0.10199996862E+01  0.10197189319E+01 0.  0.
     999903    2    3    3    0    0 -0.39333561048E-01 -0.10709437267E-02  0.12451143726E+00  0.13207042960E+00  0.19779393875E-01 0.  0.
         14    1    1    2    0    0  0.11006723976E-01  0.18272849252E-01 -0.10845041460E-01  0.23930313762E-01  0.00000000000E+00 0. -1.
     999901    1    3    3    0    0  0.28326837072E-01 -0.17201905526E-01 -0.11366639580E+00  0.88792925663E+00  0.88000000000E+00 0. -1.
        -11    1    4    4    0    0 -0.19241243192E-01  0.64681148062E-02  0.39789727658E-01  0.44671528929E-01  0.51100000000E-03 0.  1.
         11    1    4    4    0    0 -0.20092317856E-01 -0.75390585329E-02  0.84721709602E-01  0.87398900676E-01  0.51100000000E-03 0. -1.
</event>
<event>
 8    1  0.1042301E+005  0.1043930E+01  0.7957747E-01            NaN
         13   -1    0    0    0    0  0.00000000000E+00  0.00000000000E+00  0.74505805969E-08  0.10566000000E+00  0.10566000000E+00 0. -1.
     999900   -1    0    0    0    0 -0.00000000000E+00 -0.00000000000E+00 -0.74505805969E-08  0.93827000000E+00  0.93827000000E+00 0. -1.
     999902    2    1    2    0    0  0.85607468134E-02  0.11308154256E-01  0.19306987176E-01  0.10199733622E+01  0.10196919825E+01 0.  0.
     999903    2    3    3    0    0  0.62531819873E-01 -0.10597892265E+00  0.38055115994E-01  0.13035511408E+00  0.20062486642E-01 0.  0.
         14    1    1    2    0    0 -0.85607468134E-02 -0.11308154256E-01 -0.19306987176E-01  0.23956637754E-01  0.00000000000E+00 0. -1.
     999901    1    3    3    0    0 -0.53971073060E-01  0.11728707691E+00 -0.18748128819E-01  0.88961824817E+00  0.88000000000E+00 0.  1.
        -11    1    4    4    0    0  0.55905224390E-01 -0.79265689083E-01  0.26958236396E-01  0.10067497808E+00  0.51100000000E-03 0.  1.
         11    1    4    4    0    0  0.66265954828E-02 -0.26713233568E-01  0.11096879599E-01  0.29680136004E-01  0.51100000000E-03 0. -1.
</event>
<event>
 8    1  0.1042301E+005  0.1043930E+01  0.7957747E-01            NaN
         13   -1    0    0    0    0  0.00000000000E+00  0.00000000000E+00  0.74505805969E-08  0.10566000000E+00  0.10566000000E+00 0. -1.
     999900   -1    0    0    0    0 -0.00000000000E+00 -0.00000000000E+00 -0.74505805969E-08  0.93827000000E+00  0.93827000000E+00 0.  1.
     999902    2    1    2    0    0  0.98161262621E-02  0.98533469876E-02 -0.18363446094E-01  0.10208939210E+01  0.10206339878E+01 0.  0.
     999903    2    3    3    0    0  0.11835322298E+00 -0.48300862477E-01  0.22940290076E-01  0.13136134037E+00  0.19725266250E-01 0.  0.
         14    1    1    2    0    0 -0.98161262621E-02 -0.98533469876E-02  0.18363446094E-01  0.23036078966E-01  0.00000000000E+00 0. -1.
     999901    1    3    3    0    0 -0.10853709672E+00  0.58154209465E-01 -0.41303736170E-01  0.88953258066E+00  0.88000000000E+00 0. -1.
        -11    1    4    4    0    0  0.69041551386E-01 -0.17601136092E-01  0.12300063042E-01  0.72305521790E-01  0.51100000000E-03 0.  1.
         11    1    4    4    0    0  0.49311671596E-01 -0.30699726385E-01  0.10640227034E-01  0.59055818579E-01  0.51100000000E-03 0. -1.
</event>
<event>
 8    1  0.1042301E+005  0.1043930E+01  0.7957747E-01            NaN
         13   -1    0    0    0    0  0.00000000000E+00  0.00000000000E+00  0.74505805969E-08  0.10566000000E+00  0.10566000000E+00 0. -1.
     999900   -1    0    0    0    0 -0.00000000000E+00 -0.00000000000E+00 -0.74505805969E-08  0.93827000000E+00  0.93827000000E+00 0. -1.
     999902    2    1    2    0    0 -0.20967493321E-01  0.10508710496E-01  0.80375743929E-03  0.10204626866E+01  0.10201928151E+01 0.  0.
     999903    2    3    3    0    0  0.77394519949E-01  0.97369767256E-01 -0.31310423671E-01  0.13015304975E+00  0.22106343759E-01 0.  0.
         14    1    1    2    0    0  0.20967493321E-01 -0.10508710496E-01 -0.80375743929E-03  0.23467313405E-01  0.00000000000E+00 0.  1.
     999901    1    3    3    0    0 -0.98362013270E-01 -0.86861056760E-01  0.32114181110E-01  0.89030963685E+00  0.88000000000E+00 0.  1.
        -11    1    4    4    0    0  0.62139501790E-01  0.88347557216E-01 -0.31173728088E-01  0.11242184393E+00  0.51100000000E-03 0. -1.
         11    1    4    4    0    0  0.15255018159E-01  0.90222100394E-02 -0.13669558278E-03  0.17731205816E-01  0.51100000000E-03 0.  1.
</event>
<event>
 8    1  0.1042301E+005  0.1043930E+01  0.7957747E-01            NaN
         13   -1    0    0    0    0  0.00000000000E+00  0.00000000000E+00  0.74505805969E-08  0.10566000000E+00  0.10566000000E+00 0.  1.
     999900   -1    0    0    0    0 -0.00000000000E+00 -0.00000000000E+00 -0.74505805969E-08  0.93827000000E+00  0.93827000000E+00 0.  1.
     999902    2    1    2    0    0 -0.20352662465E-01 -0.63085174695E-02  0.43395385272E-03  0.10226176426E+01  0.10223955332E+01 0.  0.
     999903    2    3    3    0    0  0.33284640819E-01 -0.98753980827E-03  0.12620570066E+00  0.13204265676E+00  0.19963511096E-01 0.  0.
         14    1    1    2    0    0  0.20352662465E-01  0.63085174695E-02 -0.43395385272E-03  0.21312357402E-01  0.00000000000E+00 0.  1.
     999901    1    3    3    0    0 -0.53637303284E-01 -0.53209776612E-02 -0.12577174681E+00  0.89057498584E+00  0.88000000000E+00 0.  1.
        -11    1    4    4    0    0  0.13700866089E-01  0.64067797717E-02  0.30195613368E-01  0.33775682766E-01  0.51100000000E-03 0. -1.
         11    1    4    4    0    0  0.19583774730E-01 -0.73943195800E-02  0.96010087293E-01  0.98266973993E-01  0.51100000000E-03 0.  1.
</event>
<event>
 8    1  0.1042301E+005  0.1043930E+01  0.7957747E-01            NaN
         13   -1    0    0    0    0  0.00000000000E+00  0.00000000000E+00  0.74505805969E-08  0.10566000000E+00  0.10566000000E+00 0. -1.
     999900   -1    0    0    0    0 -0.00000000000E+00 -0.00000000000E+00 -0.74505805969E-08  0.93827000000E+00  0.93827000000E+00 0.  1.
     999902    2    1    2    0    0 -0.19802253879E-01  0.72853981242E-02 -0.55092848005E-02  0.10221226961E+01  0.10218900368E+01 0.  0.
     999903    2    3    3    0    0 -0.11002829179E+00  0.63044009463E-01  0.42168006647E-01  0.13447249203E+00  0.14964564971E-01 0.  0.
         14    1    1    2    0    0  0.19802253879E-01 -0.72853981242E-02  0.55092848005E-02  0.21807303904E-01  0.00000000000E+00 0. -1.
     999901    1    3    3    0    0  0.90226037912E-01 -0.55758611339E-01 -0.47677291448E-01  0.88765020406E+00  0.88000000000E+00 0. -1.
        -11    1    4    4    0    0 -0.23444668470E-01  0.20338707517E-01  0.79431791525E-02  0.32041702814E-01  0.51100000000E-03 0. -1.
         11    1    4    4    0    0 -0.86583623322E-01  0.42705301946E-01  0.34224827495E-01  0.10243078922E+00  0.51100000000E-03 0.  1.
</event>
<event>
 8    1  0.1042301E+005  0.1043930E+01  0.7957747E-01            NaN
         13   -1    0    0    0    0  0.00000000000E+00  0.00000000000E+00  0.74505805969E-08  0.10566000000E+00  0.10566000000E+00 0. -1.
     999900   -1    0    0    0    0 -0.00000000000E+00 -0.00000000000E+00 -0.74505805969E-08  0.93827000000E+00  0.93827000000E+00 0.  1.
     999902    2    1    2    0    0 -0.15922549457E-01  0.17603000819E-01 -0.44034027331E-02  0.10197890975E+01  0.10195033203E+01 0.  0.
     999903    2    3    3    0    0  0.74661068101E-01 -0.10005460109E+00 -0.14727604526E-01  0.12728963406E+00  0.20013753146E-01 0.  0.
         14    1    1    2    0    0  0.15922549457E-01 -0.17603000819E-01  0.44034027331E-02  0.24140902524E-01  0.00000000000E+00 0. -1.
     999901    1    3    3    0    0 -0.90583617558E-01  0.11765760191E+00  0.10324201793E-01  0.89249946342E+00  0.88000000000E+00 0.  1.
        -11    1    4    4    0    0  0.27371971912E-01 -0.28140846113E-01  0.31339493172E-02  0.39385464649E-01  0.51100000000E-03 0.  1.
         11    1    4    4    0    0  0.47289096189E-01 -0.71913754976E-01 -0.17861553843E-01  0.87904169411E-01  0.51100000000E-03 0. -1.
</event>
<event>
 8    1  0.1042301E+005  0.1043930E+01  0.7957747E-01            NaN
         13   -1    0    0    0    0  0.00000000000E+00  0.00000000000E+00  0.74505805969E-08  0.10566000000E+00  0.10566000000E+00 0.  1.
     999900   -1    0    0    0    0 -0.00000000000E+00 -0.00000000000E+00 -0.74505805969E-08  0.93827000000E+00  0.93827000000E+00 0.  1.
     999902    2    1    2    0    0 -0.12165755036E-01  0.18549392759E-01 -0.75097386021E-02  0.10205103130E+01  0.10202415484E+01 0.  0.
     999903    2    3    3    0    0 -0.81407805989E-01  0.10362531179E+00 -0.10601894200E-01  0.13369469794E+00  0.19910700062E-01 0.  0.
         14    1    1    2    0    0  0.12165755036E-01 -0.18549392759E-01  0.75097386021E-02  0.23419687043E-01  0.00000000000E+00 0. -1.
     999901    1    3    3    0    0  0.69242050953E-01 -0.85075919026E-01  0.30921555983E-02  0.88681561502E+00  0.88000000000E+00 0. -1.
        -11    1    4    4    0    0 -0.54816493854E-01  0.80873330510E-01 -0.13242928559E-01  0.98595029611E-01  0.51100000000E-03 0. -1.
         11    1    4    4    0    0 -0.26591312135E-01  0.22751981276E-01  0.26410343583E-02  0.35099668325E-01  0.51100000000E-03 0.  1.
</event>
<event>
 8    1  0.1042301E+005  0.1043930E+01  0.7957747E-01            NaN
         13   -1    0    0    0    0  0.00000000000E+00  0.00000000000E+00  0.74505805969E-08  0.10566000000E+00  0.10566000000E+00 0. -1.
     999900   -1    0    0    0    0 -0.00000000000E+00 -0.00000000000E+00 -0.74505805969E-08  0.93827000000E+00  0.93827000000E+00 0. -1.
     999902    2    1    2    0    0 -0.10246074672E-02 -0.92232275569E-02  0.21629560326E-01  0.10203937380E+01  0.10201222598E+01 0.  0.
     999903    2    3    3    0    0  0.69294530612E-01  0.98263094320E-01 -0.41427398427E-01  0.12883652136E+00  0.20621644404E-01 0.  0.
         14    1    1    2    0    0  0.10246074672E-02  0.92232275569E-02 -0.21629560326E-01  0.23536261957E-01  0.00000000000E+00 0.  1.
     999901    1    3    3    0    0 -0.70319138079E-01 -0.10748632188E+00  0.63056958753E-01  0.89155721668E+00  0.88000000000E+00 0.  1.
        -11    1    4    4    0    0  0.15031977953E-01  0.32641870956E-01 -0.19574887833E-01  0.40925413320E-01  0.51100000000E-03 0.  1.
         11    1    4    4    0    0  0.54262552659E-01  0.65621223364E-01 -0.21852510594E-01  0.87911108041E-01  0.51100000000E-03 0. -1.
</event>
<event>
 8    1  0.1042301E+005  0.1043930E+01  0.7957747E-01            NaN
         13   -1    0    0    0    0  0.00000000000E+00  0.00000000000E+00  0.74505805969E-08  0.10566000000E+00  0.10566000000E+00 0.  1.
     999900   -1    0    0    0    0 -0.00000000000E+00 -0.00000000000E+00 -0.74505805969E-08  0.93827000000E+00  0.93827000000E+00 0. -1.
     999902    2    1    2    0    0 -0.13409288282E-01 -0.15561879595E-01  0.11247097811E-01  0.10205103860E+01  0.10202416232E+01 0.  0.
     999903    2    3    3    0    0 -0.78288538242E-01 -0.23949279489E-01  0.10327317345E+00  0.13329650870E+00  0.19998691707E-01 0.  0.
         14    1    1    2    0    0  0.13409288282E-01  0.15561879595E-01 -0.11247097811E-01  0.23419613958E-01  0.00000000000E+00 0. -1.
     999901    1    3    3    0    0  0.64879249960E-01  0.83873998934E-02 -0.92026075634E-01  0.88721387734E+00  0.88000000000E+00 0. -1.
        -11    1    4    4    0    0 -0.45226334447E-01 -0.23978980878E-01  0.61383708703E-01  0.79928928847E-01  0.51100000000E-03 0.  1.
         11    1    4    4    0    0 -0.33062203795E-01  0.29701389666E-04  0.41889464742E-01  0.53367579853E-01  0.51100000000E-03 0. -1.
</event>
<event>
 8    1  0.1042301E+005  0.1043930E+01  0.7957747E-01            NaN
         13   -1    0    0    0    0  0.00000000000E+00  0.00000000000E+00  0.74505805969E-08  0.10566000000E+00  0.10566000000E+00 0. -1.
     999900   -1    0    0    0    0 -0.00000000000E+00 -0.00000000000E+00 -0.74505805969E-08  0.93827000000E+00  0.93827000000E+00 0.  1.
     999902    2    1    2    0    0  0.21487516943E-01 -0.10017206821E-01  0.24898070997E-02  0.10200918592E+01  0.10198132889E+01 0.  0.
     999903    2    3    3    0    0  0.69503799997E-01  0.97669882945E-01  0.48918810759E-01  0.13101496427E+00  0.20042119841E-01 0.  0.
         14    1    1    2    0    0 -0.21487516943E-01  0.10017206821E-01 -0.24898070997E-02  0.23838140789E-01  0.00000000000E+00 0.  1.
     999901    1    3    3    0    0 -0.48016283053E-01 -0.10768708977E+00 -0.46429003659E-01  0.88907689494E+00  0.88000000000E+00 0.  1.
        -11    1    4    4    0    0  0.63677132444E-01  0.80336803018E-01  0.36128281193E-01  0.10869357358E+00  0.51100000000E-03 0. -1.
         11    1    4    4    0    0  0.58266675526E-02  0.17333079927E-01  0.12790529566E-01  0.22321390684E-01  0.51100000000E-03 0.  1.
</event>
<event>
 8    1  0.1042301E+005  0.1043930E+01  0.7957747E-01            NaN
         13   -1    0    0    0    0  0.00000000000E+00  0.00000000000E+00  0.74505805969E-08  0.10566000000E+00  0.10566000000E+00 0. -1.
     999900   -1    0    0    0    0 -0.00000000000E+00 -0.00000000000E+00 -0.74505805969E-08  0.93827000000E+00  0.93827000000E+00 0. -1.
     999902    2    1    2    0    0  0.14009242476E-01 -0.10582815070E-01  0.18099912571E-01  0.10187137020E+01  0.10184015637E+01 0.  0.
     999903    2    3    3    0    0  0.74643879708E-01 -0.95351382801E-01  0.48648859440E-01  0.13203703745E+00  0.20086631225E-01 0.  0.
         14    1    1    2    0    0 -0.14009242476E-01  0.10582815070E-01 -0.18099912571E-01  0.25216297997E-01  0.00000000000E+00 0.  1.
     999901    1    3    3    0    0 -0.60634637232E-01  0.84768567731E-01 -0.30548946869E-01  0.88667666455E+00  0.88000000000E+00 0. -1.
        -11    1    4    4    0    0  0.11907540357E-02 -0.70839047687E-02 -0.29635865393E-03  0.72075343494E-02  0.51100000000E-03 0.  1.
         11    1    4    4    0    0  0.73453125673E-01 -0.88267478032E-01  0.48945218094E-01  0.12482950310E+00  0.51100000000E-03 0. -1.
</event>
<event>
 8    1  0.1042301E+005  0.1043930E+01  0.7957747E-01            NaN
         13   -1    0    0    0    0  0.00000000000E+00  0.00000000000E+00  0.74505805969E-08  0.10566000000E+00  0.10566000000E+00 0. -1.
     999900   -1    0    0    0    0 -0.00000000000E+00 -0.00000000000E+00 -0.74505805969E-08  0.93827000000E+00  0.93827000000E+00 0.  1.
     999902    2    1    2    0    0  0.14229129669E-01 -0.16085376850E-01 -0.88607596232E-02  0.10206981137E+01  0.10204336915E+01 0.  0.
     999903    2    3    3    0    0  0.97357465659E-01  0.66784335194E-01 -0.53817928445E-01  0.13176681353E+00  0.22967372021E-01 0.  0.
         14    1    1    2    0    0 -0.14229129669E-01  0.16085376850E-01  0.88607596232E-02  0.23231886291E-01  0.00000000000E+00 0. -1.
     999901    1    3    3    0    0 -0.83128335991E-01 -0.82869712044E-01  0.44957168822E-01  0.88893130018E+00  0.88000000000E+00 0. -1.
        -11    1    4    4    0    0  0.86341039460E-01  0.63289500598E-01 -0.41360847167E-01  0.11476635735E+00  0.51100000000E-03 0. -1.
         11    1    4    4    0    0  0.11016426200E-01  0.34948345960E-02 -0.12457081278E-01  0.17000456171E-01  0.51100000000E-03 0.  1.
</event>
<event>
 8    1  0.1042301E+005  0.1043930E+01  0.7957747E-01            NaN
         13   -1    0    0    0    0  0.00000000000E+00  0.00000000000E+00  0.74505805969E-08  0.10566000000E+00  0.10566000000E+00 0.  1.
     999900   -1    0    0    0    0 -0.00000000000E+00 -0.00000000000E+00 -0.74505805969E-08  0.93827000000E+00  0.93827000000E+00 0.  1.
     999902    2    1    2    0    0 -0.15716367944E-01 -0.49123378209E-02 -0.17267696380E-01  0.10200698109E+01  0.10197907190E+01 0.  0.
     999903    2    3    3    0    0 -0.20140765795E-02 -0.11423257153E+00  0.58533308811E-01  0.12996618849E+00  0.20295935735E-01 0.  0.
         14    1    1    2    0    0  0.15716367944E-01  0.49123378209E-02  0.17267696380E-01  0.23860189071E-01  0.00000000000E+00 0.  1.
     999901    1    3    3    0    0 -0.13702291365E-01  0.10932023371E+00 -0.75801005190E-01  0.89010362244E+00  0.88000000000E+00 0.  1.
        -11    1    4    4    0    0  0.28660393994E-02 -0.45078231342E-01  0.12938569524E-01  0.46988603141E-01  0.51100000000E-03 0.  1.
         11    1    4    4    0    0 -0.48801159790E-02 -0.69154340191E-01  0.45594739286E-01  0.82977585352E-01  0.51100000000E-03 0. -1.
</event>
<event>
 8    1  0.1042301E+005  0.1043930E+01  0.7957747E-01            NaN
         13   -1    0    0    0    0  0.00000000000E+00  0.00000000000E+00  0.74505805969E-08  0.10566000000E+00  0.10566000000E+00 0.  1.
     999900   -1    0    0    0    0 -0.00000000000E+00 -0.00000000000E+00 -0.74505805969E-08  0.93827000000E+00  0.93827000000E+00 0. -1.
     999902    2    1    2    0    0 -0.92180609534E-02 -0.44380217736E-04 -0.21737194174E-01  0.10203189808E+01  0.10200457550E+01 0.  0.
     999903    2    3    3    0    0  0.87126764654E-01  0.86624792619E-01  0.34464382801E-01  0.12905443634E+00  0.19295751930E-01 0.  0.
         14    1    1    2    0    0  0.92180609534E-02  0.44380217736E-04  0.21737194174E-01  0.23611019205E-01  0.00000000000E+00 0.  1.
     999901    1    3    3    0    0 -0.96344825608E-01 -0.86669172837E-01 -0.56201576976E-01  0.89126454445E+00  0.88000000000E+00 0.  1.
        -11    1    4    4    0    0  0.13896836653E-01  0.19645470519E-01  0.22161960279E-03  0.24070247550E-01  0.51100000000E-03 0.  1.
         11    1    4    4    0    0  0.73229928002E-01  0.66979322100E-01  0.34242763199E-01  0.10498418879E+00  0.51100000000E-03 0. -1.
</event>
<event>
 8    1  0.1042301E+005  0.1043930E+01  0.7957747E-01            NaN
         13   -1    0    0    0    0  0.00000000000E+00  0.00000000000E+00  0.74505805969E-08  0.10566000000E+00  0.10566000000E+00 0.  1.
     999900   -1    0    0    0    0 -0.00000000000E+00 -0.00000000000E+00 -0.74505805969E-08  0.93827000000E+00  0.93827000000E+00 0.  1.
     999902    2    1    2    0    0  0.41966027141E-02  0.20235974333E-01 -0.11511206262E-01  0.10202738380E+01  0.10199995542E+01 0.  0.
     999903    2    3    3    0    0  0.11349430039E+00 -0.57217767157E-01 -0.18424551885E-01  0.13010932334E+00  0.20836093900E-01 0.  0.
         14    1    1    2    0    0 -0.41966027141E-02 -0.20235974333E-01  0.11511206262E-01  0.23656162012E-01  0.00000000000E+00 0.  1.
     999901    1    3    3    0    0 -0.10929769768E+00  0.77453741490E-01  0.69133456233E-02  0.89016451465E+00  0.88000000000E+00 0. -1.
        -11    1    4    4    0    0  0.34789467004E-01 -0.28320604565E-01 -0.40799116684E-02  0.45047424538E-01  0.51100000000E-03 0. -1.
         11    1    4    4    0    0  0.78704833385E-01 -0.28897162592E-01 -0.14344640216E-01  0.85061898803E-01  0.51100000000E-03 0.  1.
</event>
<event>
 8    1  0.1042301E+005  0.1043930E+01  0.7957747E-01            NaN
         13   -1    0    0    0    0  0.00000000000E+00  0.00000000000E+00  0.74505805969E-08  0.10566000000E+00  0.10566000000E+00 0. -1.
     999900   -1    0    0    0    0 -0.00000000000E+00 -0.00000000000E+00 -0.74505805969E-08  0.93827000000E+00  0.93827000000E+00 0.  1.
     999902    2    1    2    0    0  0.11091004194E-01 -0.28467207745E-02  0.20337132495E-01  0.10205909094E+01  0.10203240128E+01 0.  0.
     999903    2    3    3    0    0 -0.57749525496E-01  0.80021005676E-01 -0.79825287000E-01  0.12838096273E+00  0.19267228696E-01 0.  0.
         14    1    1    2    0    0 -0.11091004194E-01  0.28467207745E-02 -0.20337132495E-01  0.23339090627E-01  0.00000000000E+00 0.  1.
     999901    1    3    3    0    0  0.68840529690E-01 -0.82867726451E-01  0.10016241949E+00  0.89220994665E+00  0.88000000000E+00 0. -1.
        -11    1    4    4    0    0 -0.15870747191E-01  0.12535854434E-01 -0.97326775162E-02  0.22450264930E-01  0.51100000000E-03 0. -1.
         11    1    4    4    0    0 -0.41878778305E-01  0.67485151243E-01 -0.70092609484E-01  0.10593069780E+00  0.51100000000E-03 0.  1.
</event>
<event>
 8    1  0.1042301E+005  0.1043930E+01  0.7957747E-01            NaN
         13   -1    0    0    0    0  0.00000000000E+00  0.00000000000E+00  0.74505805969E-08  0.10566000000E+00  0.10566000000E+00 0.  1.
     999900   -1    0    0    0    0 -0.00000000000E+00 -0.00000000000E+00 -0.74505805969E-08  0.93827000000E+00  0.93827000000E+00 0.  1.
     999902    2    1    2    0    0 -0.49109452411E-02 -0.16840424560E-01  0.14624636162E-01  0.10210914960E+01  0.10208360524E+01 0.  0.
     999903    2    3    3    0    0 -0.35112739721E-01  0.69403087557E-01  0.10435846154E+00  0.13182086722E+00  0.20889219428E-01 0.  0.
         14    1    1    2    0    0  0.49109452411E-02  0.16840424560E-01 -0.14624636162E-01  0.22838504009E-01  0.00000000000E+00 0. -1.
     999901    1    3    3    0    0  0.30201794480E-01 -0.86243512117E-01 -0.89733825374E-01  0.88927062877E+00  0.88000000000E+00 0. -1.
        -11    1    4    4    0    0 -0.14382330720E-01  0.50208019732E-01  0.69898885665E-01  0.87257160282E-01  0.51100000000E-03 0.  1.
         11    1    4    4    0    0 -0.20730409000E-01  0.19195067825E-01  0.34459575871E-01  0.44563706941E-01  0.51100000000E-03 0. -1.
</event>
<event>
 8    1  0.1042301E+005  0.1043930E+01  0.7957747E-01            NaN
         13   -1    0    0    0    0  0.00000000000E+00  0.00000000000E+00  0.74505805969E-08  0.10566000000E+00  0.10566000000E+00 0. -1.
     999900   -1    0    0    0    0 -0.00000000000E+00 -0.00000000000E+00 -0.74505805969E-08  0.93827000000E+00  0.93827000000E+00 0. -1.
     999902    2    1    2    0    0 -0.18327269591E-01 -0.31619896845E-02  0.13857832691E-01  0.10207367571E+01  0.10204732239E+01 0.  0.
     999903    2    3    3    0    0 -0.65720965081E-01 -0.95578834771E-01  0.62318782649E-01  0.13330478827E+00  0.20784056327E-01 0.  0.
         14    1    1    2    0    0  0.18327269591E-01  0.31619896845E-02 -0.13857832691E-01  0.23193242902E-01  0.00000000000E+00 0.  1.
     999901    1    3    3    0    0  0.47393695490E-01  0.92416845086E-01 -0.48460949958E-01  0.88743196883E+00  0.88000000000E+00 0.  1.
        -11    1    4    4    0    0 -0.30535591422E-01 -0.27011860608E-01  0.21488288130E-01  0.46087640478E-01  0.51100000000E-03 0. -1.
         11    1    4    4    0    0 -0.35185373659E-01 -0.68566974162E-01  0.40830494519E-01  0.87217147792E-01  0.51100000000E-03 0.  1.
</event>
<event>
 8    1  0.1042301E+005  0.1043930E+01  0.7957747E-01            NaN
         13   -1    0    0    0    0  0.00000000000E+00  0.00000000000E+00  0.74505805969E-08  0.10566000000E+00  0.10566000000E+00 0. -1.
     999900   -1    0    0    0    0 -0.00000000000E+00 -0.00000000000E+00 -0.74505805969E-08  0.93827000000E+00  0.93827000000E+00 0. -1.
     999902    2    1    2    0    0  0.15457480862E-01  0.65055772307E-02  0.16002819527E-01  0.10207492648E+01  0.10204860191E+01 0.  0.
     999903    2    3    3    0    0  0.51937859274E-01  0.62088774324E-01 -0.10043659349E+00  0.13059284785E+00  0.20357442703E-01 0.  0.
         14    1    1    2    0    0 -0.15457480862E-01 -0.65055772307E-02 -0.16002819527E-01  0.23180735159E-01  0.00000000000E+00 0.  1.
     999901    1    3    3    0    0 -0.36480378412E-01 -0.55583197093E-01  0.11643941302E+00  0.89015641699E+00  0.88000000000E+00 0.  1.
        -11    1    4    4    0    0  0.19276921333E-01  0.10527569589E-01 -0.20788036413E-01  0.30246206315E-01  0.51100000000E-03 0. -1.
         11    1    4    4    0    0  0.32660937940E-01  0.51561204735E-01 -0.79648557082E-01  0.10034664153E+00  0.51100000000E-03 0.  1.
</event>
<event>
 8    1  0.1106638E+005  0.1043930E+01  0.7957747E-01            NaN
         13   -1    0    0    0    0  0.00000000000E+00  0.00000000000E+00  0.74505805969E-08  0.10566000000E+00  0.10566000000E+00 0.  1.
     999900   -1    0    0    0    0 -0.00000000000E+00 -0.00000000000E+00 -0.74505805969E-08  0.93827000000E+00  0.93827000000E+00 0.  1.
     999902    2    1    2    0    0  0.18800910308E-01 -0.95455903405E-02 -0.10495054834E-01  0.10203771085E+01  0.10201052420E+01 0.  0.
     999903    2    3    3    0    0  0.93601753840E-01  0.79361363857E-01  0.41894685721E-01  0.13119529489E+00  0.19938061927E-01 0.  0.
         14    1    1    2    0    0 -0.18800910308E-01  0.95455903405E-02  0.10495054834E-01  0.23552891528E-01  0.00000000000E+00 0. -1.
     999901    1    3    3    0    0 -0.74800843532E-01 -0.88906954197E-01 -0.52389740555E-01  0.88918181359E+00  0.88000000000E+00 0. -1.
        -11    1    4    4    0    0  0.42597463871E-01  0.23834169762E-01  0.19203163574E-01  0.52456021473E-01  0.51100000000E-03 0. -1.
         11    1    4    4    0    0  0.51004289968E-01  0.55527194095E-01  0.22691522146E-01  0.78739273412E-01  0.51100000000E-03 0.  1.
</event>
<event>
 7    1  0.1042301E+005  0.1043930E+01  0.7957747E-01            NaN
         13   -1    0    0    0    0  0.00000000000E+00  0.00000000000E+00  0.74505805969E-08  0.10566000000E+00  0.10566000000E+00 0.  1.
     999900   -1    0    0    0    0 -0.00000000000E+00 -0.00000000000E+00 -0.74505805969E-08  0.93827000000E+00  0.93827000000E+00 0.  1.
     999903    2    1    2    0    0  0.31491243344E-01  0.75159230623E-01 -0.53417590943E-01  0.99298320778E-01  0.19133978468E-01 0.  0.
         14    1    1    2    0    0 -0.24616316583E-01  0.48502586613E-01  0.54725850176E-02  0.54666380318E-01  0.00000000000E+00 0. -1.
     999901    1    1    2    0    0 -0.68749267613E-02 -0.12366181724E+00  0.47945005925E-01  0.88996529890E+00  0.88000000000E+00 0.  1.
        -11    1    3    3    0    0  0.21761402154E-01  0.52623822718E-01 -0.26331282951E-01  0.62740919056E-01  0.51100000000E-03 0.  1.
         11    1    3    3    0    0  0.97298411899E-02  0.22535407905E-01 -0.27086307992E-01  0.36557401722E-01  0.51100000000E-03 0. -1.
</event>
<event>
 8    1  0.1042301E+005  0.1043930E+01  0.7957747E-01            NaN
         13   -1    0    0    0    0  0.00000000000E+00  0.00000000000E+00  0.74505805969E-08  0.10566000000E+00  0.10566000000E+00 0.  1.
     999900   -1    0    0    0    0 -0.00000000000E+00 -0.00000000000E+00 -0.74505805969E-08  0.93827000000E+00  0.93827000000E+00 0. -1.
     999902    2    1    2    0    0  0.17533014652E-01  0.15239948120E-01 -0.51360743884E-02  0.10201383653E+01  0.10198608937E+01 0.  0.
     999903    2    3    3    0    0  0.10581789864E+00 -0.65742090728E-01  0.35569087225E-01  0.13108874827E+00  0.19991242905E-01 0.  0.
         14    1    1    2    0    0 -0.17533014652E-01 -0.15239948120E-01  0.51360743884E-02  0.23791634699E-01  0.00000000000E+00 0.  1.
     999901    1    3    3    0    0 -0.88284883984E-01  0.80982038848E-01 -0.40705161613E-01  0.88904961703E+00  0.88000000000E+00 0. -1.
        -11    1    4    4    0    0  0.30965816098E-01 -0.23665977283E-01  0.20038595211E-01  0.43826552071E-01  0.51100000000E-03 0.  1.
         11    1    4    4    0    0  0.74852082538E-01 -0.42076113445E-01  0.15530492013E-01  0.87262196203E-01  0.51100000000E-03 0. -1.
</event>
<event>
 8    1  0.1042301E+005  0.1043930E+01  0.7957747E-01            NaN
         13   -1    0    0    0    0  0.00000000000E+00  0.00000000000E+00  0.74505805969E-08  0.10566000000E+00  0.10566000000E+00 0. -1.
     999900   -1    0    0    0    0 -0.00000000000E+00 -0.00000000000E+00 -0.74505805969E-08  0.93827000000E+00  0.93827000000E+00 0.  1.
     999902    2    1    2    0    0 -0.88710459559E-02  0.14202002264E-01 -0.71602459553E-02  0.10257184255E+01  0.10255567400E+01 0.  0.
     999903    2    3    3    0    0 -0.27540397196E-01 -0.10753245023E+00  0.71532978429E-01  0.13366436592E+00  0.20675937334E-01 0.  0.
         14    1    1    2    0    0  0.88710459559E-02 -0.14202002264E-01  0.71602459553E-02  0.18211574528E-01  0.00000000000E+00 0. -1.
     999901    1    3    3    0    0  0.18669351240E-01  0.12173445249E+00 -0.78693224384E-01  0.89205405955E+00  0.88000000000E+00 0.  1.
        -11    1    4    4    0    0  0.15169119178E-02 -0.29826745419E-01  0.21183864978E-01  0.36619025390E-01  0.51100000000E-03 0.  1.
         11    1    4    4    0    0 -0.29057309114E-01 -0.77705704806E-01  0.50349113451E-01  0.97045340530E-01  0.51100000000E-03 0. -1.
</event>
<event>
 8    1  0.1042301E+005  0.1043930E+01  0.7957747E-01            NaN
         13   -1    0    0    0    0  0.00000000000E+00  0.00000000000E+00  0.74505805969E-08  0.10566000000E+00  0.10566000000E+00 0.  1.
     999900   -1    0    0    0    0 -0.00000000000E+00 -0.00000000000E+00 -0.74505805969E-08  0.93827000000E+00  0.93827000000E+00 0. -1.
     999902    2    1    2    0    0  0.11666555744E-01  0.19271477551E-01  0.70393771994E-02  0.10203280678E+01  0.10200550548E+01 0.  0.
     999903    2    3    3    0    0  0.14354017465E-01 -0.11619779310E+00 -0.49263049934E-01  0.12817947650E+00  0.17180371599E-01 0.  0.
         14    1    1    2    0    0 -0.11666555744E-01 -0.19271477551E-01 -0.70393771994E-02  0.23601932151E-01  0.00000000000E+00 0.  1.
     999901    1    3    3    0    0 -0.26874617212E-02  0.13546927065E+00  0.56302427133E-01  0.89214859135E+00  0.88000000000E+00 0.  1.
        -11    1    4    4    0    0 -0.14099894266E-02 -0.18323603743E-01 -0.13420721559E-01  0.22762236544E-01  0.51100000000E-03 0.  1.
         11    1    4    4    0    0  0.15764006892E-01 -0.97874189358E-01 -0.35842328375E-01  0.10541723996E+00  0.51100000000E-03 0. -1.
</event>
<event>
 8    1  0.1042301E+005  0.1043930E+01  0.7957747E-01            NaN
         13   -1    0    0    0    0  0.00000000000E+00  0.00000000000E+00  0.74505805969E-08  0.10566000000E+00  0.10566000000E+00 0. -1.
     999900   -1    0    0    0    0 -0.00000000000E+00 -0.00000000000E+00 -0.74505805969E-08  0.93827000000E+00  0.93827000000E+00 0. -1.
     999902    2    1    2    0    0  0.66190457170E-02 -0.79837337359E-02 -0.21229484316E-01  0.10203028382E+01  0.10200292343E+01 0.  0.
     999903    2    3    3    0    0  0.10413905196E+00  0.38471519062E-01 -0.69266553434E-01  0.13239754925E+00  0.20155785787E-01 0.  0.
         14    1    1    2    0    0 -0.66190457170E-02  0.79837337359E-02  0.21229484316E-01  0.23627161803E-01  0.00000000000E+00 0. -1.
     999901    1    3    3    0    0 -0.97520006243E-01 -0.46455252798E-01  0.48037069118E-01  0.88790528895E+00  0.88000000000E+00 0. -1.
        -11    1    4    4    0    0  0.14158437630E-01  0.11761314878E-01 -0.16472934270E-01  0.24706447908E-01  0.51100000000E-03 0. -1.
         11    1    4    4    0    0  0.89980614329E-01  0.26710204184E-01 -0.52793619165E-01  0.10769110134E+00  0.51100000000E-03 0.  1.
</event>
<event>
 8    1  0.1042301E+005  0.1043930E+01  0.7957747E-01            NaN
         13   -1    0    0    0    0  0.00000000000E+00  0.00000000000E+00  0.74505805969E-08  0.10566000000E+00  0.10566000000E+00 0.  1.
     999900   -1    0    0    0    0 -0.00000000000E+00 -0.00000000000E+00 -0.74505805969E-08  0.93827000000E+00  0.93827000000E+00 0. -1.
     999902    2    1    2    0    0  0.14046449793E-01 -0.11906107044E-01 -0.14143213022E-01  0.10207117182E+01  0.10204476091E+01 0.  0.
     999903    2    3    3    0    0 -0.97415764356E-01 -0.82670172579E-01 -0.19202715173E-01  0.13084825857E+00  0.20696229674E-01 0.  0.
         14    1    1    2    0    0 -0.14046449793E-01  0.11906107044E-01  0.14143213022E-01  0.23218281834E-01  0.00000000000E+00 0. -1.
     999901    1    3    3    0    0  0.11146221415E+00  0.70764065535E-01  0.50595021506E-02  0.88986345959E+00  0.88000000000E+00 0. -1.
        -11    1    4    4    0    0 -0.86249952935E-01 -0.63380119963E-01 -0.13912634661E-01  0.10793477897E+00  0.51100000000E-03 0. -1.
         11    1    4    4    0    0 -0.11165811421E-01 -0.19290052616E-01 -0.52900805124E-02  0.22913479601E-01  0.51100000000E-03 0.  1.
</event>
<event>
 8    1  0.1042301E+005  0.1043930E+01  0.7957747E-01            NaN
         13   -1    0    0    0    0  0.00000000000E+00  0.00000000000E+00  0.74505805969E-08  0.10566000000E+00  0.10566000000E+00 0. -1.
     999900   -1    0    0    0    0 -0.00000000000E+00 -0.00000000000E+00 -0.74505805969E-08  0.93827000000E+00  0.93827000000E+00 0.  1.
     999902    2    1    2    0    0  0.94829597131E-02  0.18355165387E-01 -0.12764827927E-01  0.10196446247E+01  0.10193553753E+01 0.  0.
     999903    2    3    3    0    0  0.66218940212E-01  0.86274742757E-01  0.70520503871E-01  0.13129306875E+00  0.20891365554E-01 0.  0.
         14    1    1    2    0    0 -0.94829597131E-02 -0.18355165387E-01  0.12764827927E-01  0.24285375297E-01  0.00000000000E+00 0.  1.
     999901    1    3    3    0    0 -0.56735980499E-01 -0.67919577370E-01 -0.83285331798E-01  0.88835155595E+00  0.88000000000E+00 0.  1.
        -11    1    4    4    0    0  0.23696781927E-01  0.45984384664E-01  0.27307860670E-01  0.58498559657E-01  0.51100000000E-03 0.  1.
         11    1    4    4    0    0  0.42522158285E-01  0.40290358094E-01  0.43212643201E-01  0.72794509092E-01  0.51100000000E-03 0. -1.
</event>
<event>
 8    1  0.1042301E+005  0.1043930E+01  0.7957747E-01            NaN
         13   -1    0    0    0    0  0.00000000000E+00  0.00000000000E+00  0.74505805969E-08  0.10566000000E+00  0.10566000000E+00 0.  1.
     999900   -1    0    0    0    0 -0.00000000000E+00 -0.00000000000E+00 -0.74505805969E-08  0.93827000000E+00  0.93827000000E+00 0.  1.
     999902    2    1    2    0    0  0.21130073854E-01 -0.12415309404E-02  0.10975386571E-01  0.10200871702E+01  0.10198084891E+01 0.  0.
     999903    2    3    3    0    0  0.79720605159E-01  0.43269619127E-01  0.95191813141E-01  0.13300966555E+00  0.20061281471E-01 0.  0.
         14    1    1    2    0    0 -0.21130073854E-01  0.12415309404E-02 -0.10975386571E-01  0.23842829751E-01  0.00000000000E+00 0. -1.
     999901    1    3    3    0    0 -0.58590531305E-01 -0.44511150068E-01 -0.84216426570E-01  0.88707750470E+00  0.88000000000E+00 0.  1.
        -11    1    4    4    0    0  0.39879162138E-01  0.11570886496E-01  0.49353435289E-01  0.64500044054E-01  0.51100000000E-03 0. -1.
         11    1    4    4    0    0  0.39841443021E-01  0.31698732631E-01  0.45838377852E-01  0.68509621496E-01  0.51100000000E-03 0.  1.
</event>
<event>
 8    1  0.1042301E+005  0.1043930E+01  0.7957747E-01            NaN
         13   -1    0    0    0    0  0.00000000000E+00  0.00000000000E+00  0.74505805969E-08  0.10566000000E+00  0.10566000000E+00 0.  1.
     999900   -1    0    0    0    0 -0.00000000000E+00 -0.00000000000E+00 -0.74505805969E-08  0.93827000000E+00  0.93827000000E+00 0.  1.
     999902    2    1    2    0    0  0.20085343075E-01 -0.58547565927E-02 -0.10823967422E-01  0.10203745876E+01  0.10201026623E+01 0.  0.
     999903    2    3    3    0    0  0.11979904571E+00  0.39758480870E-02 -0.55516575042E-01  0.13356181570E+00  0.19724345013E-01 0.  0.
         14    1    1    2    0    0 -0.20085343075E-01  0.58547565927E-02  0.10823967422E-01  0.23555412371E-01  0.00000000000E+00 0.  1.
     999901    1    3    3    0    0 -0.99713702639E-01 -0.98306046798E-02  0.44692607620E-01  0.88681277193E+00  0.88000000000E+00 0. -1.
        -11    1    4    4    0    0  0.20571837897E-01 -0.23870613895E-02 -0.24659719580E-02  0.20862423522E-01  0.51100000000E-03 0. -1.
         11    1    4    4    0    0  0.99227207818E-01  0.63629094765E-02 -0.53050603084E-01  0.11269939218E+00  0.51100000000E-03 0.  1.
</event>
<event>
 8    1  0.1042301E+005  0.1043930E+01  0.7957747E-01            NaN
         13   -1    0    0    0    0  0.00000000000E+00  0.00000000000E+00  0.74505805969E-08  0.10566000000E+00  0.10566000000E+00 0.  1.
     999900   -1    0    0    0    0 -0.00000000000E+00 -0.00000000000E+00 -0.74505805969E-08  0.93827000000E+00  0.93827000000E+00 0.  1.
     999902    2    1    2    0    0  0.14899349574E-01 -0.18441715602E-01  0.30154100257E-02  0.10200306237E+01  0.10197506033E+01 0.  0.
     999903    2    3    3    0    0 -0.12327005274E+00  0.25572414096E-01 -0.13306840828E-01  0.12801355923E+00  0.18998554375E-01 0.  0.
         14    1    1    2    0    0 -0.14899349574E-01  0.18441715602E-01 -0.30154100257E-02  0.23899376345E-01  0.00000000000E+00 0.  1.
     999901    1    3    3    0    0  0.13816940232E+00 -0.44014129698E-01  0.16322250853E-01  0.89201706442E+00  0.88000000000E+00 0. -1.
        -11    1    4    4    0    0 -0.50722118131E-01  0.15389613179E-02 -0.83055664057E-02  0.51423197333E-01  0.51100000000E-03 0.  1.
         11    1    4    4    0    0 -0.72547934612E-01  0.24033452778E-01 -0.50012744221E-02  0.76590361899E-01  0.51100000000E-03 0. -1.
</event>
<event>
 8    1  0.1042301E+005  0.1043930E+01  0.7957747E-01            NaN
         13   -1    0    0    0    0  0.00000000000E+00  0.00000000000E+00  0.74505805969E-08  0.10566000000E+00  0.10566000000E+00 0.  1.
     999900   -1    0    0    0    0 -0.00000000000E+00 -0.00000000000E+00 -0.74505805969E-08  0.93827000000E+00  0.93827000000E+00 0.  1.
     999902    2    1    2    0    0 -0.11482000909E-01 -0.11990964912E-01 -0.18967654572E-01  0.10187230267E+01  0.10184111221E+01 0.  0.
     999903    2    3    3    0    0  0.11578515905E+00 -0.14939512009E-01 -0.48106156982E-01  0.12908564197E+00  0.26823656512E-01 0.  0.
         14    1    1    2    0    0  0.11482000909E-01  0.11990964912E-01  0.18967654572E-01  0.25206973328E-01  0.00000000000E+00 0.  1.
     999901    1    3    3    0    0 -0.12726715996E+00  0.29485470969E-02  0.29138502411E-01  0.88963738470E+00  0.88000000000E+00 0. -1.
        -11    1    4    4    0    0  0.75592651044E-01 -0.15127705134E-01 -0.43781065467E-01  0.88657425910E-01  0.51100000000E-03 0. -1.
         11    1    4    4    0    0  0.40192508004E-01  0.18819312500E-03 -0.43250915150E-02  0.40428216062E-01  0.51100000000E-03 0.  1.
</event>
<event>
 8    1  0.1042301E+005  0.1043930E+01  0.7957747E-01            NaN
         13   -1    0    0    0    0  0.00000000000E+00  0.00000000000E+00  0.74505805969E-08  0.10566000000E+00  0.10566000000E+00 0.  1.
     999900   -1    0    0    0    0 -0.00000000000E+00 -0.00000000000E+00 -0.74505805969E-08  0.93827000000E+00  0.93827000000E+00 0.  1.
     999902    2    1    2    0    0  0.11820101435E-01 -0.29064167725E-02  0.21047967292E-01  0.10196158275E+01  0.10193258835E+01 0.  0.
     999903    2    3    3    0    0  0.12514633664E+00  0.33552732184E-01  0.96759805591E-02  0.13152719049E+00  0.20454481834E-01 0.  0.
         14    1    1    2    0    0 -0.11820101435E-01  0.29064167725E-02 -0.21047967292E-01  0.24314172482E-01  0.00000000000E+00 0. -1.
     999901    1    3    3    0    0 -0.11332623521E+00 -0.36459148956E-01  0.11371986732E-01  0.88808863702E+00  0.88000000000E+00 0.  1.
        -11    1    4    4    0    0  0.20719238380E-01  0.10787738961E-01 -0.42321077992E-02  0.23745189162E-01  0.51100000000E-03 0.  1.
         11    1    4    4    0    0  0.10442709826E+00  0.22764993223E-01  0.13908088358E-01  0.10778200133E+00  0.51100000000E-03 0. -1.
</event>
<event>
 8    1  0.1042301E+005  0.1043930E+01  0.7957747E-01            NaN
         13   -1    0    0    0    0  0.00000000000E+00  0.00000000000E+00  0.74505805969E-08  0.10566000000E+00  0.10566000000E+00 0.  1.
     999900   -1    0    0    0    0 -0.00000000000E+00 -0.00000000000E+00 -0.74505805969E-08  0.93827000000E+00  0.93827000000E+00 0. -1.
     999902    2    1    2    0    0  0.17466052941E-01 -0.55051758378E-02 -0.15201314683E-01  0.10201297913E+01  0.10198521173E+01 0.  0.
     999903    2    3    3    0    0  0.54312795399E-01 -0.11421474250E+00 -0.35018728282E-01  0.13245407224E+00  0.17968939185E-01 0.  0.
         14    1    1    2    0    0 -0.17466052941E-01  0.55051758378E-02  0.15201314683E-01  0.23800208706E-01  0.00000000000E+00 0.  1.
     999901    1    3    3    0    0 -0.36846742458E-01  0.10870956666E+00  0.19817413599E-01  0.88767571905E+00  0.88000000000E+00 0. -1.
        -11    1    4    4    0    0  0.32886229220E-01 -0.60890439679E-01 -0.10606113959E-01  0.70013573619E-01  0.51100000000E-03 0. -1.
         11    1    4    4    0    0  0.21426566179E-01 -0.53324302817E-01 -0.24412614324E-01  0.62440498623E-01  0.51100000000E-03 0.  1.
</event>
<event>
 8    1  0.1198268E+005  0.1043930E+01  0.7957747E-01            NaN
         13   -1    0    0    0    0  0.00000000000E+00  0.00000000000E+00  0.74505805969E-08  0.10566000000E+00  0.10566000000E+00 0.  1.
     999900   -1    0    0    0    0 -0.00000000000E+00 -0.00000000000E+00 -0.74505805969E-08  0.93827000000E+00  0.93827000000E+00 0. -1.
     999902    2    1    2    0    0 -0.14498378186E-01  0.15669661444E-01  0.99875503638E-02  0.10203611133E+01  0.10200888731E+01 0.  0.
     999903    2    3    3    0    0  0.34056911223E-01  0.11691472780E+00 -0.45598755786E-01  0.13148653436E+00  0.19507316850E-01 0.  0.
         14    1    1    2    0    0  0.14498378186E-01 -0.15669661444E-01 -0.99875503638E-02  0.23568886738E-01  0.00000000000E+00 0. -1.
     999901    1    3    3    0    0 -0.48555289409E-01 -0.10124506635E+00  0.55586306150E-01  0.88887457890E+00  0.88000000000E+00 0.  1.
        -11    1    4    4    0    0  0.21238530359E-01  0.40610452427E-01 -0.19774207875E-01  0.49915573083E-01  0.51100000000E-03 0. -1.
         11    1    4    4    0    0  0.12818380864E-01  0.76304275369E-01 -0.25824547911E-01  0.81570961275E-01  0.51100000000E-03 0.  1.
</event>
<event>
 8    1  0.1042301E+005  0.1043930E+01  0.7957747E-01            NaN
         13   -1    0    0    0    0  0.00000000000E+00  0.00000000000E+00  0.74505805969E-08  0.10566000000E+00  0.10566000000E+00 0. -1.
     999900   -1    0    0    0    0 -0.00000000000E+00 -0.00000000000E+00 -0.74505805969E-08  0.93827000000E+00  0.93827000000E+00 0.  1.
     999902    2    1    2    0    0  0.78407694036E-02 -0.11392839106E-01  0.22165457924E-01  0.10178037302E+01  0.10174683539E+01 0.  0.
     999903    2    3    3    0    0  0.15054801928E-01 -0.83476935779E-01 -0.92938099756E-01  0.12735609658E+00  0.19673308871E-01 0.  0.
         14    1    1    2    0    0 -0.78407694036E-02  0.11392839106E-01 -0.22165457924E-01  0.26126269782E-01  0.00000000000E+00 0.  1.
     999901    1    3    3    0    0 -0.72140325242E-02  0.72084096673E-01  0.11510355768E+00  0.89044763364E+00  0.88000000000E+00 0. -1.
        -11    1    4    4    0    0 -0.33411330208E-02 -0.35463144225E-01 -0.36357644758E-01  0.50901249705E-01  0.51100000000E-03 0.  1.
         11    1    4    4    0    0  0.18395934949E-01 -0.48013791554E-01 -0.56580454998E-01  0.76454846875E-01  0.51100000000E-03 0. -1.
</event>
<event>
 7    1  0.1042301E+005  0.1043930E+01  0.7957747E-01            NaN
         13   -1    0    0    0    0  0.00000000000E+00  0.00000000000E+00  0.74505805969E-08  0.10566000000E+00  0.10566000000E+00 0. -1.
     999900   -1    0    0    0    0 -0.00000000000E+00 -0.00000000000E+00 -0.74505805969E-08  0.93827000000E+00  0.93827000000E+00 0.  1.
     999903    2    1    2    0    0  0.26474050074E-01 -0.30641449137E-01 -0.10913669733E+00  0.11814734044E+00  0.20203999991E-01 0.  0.
         14    1    1    2    0    0  0.13823444191E-01 -0.18340304927E-01  0.33021220819E-01  0.40222573494E-01  0.00000000000E+00 0. -1.
     999901    1    1    2    0    0 -0.40297494265E-01  0.48981754064E-01  0.76115476511E-01  0.88556008607E+00  0.88000000000E+00 0. -1.
        -11    1    3    3    0    0  0.22386672474E-01 -0.33131368203E-01 -0.91317287198E-01  0.99689310990E-01  0.51100000000E-03 0. -1.
         11    1    3    3    0    0  0.40873776005E-02  0.24899190660E-02 -0.17819410132E-01  0.18458029447E-01  0.51100000000E-03 0.  1.
</event>
<event>
 8    1  0.1042301E+005  0.1043930E+01  0.7957747E-01            NaN
         13   -1    0    0    0    0  0.00000000000E+00  0.00000000000E+00  0.74505805969E-08  0.10566000000E+00  0.10566000000E+00 0.  1.
     999900   -1    0    0    0    0 -0.00000000000E+00 -0.00000000000E+00 -0.74505805969E-08  0.93827000000E+00  0.93827000000E+00 0.  1.
     999902    2    1    2    0    0 -0.13627527608E-01 -0.20017197804E-02  0.19099635630E-01  0.10203819115E+01  0.10201101572E+01 0.  0.
     999903    2    3    3    0    0  0.39478110224E-01  0.28200482140E-01 -0.11696362011E+00  0.12783186174E+00  0.17513082694E-01 0.  0.
         14    1    1    2    0    0  0.13627527608E-01  0.20017197804E-02 -0.19099635630E-01  0.23548088499E-01  0.00000000000E+00 0. -1.
     999901    1    3    3    0    0 -0.53105637831E-01 -0.30202201920E-01  0.13606325574E+00  0.89255004976E+00  0.88000000000E+00 0. -1.
        -11    1    4    4    0    0  0.92561277608E-02  0.96993005864E-02 -0.53366263180E-01  0.55027007004E-01  0.51100000000E-03 0. -1.
         11    1    4    4    0    0  0.30221982463E-01  0.18501181553E-01 -0.63597356933E-01  0.72804854733E-01  0.51100000000E-03 0.  1.
</event>
<event>
 8    1  0.1042301E+005  0.1043930E+01  0.7957747E-01            NaN
         13   -1    0    0    0    0  0.00000000000E+00  0.00000000000E+00  0.74505805969E-08  0.10566000000E+00  0.10566000000E+00 0.  1.
     999900   -1    0    0    0    0 -0.00000000000E+00 -0.00000000000E+00 -0.74505805969E-08  0.93827000000E+00  0.93827000000E+00 0. -1.
     999902    2    1    2    0    0 -0.20917910076E-01  0.11299999107E-01  0.25086224052E-02  0.10200230527E+01  0.10197428529E+01 0.  0.
     999903    2    3    3    0    0 -0.45006988524E-01 -0.24531547922E-01  0.11925019869E+00  0.13126392951E+00  0.19549512619E-01 0.  0.
         14    1    1    2    0    0  0.20917910076E-01 -0.11299999107E-01 -0.25086224052E-02  0.23906947278E-01  0.00000000000E+00 0. -1.
     999901    1    3    3    0    0  0.24089078448E-01  0.35831547029E-01 -0.11674157628E+00  0.88875912321E+00  0.88000000000E+00 0.  1.
        -11    1    4    4    0    0 -0.33074344672E-01 -0.11267310571E-01  0.94460156673E-01  0.10071666636E+00  0.51100000000E-03 0.  1.
         11    1    4    4    0    0 -0.11932643852E-01 -0.13264237351E-01  0.24790042014E-01  0.30547263148E-01  0.51100000000E-03 0. -1.
</event>
<event>
 8    1  0.1042301E+005  0.1043930E+01  0.7957747E-01            NaN
         13   -1    0    0    0    0  0.00000000000E+00  0.00000000000E+00  0.74505805969E-08  0.10566000000E+00  0.10566000000E+00 0. -1.
     999900   -1    0    0    0    0 -0.00000000000E+00 -0.00000000000E+00 -0.74505805969E-08  0.93827000000E+00  0.93827000000E+00 0. -1.
     999902    2    1    2    0    0 -0.19973606605E-01  0.64779354797E-03  0.13023707672E-01  0.10200766657E+01  0.10197977360E+01 0.  0.
     999903    2    3    3    0    0  0.98846640227E-01 -0.57073707436E-01 -0.53570109937E-01  0.12772877427E+00  0.20416090071E-01 0.  0.
         14    1    1    2    0    0  0.19973606605E-01 -0.64779354797E-03 -0.13023707672E-01  0.23853334333E-01  0.00000000000E+00 0.  1.
     999901    1    3    3    0    0 -0.11882024683E+00  0.57721500984E-01  0.66593817609E-01  0.89234789139E+00  0.88000000000E+00 0.  1.
        -11    1    4    4    0    0  0.50017783160E-01 -0.34688489453E-01 -0.38161894918E-01  0.71844702501E-01  0.51100000000E-03 0.  1.
         11    1    4    4    0    0  0.48828857067E-01 -0.22385217983E-01 -0.15408215019E-01  0.55884071771E-01  0.51100000000E-03 0. -1.
</event>
<event>
 8    1  0.1042301E+005  0.1043930E+01  0.7957747E-01            NaN
         13   -1    0    0    0    0  0.00000000000E+00  0.00000000000E+00  0.74505805969E-08  0.10566000000E+00  0.10566000000E+00 0. -1.
     999900   -1    0    0    0    0 -0.00000000000E+00 -0.00000000000E+00 -0.74505805969E-08  0.93827000000E+00  0.93827000000E+00 0. -1.
     999902    2    1    2    0    0  0.15453808682E-01  0.19356680815E-01  0.42972052067E-02  0.10187910408E+01  0.10184808381E+01 0.  0.
     999903    2    3    3    0    0  0.29994427245E-01 -0.64698579077E-01 -0.10441517542E+00  0.12800762272E+00  0.19946198010E-01 0.  0.
         14    1    1    2    0    0 -0.15453808682E-01 -0.19356680815E-01 -0.42972052067E-02  0.25138959158E-01  0.00000000000E+00 0.  1.
     999901    1    3    3    0    0 -0.14540618563E-01  0.84055259892E-01  0.10871238063E+00  0.89078341812E+00  0.88000000000E+00 0.  1.
        -11    1    4    4    0    0  0.15028609546E-01 -0.44828041621E-01 -0.53918619558E-01  0.71713953151E-01  0.51100000000E-03 0. -1.
         11    1    4    4    0    0  0.14965817699E-01 -0.19870537456E-01 -0.50496555864E-01  0.56293669567E-01  0.51100000000E-03 0.  1.
</event>
<event>
 8    1  0.1042301E+005  0.1043930E+01  0.7957747E-01            NaN
         13   -1    0    0    0    0  0.00000000000E+00  0.00000000000E+00  0.74505805969E-08  0.10566000000E+00  0.10566000000E+00 0. -1.
     999900   -1    0    0    0    0 -0.00000000000E+00 -0.00000000000E+00 -0.74505805969E-08  0.93827000000E+00  0.93827000000E+00 0. -1.
     999902    2    1    2    0    0  0.18115921998E-01  0.82984709144E-02 -0.12640206808E-01  0.10203328375E+01  0.10200599361E+01 0.  0.
     999903    2    3    3    0    0  0.30799435295E-01  0.65135495207E-01 -0.11011017769E+00  0.13303823364E+00  0.19587813268E-01 0.  0.
         14    1    1    2    0    0 -0.18115921998E-01 -0.82984709144E-02  0.12640206808E-01  0.23597162488E-01  0.00000000000E+00 0. -1.
     999901    1    3    3    0    0 -0.12683513297E-01 -0.56837024293E-01  0.97469970880E-01  0.88729460387E+00  0.88000000000E+00 0.  1.
        -11    1    4    4    0    0  0.22917151543E-01  0.37136276993E-01 -0.80251636229E-01  0.91350342868E-01  0.51100000000E-03 0.  1.
         11    1    4    4    0    0  0.78822837515E-02  0.27999218214E-01 -0.29858541460E-01  0.41687890770E-01  0.51100000000E-03 0. -1.
</event>
<event>
 8    1  0.1042301E+005  0.1043930E+01  0.7957747E-01            NaN
         13   -1    0    0    0    0  0.00000000000E+00  0.00000000000E+00  0.74505805969E-08  0.10566000000E+00  0.10566000000E+00 0.  1.
     999900   -1    0    0    0    0 -0.00000000000E+00 -0.00000000000E+00 -0.74505805969E-08  0.93827000000E+00  0.93827000000E+00 0.  1.
     999902    2    1    2    0    0 -0.96829872513E-02  0.18393561015E-01 -0.11746825102E-01  0.10200538355E+01  0.10197743653E+01 0.  0.
     999903    2    3    3    0    0 -0.97191275510E-01  0.87270268888E-01 -0.15761635325E-01  0.13302631619E+00  0.19629767792E-01 0.  0.
         14    1    1    2    0    0  0.96829872513E-02 -0.18393561015E-01  0.11746825102E-01  0.23876164451E-01  0.00000000000E+00 0.  1.
     999901    1    3    3    0    0  0.87508288259E-01 -0.68876707873E-01  0.40148102222E-02  0.88702751936E+00  0.88000000000E+00 0. -1.
        -11    1    4    4    0    0 -0.56494921045E-02  0.88180582619E-03  0.16138259780E-02  0.59632120406E-02  0.51100000000E-03 0. -1.
         11    1    4    4    0    0 -0.91541783405E-01  0.86388463062E-01 -0.17375461303E-01  0.12706310415E+00  0.51100000000E-03 0.  1.
</event>
<event>
 8    1  0.1042301E+005  0.1043930E+01  0.7957747E-01            NaN
         13   -1    0    0    0    0  0.00000000000E+00  0.00000000000E+00  0.74505805969E-08  0.10566000000E+00  0.10566000000E+00 0.  1.
     999900   -1    0    0    0    0 -0.00000000000E+00 -0.00000000000E+00 -0.74505805969E-08  0.93827000000E+00  0.93827000000E+00 0. -1.
     999902    2    1    2    0    0  0.12786356695E-02  0.10641039955E-01 -0.21113859674E-01  0.10202517038E+01  0.10199769004E+01 0.  0.
     999903    2    3    3    0    0  0.76499287095E-02  0.68060925264E-01 -0.11304309505E+00  0.13357892260E+00  0.19333294295E-01 0.  0.
         14    1    1    2    0    0 -0.12786356695E-02 -0.10641039955E-01  0.21113859674E-01  0.23678296198E-01  0.00000000000E+00 0.  1.
     999901    1    3    3    0    0 -0.63712930400E-02 -0.57419885309E-01  0.91929235375E-01  0.88667278120E+00  0.88000000000E+00 0.  1.
        -11    1    4    4    0    0 -0.43961072557E-02  0.44285151901E-01 -0.70206185104E-01  0.83124424725E-01  0.51100000000E-03 0.  1.
         11    1    4    4    0    0  0.12046035965E-01  0.23775773362E-01 -0.42836909945E-01  0.50454497878E-01  0.51100000000E-03 0. -1.
</event>
<event>
 8    1  0.1042301E+005  0.1043930E+01  0.7957747E-01            NaN
         13   -1    0    0    0    0  0.00000000000E+00  0.00000000000E+00  0.74505805969E-08  0.10566000000E+00  0.10566000000E+00 0.  1.
     999900   -1    0    0    0    0 -0.00000000000E+00 -0.00000000000E+00 -0.74505805969E-08  0.93827000000E+00  0.93827000000E+00 0. -1.
     999902    2    1    2    0    0  0.12118941366E-01 -0.31522272551E-03  0.19221289507E-01  0.10212049901E+01  0.10209521074E+01 0.  0.
     999903    2    3    3    0    0 -0.37142389044E-01 -0.11070858898E+00 -0.53415173905E-01  0.12997582214E+00  0.20114293406E-01 0.  0.
         14    1    1    2    0    0 -0.12118941366E-01  0.31522272551E-03 -0.19221289507E-01  0.22725009912E-01  0.00000000000E+00 0. -1.
     999901    1    3    3    0    0  0.49261330410E-01  0.11039336626E+00  0.72636463412E-01  0.89122916795E+00  0.88000000000E+00 0.  1.
        -11    1    4    4    0    0 -0.36482754152E-01 -0.82162822709E-01 -0.39179165049E-01  0.98066247409E-01  0.51100000000E-03 0. -1.
         11    1    4    4    0    0 -0.65963489201E-03 -0.28545766272E-01 -0.14236008855E-01  0.31909574729E-01  0.51100000000E-03 0.  1.
</event>
<event>
 8    1  0.1042301E+005  0.1043930E+01  0.7957747E-01            NaN
         13   -1    0    0    0    0  0.00000000000E+00  0.00000000000E+00  0.74505805969E-08  0.10566000000E+00  0.10566000000E+00 0.  1.
     999900   -1    0    0    0    0 -0.00000000000E+00 -0.00000000000E+00 -0.74505805969E-08  0.93827000000E+00  0.93827000000E+00 0.  1.
     999902    2    1    2    0    0  0.21395979111E-02 -0.23354905549E-01 -0.28005169764E-03  0.10204756204E+01  0.10202060498E+01 0.  0.
     999903    2    3    3    0    0  0.12771991496E-01 -0.11371980266E+00  0.65449265398E-01  0.13334586354E+00  0.20054817345E-01 0.  0.
         14    1    1    2    0    0 -0.21395979111E-02  0.23354905549E-01  0.28005169764E-03  0.23454379578E-01  0.00000000000E+00 0. -1.
     999901    1    3    3    0    0 -0.10632393585E-01  0.90364897107E-01 -0.65729317095E-01  0.88712975688E+00  0.88000000000E+00 0. -1.
        -11    1    4    4    0    0  0.91752034252E-02 -0.27625133845E-01  0.23967907660E-01  0.37710132543E-01  0.51100000000E-03 0.  1.
         11    1    4    4    0    0  0.35967880705E-02 -0.86094668812E-01  0.41481357738E-01  0.95635730995E-01  0.51100000000E-03 0. -1.
</event>
<event>
 8    1  0.1042301E+005  0.1043930E+01  0.7957747E-01            NaN
         13   -1    0    0    0    0  0.00000000000E+00  0.00000000000E+00  0.74505805969E-08  0.10566000000E+00  0.10566000000E+00 0. -1.
     999900   -1    0    0    0    0 -0.00000000000E+00 -0.00000000000E+00 -0.74505805969E-08  0.93827000000E+00  0.93827000000E+00 0. -1.
     999902    2    1    2    0    0 -0.49893921033E-02 -0.16760594599E-01  0.15509067802E-01  0.10205560241E+01  0.10202883198E+01 0.  0.
     999903    2    3    3    0    0 -0.25300204038E-01 -0.12436328590E+00 -0.33061034614E-01  0.13244008398E+00  0.18466635663E-01 0.  0.
         14    1    1    2    0    0  0.49893921033E-02  0.16760594599E-01 -0.15509067802E-01  0.23373975891E-01  0.00000000000E+00 0.  1.
     999901    1    3    3    0    0  0.20310811935E-01  0.10760269130E+00  0.48570102416E-01  0.88811594013E+00  0.88000000000E+00 0. -1.
        -11    1    4    4    0    0  0.89986132929E-03 -0.99478489156E-02  0.14210629122E-02  0.10101979472E-01  0.51100000000E-03 0.  1.
         11    1    4    4    0    0 -0.26200065368E-01 -0.11441543698E+00 -0.34482097526E-01  0.12233810451E+00  0.51100000000E-03 0. -1.
</event>
<event>
 8    1  0.1042301E+005  0.1043930E+01  0.7957747E-01            NaN
         13   -1    0    0    0    0  0.00000000000E+00  0.00000000000E+00  0.74505805969E-08  0.10566000000E+00  0.10566000000E+00 0.  1.
     999900   -1    0    0    0    0 -0.00000000000E+00 -0.00000000000E+00 -0.74505805969E-08  0.93827000000E+00  0.93827000000E+00 0.  1.
     999902    2    1    2    0    0 -0.50813252973E-02  0.91548024757E-02 -0.26742528454E-01  0.10152107886E+01  0.10148044896E+01 0.  0.
     999903    2    3    3    0    0 -0.12424532262E+00  0.15208852830E-01 -0.66564957497E-02  0.12693146401E+00  0.19976942312E-01 0.  0.
         14    1    1    2    0    0  0.50813252973E-02 -0.91548024757E-02  0.26742528454E-01  0.28719211397E-01  0.00000000000E+00 0.  1.
     999901    1    3    3    0    0  0.11916399732E+00 -0.60540503541E-02 -0.20086032705E-01  0.88827932459E+00  0.88000000000E+00 0. -1.
        -11    1    4    4    0    0 -0.35778406162E-01  0.37213661729E-04  0.60066888819E-02  0.36282739211E-01  0.51100000000E-03 0.  1.
         11    1    4    4    0    0 -0.88466916456E-01  0.15171639168E-01 -0.12663184632E-01  0.90648724802E-01  0.51100000000E-03 0. -1.
</event>
<event>
 8    1  0.1042301E+005  0.1043930E+01  0.7957747E-01            NaN
         13   -1    0    0    0    0  0.00000000000E+00  0.00000000000E+00  0.74505805969E-08  0.10566000000E+00  0.10566000000E+00 0. -1.
     999900   -1    0    0    0    0 -0.00000000000E+00 -0.00000000000E+00 -0.74505805969E-08  0.93827000000E+00  0.93827000000E+00 0. -1.
     999902    2    1    2    0    0 -0.98833658217E-02  0.10732892853E-01 -0.17835311630E-01  0.10208871215E+01  0.10206270330E+01 0.  0.
     999903    2    3    3    0    0  0.71019799666E-01 -0.10602188079E+00 -0.81139727852E-02  0.12944362705E+00  0.20133675259E-01 0.  0.
         14    1    1    2    0    0  0.98833658217E-02 -0.10732892853E-01  0.17835311630E-01  0.23042878507E-01  0.00000000000E+00 0. -1.
     999901    1    3    3    0    0 -0.80903165487E-01  0.11675477364E+00 -0.97213388449E-02  0.89144349444E+00  0.88000000000E+00 0. -1.
        -11    1    4    4    0    0  0.41583573046E-01 -0.71745541101E-01 -0.13211367840E-01  0.83972719239E-01  0.51100000000E-03 0.  1.
         11    1    4    4    0    0  0.29436226619E-01 -0.34276339686E-01  0.50973950548E-02  0.45470907812E-01  0.51100000000E-03 0. -1.
</event>
<event>
 8    1  0.1042301E+005  0.1043930E+01  0.7957747E-01            NaN
         13   -1    0    0    0    0  0.00000000000E+00  0.00000000000E+00  0.74505805969E-08  0.10566000000E+00  0.10566000000E+00 0. -1.
     999900   -1    0    0    0    0 -0.00000000000E+00 -0.00000000000E+00 -0.74505805969E-08  0.93827000000E+00  0.93827000000E+00 0. -1.
     999902    2    1    2    0    0 -0.66237867911E-02  0.76253087534E-02 -0.23284165178E-01  0.10185494517E+01  0.10182331822E+01 0.  0.
     999903    2    3    3    0    0  0.21520054753E-01 -0.39033312030E-01  0.11568412255E+00  0.12597940529E+00  0.22389331030E-01 0.  0.
         14    1    1    2    0    0  0.66237867911E-02 -0.76253087534E-02  0.23284165178E-01  0.25380548321E-01  0.00000000000E+00 0. -1.
     999901    1    3    3    0    0 -0.28143841544E-01  0.46658620783E-01 -0.13896828773E+00  0.89257004639E+00  0.88000000000E+00 0. -1.
        -11    1    4    4    0    0  0.69984901588E-03  0.27572459727E-02  0.10633770427E-01  0.11019545748E-01  0.51100000000E-03 0. -1.
         11    1    4    4    0    0  0.20820205737E-01 -0.41790558003E-01  0.10505035212E+00  0.11495985955E+00  0.51100000000E-03 0.  1.
</event>
<event>
 8    1  0.1042301E+005  0.1043930E+01  0.7957747E-01            NaN
         13   -1    0    0    0    0  0.00000000000E+00  0.00000000000E+00  0.74505805969E-08  0.10566000000E+00  0.10566000000E+00 0.  1.
     999900   -1    0    0    0    0 -0.00000000000E+00 -0.00000000000E+00 -0.74505805969E-08  0.93827000000E+00  0.93827000000E+00 0.  1.
     999902    2    1    2    0    0  0.20832830448E-02 -0.11909501036E-01 -0.20314170876E-01  0.10202901645E+01  0.10200162636E+01 0.  0.
     999903    2    3    3    0    0  0.11879623060E+00 -0.42551351699E-01 -0.33088992384E-01  0.13196363041E+00  0.19908701577E-01 0.  0.
         14    1    1    2    0    0 -0.20832830448E-02  0.11909501036E-01  0.20314170876E-01  0.23639835481E-01  0.00000000000E+00 0.  1.
     999901    1    3    3    0    0 -0.11671294755E+00  0.30641850662E-01  0.12774821508E-01  0.88832653411E+00  0.88000000000E+00 0.  1.
        -11    1    4    4    0    0  0.20171114194E-01 -0.85368067220E-02  0.17351795703E-02  0.21977781644E-01  0.51100000000E-03 0.  1.
         11    1    4    4    0    0  0.98625116403E-01 -0.34014544977E-01 -0.34824171954E-01  0.10998584877E+00  0.51100000000E-03 0. -1.
</event>
<event>
 8    1  0.1042301E+005  0.1043930E+01  0.7957747E-01            NaN
         13   -1    0    0    0    0  0.00000000000E+00  0.00000000000E+00  0.74505805969E-08  0.10566000000E+00  0.10566000000E+00 0.  1.
     999900   -1    0    0    0    0 -0.00000000000E+00 -0.00000000000E+00 -0.74505805969E-08  0.93827000000E+00  0.93827000000E+00 0.  1.
     999902    2    1    2    0    0  0.11895346824E-01 -0.15600764100E-01 -0.12789530811E-01  0.10205108793E+01  0.10202421279E+01 0.  0.
     999903    2    3    3    0    0  0.47015244491E-01  0.18734666906E-01 -0.12087138621E+00  0.13253902359E+00  0.19881645087E-01 0.  0.
         14    1    1    2    0    0 -0.11895346824E-01  0.15600764100E-01  0.12789530811E-01  0.23419120713E-01  0.00000000000E+00 0. -1.
     999901    1    3    3    0    0 -0.35119897667E-01 -0.34335431006E-01  0.10808185540E+00  0.88797185569E+00  0.88000000000E+00 0. -1.
        -11    1    4    4    0    0  0.25014360105E-01  0.19894201307E-01 -0.63772880806E-01  0.71335397275E-01  0.51100000000E-03 0. -1.
         11    1    4    4    0    0  0.22000884387E-01 -0.11595344003E-02 -0.57098505408E-01  0.61203626320E-01  0.51100000000E-03 0.  1.
</event>
<event>
 8    1  0.1042301E+005  0.1043930E+01  0.7957747E-01            NaN
         13   -1    0    0    0    0  0.00000000000E+00  0.00000000000E+00  0.74505805969E-08  0.10566000000E+00  0.10566000000E+00 0. -1.
     999900   -1    0    0    0    0 -0.00000000000E+00 -0.00000000000E+00 -0.74505805969E-08  0.93827000000E+00  0.93827000000E+00 0.  1.
     999902    2    1    2    0    0 -0.66710429853E-02  0.57326981088E-02 -0.21932091988E-01  0.10202998646E+01  0.10200261910E+01 0.  0.
     999903    2    3    3    0    0 -0.12963087945E+00 -0.46392171225E-02 -0.94781867837E-02  0.13160317965E+00  0.20096607355E-01 0.  0.
         14    1    1    2    0    0  0.66710429853E-02 -0.57326981088E-02  0.21932091988E-01  0.23630135444E-01  0.00000000000E+00 0. -1.
     999901    1    3    3    0    0  0.12295983646E+00  0.10371915231E-01 -0.12453905205E-01  0.88869668491E+00  0.88000000000E+00 0.  1.
        -11    1    4    4    0    0 -0.31642114344E-01  0.18097727285E-02 -0.10512367437E-01  0.33395653424E-01  0.51100000000E-03 0.  1.
         11    1    4    4    0    0 -0.97988765104E-01 -0.64489898510E-02  0.10341806534E-02  0.98207526225E-01  0.51100000000E-03 0. -1.
</event>
<event>
 8    1  0.1042301E+005  0.1043930E+01  0.7957747E-01            NaN
         13   -1    0    0    0    0  0.00000000000E+00  0.00000000000E+00  0.74505805969E-08  0.10566000000E+00  0.10566000000E+00 0. -1.
     999900   -1    0    0    0    0 -0.00000000000E+00 -0.00000000000E+00 -0.74505805969E-08  0.93827000000E+00  0.93827000000E+00 0.  1.
     999902    2    1    2    0    0 -0.24171102456E-01  0.50655138494E-02 -0.19637444140E-02  0.10191558619E+01  0.10188547065E+01 0.  0.
     999903    2    3    3    0    0 -0.60444150638E-01  0.11065734881E+00  0.31506226389E-01  0.13147032720E+00  0.19830795285E-01 0.  0.
         14    1    1    2    0    0  0.24171102456E-01 -0.50655138494E-02  0.19637444140E-02  0.24774138060E-01  0.00000000000E+00 0. -1.
     999901    1    3    3    0    0  0.36273048182E-01 -0.10559183496E+00 -0.33469970804E-01  0.88768553474E+00  0.88000000000E+00 0.  1.
        -11    1    4    4    0    0 -0.44498255241E-01  0.77107920141E-01  0.13019137296E-01  0.89974913864E-01  0.51100000000E-03 0.  1.
         11    1    4    4    0    0 -0.15945895397E-01  0.33549428670E-01  0.18487089093E-01  0.41495413339E-01  0.51100000000E-03 0. -1.
</event>
<event>
 8    1  0.1042301E+005  0.1043930E+01  0.7957747E-01            NaN
         13   -1    0    0    0    0  0.00000000000E+00  0.00000000000E+00  0.74505805969E-08  0.10566000000E+00  0.10566000000E+00 0. -1.
     999900   -1    0    0    0    0 -0.00000000000E+00 -0.00000000000E+00 -0.74505805969E-08  0.93827000000E+00  0.93827000000E+00 0.  1.
     999902    2    1    2    0    0 -0.20366255192E-01  0.84829894076E-03  0.12356564508E-01  0.10200932920E+01  0.10198147556E+01 0.  0.
     999903    2    3    3    0    0 -0.12231429237E+00 -0.31031860377E-01 -0.34694612974E-01  0.13238638083E+00  0.19966852116E-01 0.  0.
         14    1    1    2    0    0  0.20366255192E-01 -0.84829894076E-03 -0.12356564508E-01  0.23836707996E-01  0.00000000000E+00 0. -1.
     999901    1    3    3    0    0  0.10194803718E+00  0.31880159318E-01  0.47051177482E-01  0.88770691117E+00  0.88000000000E+00 0.  1.
        -11    1    4    4    0    0 -0.68484444130E-01 -0.98281306771E-02 -0.25836293754E-01  0.73854495032E-01  0.51100000000E-03 0. -1.
         11    1    4    4    0    0 -0.53829848240E-01 -0.21203729700E-01 -0.88583192197E-02  0.58531885799E-01  0.51100000000E-03 0.  1.
</event>
<event>
 8    1  0.1042301E+005  0.1043930E+01  0.7957747E-01            NaN
         13   -1    0    0    0    0  0.00000000000E+00  0.00000000000E+00  0.74505805969E-08  0.10566000000E+00  0.10566000000E+00 0. -1.
     999900   -1    0    0    0    0 -0.00000000000E+00 -0.00000000000E+00 -0.74505805969E-08  0.93827000000E+00  0.93827000000E+00 0.  1.
     999902    2    1    2    0    0 -0.14097478739E-01  0.13019355449E-01 -0.12865952747E-01  0.10208264232E+01  0.10205649469E+01 0.  0.
     999903    2    3    3    0    0  0.91718687913E-01 -0.84119306499E-01  0.25701738077E-01  0.12834648077E+00  0.17996231519E-01 0.  0.
         14    1    1    2    0    0  0.14097478739E-01 -0.13019355449E-01  0.12865952747E-01  0.23103576848E-01  0.00000000000E+00 0.  1.
     999901    1    3    3    0    0 -0.10581616665E+00  0.97138661947E-01 -0.38567690824E-01  0.89247994238E+00  0.88000000000E+00 0.  1.
        -11    1    4    4    0    0  0.74678284387E-01 -0.58837242229E-01  0.16491914782E-01  0.96493065069E-01  0.51100000000E-03 0.  1.
         11    1    4    4    0    0  0.17040403525E-01 -0.25282064269E-01  0.92098232949E-02  0.31853415706E-01  0.51100000000E-03 0. -1.
</event>
<event>
 8    1  0.1042301E+005  0.1043930E+01  0.7957747E-01            NaN
         13   -1    0    0    0    0  0.00000000000E+00  0.00000000000E+00  0.74505805969E-08  0.10566000000E+00  0.10566000000E+00 0.  1.
     999900   -1    0    0    0    0 -0.00000000000E+00 -0.00000000000E+00 -0.74505805969E-08  0.93827000000E+00  0.93827000000E+00 0.  1.
     999902    2    1    2    0    0  0.15307486027E-01  0.14527889582E-01 -0.84215343270E-02  0.10212077434E+01  0.10209549227E+01 0.  0.
     999903    2    3    3    0    0  0.21514572980E-01  0.12531082668E+00  0.34337548908E-01  0.13321014979E+00  0.20004914570E-01 0.  0.
         14    1    1    2    0    0 -0.15307486027E-01 -0.14527889582E-01  0.84215343270E-02  0.22722256591E-01  0.00000000000E+00 0.  1.
     999901    1    3    3    0    0 -0.62070869531E-02 -0.11078293710E+00 -0.42759083235E-01  0.88799759362E+00  0.88000000000E+00 0.  1.
        -11    1    4    4    0    0  0.12954974081E-01  0.83898841836E-01  0.13143351978E-01  0.85906087311E-01  0.51100000000E-03 0.  1.
         11    1    4    4    0    0  0.85595988988E-02  0.41411984846E-01  0.21194196930E-01  0.47304062476E-01  0.51100000000E-03 0. -1.
</event>
<event>
 8    1  0.1042301E+005  0.1043930E+01  0.7957747E-01            NaN
         13   -1    0    0    0    0  0.00000000000E+00  0.00000000000E+00  0.74505805969E-08  0.10566000000E+00  0.10566000000E+00 0. -1.
     999900   -1    0    0    0    0 -0.00000000000E+00 -0.00000000000E+00 -0.74505805969E-08  0.93827000000E+00  0.93827000000E+00 0.  1.
     999902    2    1    2    0    0  0.13170215224E-01  0.69618851427E-02  0.19467601501E-01  0.10194165359E+01  0.10191217610E+01 0.  0.
     999903    2    3    3    0    0  0.86090633917E-01  0.34070648539E-01  0.93303856546E-01  0.13290423194E+00  0.19634634752E-01 0.  0.
         14    1    1    2    0    0 -0.13170215224E-01 -0.69618851427E-02 -0.19467601501E-01  0.24513464096E-01  0.00000000000E+00 0.  1.
     999901    1    3    3    0    0 -0.72920418693E-01 -0.27108763396E-01 -0.73836255045E-01  0.88651230396E+00  0.88000000000E+00 0.  1.
        -11    1    4    4    0    0  0.37041553021E-01  0.20482498274E-01  0.53899582285E-01  0.68534921589E-01  0.51100000000E-03 0.  1.
         11    1    4    4    0    0  0.49049080896E-01  0.13588150265E-01  0.39404274262E-01  0.64369310354E-01  0.51100000000E-03 0. -1.
</event>
<event>
 8    1  0.1042301E+005  0.1043930E+01  0.7957747E-01            NaN
         13   -1    0    0    0    0  0.00000000000E+00  0.00000000000E+00  0.74505805969E-08  0.10566000000E+00  0.10566000000E+00 0.  1.
     999900   -1    0    0    0    0 -0.00000000000E+00 -0.00000000000E+00 -0.74505805969E-08  0.93827000000E+00  0.93827000000E+00 0. -1.
     999902    2    1    2    0    0 -0.93562415305E-02 -0.11041768582E-01 -0.18881623170E-01  0.10201397582E+01  0.10198623195E+01 0.  0.
     999903    2    3    3    0    0  0.49343365212E-01  0.98011567929E-01 -0.66874677441E-01  0.13017256375E+00  0.20775917086E-01 0.  0.
         14    1    1    2    0    0  0.93562415305E-02  0.11041768582E-01  0.18881623170E-01  0.23790241750E-01  0.00000000000E+00 0.  1.
     999901    1    3    3    0    0 -0.58699606743E-01 -0.10905333651E+00  0.47993054271E-01  0.88996719450E+00  0.88000000000E+00 0.  1.
        -11    1    4    4    0    0  0.28933832420E-01  0.62133021043E-01 -0.29994807263E-01  0.74817301116E-01  0.51100000000E-03 0.  1.
         11    1    4    4    0    0  0.20409532792E-01  0.35878546885E-01 -0.36879870178E-01  0.55355262629E-01  0.51100000000E-03 0. -1.
</event>
<event>
 8    1  0.1042301E+005  0.1043930E+01  0.7957747E-01            NaN
         13   -1    0    0    0    0  0.00000000000E+00  0.00000000000E+00  0.74505805969E-08  0.10566000000E+00  0.10566000000E+00 0.  1.
     999900   -1    0    0    0    0 -0.00000000000E+00 -0.00000000000E+00 -0.74505805969E-08  0.93827000000E+00  0.93827000000E+00 0.  1.
     999902    2    1    2    0    0 -0.16400248272E-01 -0.16703838149E-01  0.35266905565E-03  0.10205182353E+01  0.10202496546E+01 0.  0.
     999903    2    3    3    0    0  0.63659191969E-01 -0.45019734578E-01  0.10264006261E+00  0.13053283379E+00  0.20605072696E-01 0.  0.
         14    1    1    2    0    0  0.16400248272E-01  0.16703838149E-01 -0.35266905565E-03  0.23411764729E-01  0.00000000000E+00 0.  1.
     999901    1    3    3    0    0 -0.80059440241E-01  0.28315896430E-01 -0.10228739356E+00  0.88998540148E+00  0.88000000000E+00 0.  1.
        -11    1    4    4    0    0  0.24728271389E-01 -0.22224185312E-01  0.59218652594E-01  0.67915475075E-01  0.51100000000E-03 0.  1.
         11    1    4    4    0    0  0.38930920580E-01 -0.22795549266E-01  0.43421410021E-01  0.62617358717E-01  0.51100000000E-03 0. -1.
</event>
<event>
 8    1  0.1042301E+005  0.1043930E+01  0.7957747E-01            NaN
         13   -1    0    0    0    0  0.00000000000E+00  0.00000000000E+00  0.74505805969E-08  0.10566000000E+00  0.10566000000E+00 0.  1.
     999900   -1    0    0    0    0 -0.00000000000E+00 -0.00000000000E+00 -0.74505805969E-08  0.93827000000E+00  0.93827000000E+00 0.  1.
     999902    2    1    2    0    0  0.13724551384E-01  0.17582244555E-01 -0.51246609203E-02  0.10210441794E+01  0.10207876643E+01 0.  0.
     999903    2    3    3    0    0 -0.36605560813E-01 -0.11212836495E+00 -0.48266063494E-01  0.12906932381E+00  0.20409315383E-01 0.  0.
         14    1    1    2    0    0 -0.13724551384E-01 -0.17582244555E-01  0.51246609203E-02  0.22885820585E-01  0.00000000000E+00 0.  1.
     999901    1    3    3    0    0  0.50330112197E-01  0.12971060951E+00  0.43141402574E-01  0.89197485560E+00  0.88000000000E+00 0. -1.
        -11    1    4    4    0    0 -0.19033637367E-01 -0.78124667963E-01 -0.24707711550E-01  0.84121788062E-01  0.51100000000E-03 0.  1.
         11    1    4    4    0    0 -0.17571923447E-01 -0.34003696991E-01 -0.23558351944E-01  0.44947535750E-01  0.51100000000E-03 0. -1.
</event>
<event>
 8    1  0.1042301E+005  0.1043930E+01  0.7957747E-01            NaN
         13   -1    0    0    0    0  0.00000000000E+00  0.00000000000E+00  0.74505805969E-08  0.10566000000E+00  0.10566000000E+00 0.  1.
     999900   -1    0    0    0    0 -0.00000000000E+00 -0.00000000000E+00 -0.74505805969E-08  0.93827000000E+00  0.93827000000E+00 0. -1.
     999902    2    1    2    0    0 -0.18063141133E-01  0.13395655679E-01  0.26342997294E-02  0.10212879993E+01  0.10210369814E+01 0.  0.
     999903    2    3    3    0    0 -0.12450665750E+00 -0.34834898231E-01 -0.23196897038E-01  0.13318684563E+00  0.22028661331E-01 0.  0.
         14    1    1    2    0    0  0.18063141133E-01 -0.13395655679E-01 -0.26342997294E-02  0.22642000656E-01  0.00000000000E+00 0. -1.
     999901    1    3    3    0    0  0.10644351636E+00  0.48230553910E-01  0.25831196767E-01  0.88810115372E+00  0.88000000000E+00 0.  1.
        -11    1    4    4    0    0 -0.51987335291E-01 -0.22473024945E-01 -0.18025215546E-01  0.59438114012E-01  0.51100000000E-03 0.  1.
         11    1    4    4    0    0 -0.72519322206E-01 -0.12361873286E-01 -0.51716814918E-02  0.73748731615E-01  0.51100000000E-03 0. -1.
</event>
<event>
 8    1  0.1042301E+005  0.1043930E+01  0.7957747E-01            NaN
         13   -1    0    0    0    0  0.00000000000E+00  0.00000000000E+00  0.74505805969E-08  0.10566000000E+00  0.10566000000E+00 0.  1.
     999900   -1    0    0    0    0 -0.00000000000E+00 -0.00000000000E+00 -0.74505805969E-08  0.93827000000E+00  0.93827000000E+00 0. -1.
     999902    2    1    2    0    0  0.28901433478E-01 -0.51837295264E-02  0.51831591380E-02  0.10141134099E+01  0.10136749869E+01 0.  0.
     999903    2    3    3    0    0 -0.27357582608E-01 -0.98389120238E-01  0.69854415803E-01  0.12504946774E+00  0.18134874316E-01 0.  0.
         14    1    1    2    0    0 -0.28901433478E-01  0.51837295264E-02 -0.51831591380E-02  0.29816590139E-01  0.00000000000E+00 0.  1.
     999901    1    3    3    0    0  0.56259016086E-01  0.93205390712E-01 -0.64671256665E-01  0.88906394213E+00  0.88000000000E+00 0.  1.
        -11    1    4    4    0    0 -0.12391656607E-01 -0.32080253525E-01  0.33266069813E-01  0.47849643066E-01  0.51100000000E-03 0. -1.
         11    1    4    4    0    0 -0.14965926001E-01 -0.66308866712E-01  0.36588345990E-01  0.77199824670E-01  0.51100000000E-03 0.  1.
</event>
<event>
 8    1  0.1042301E+005  0.1043930E+01  0.7957747E-01            NaN
         13   -1    0    0    0    0  0.00000000000E+00  0.00000000000E+00  0.74505805969E-08  0.10566000000E+00  0.10566000000E+00 0.  1.
     999900   -1    0    0    0    0 -0.00000000000E+00 -0.00000000000E+00 -0.74505805969E-08  0.93827000000E+00  0.93827000000E+00 0.  1.
     999902    2    1    2    0    0 -0.13305540690E-01  0.14910156792E-01  0.12926979864E-01  0.10201296429E+01  0.10198519654E+01 0.  0.
     999903    2    3    3    0    0  0.54973850780E-01 -0.11360602056E+00 -0.89683306486E-02  0.12790888113E+00  0.18756298693E-01 0.  0.
         14    1    1    2    0    0  0.13305540690E-01 -0.14910156792E-01 -0.12926979864E-01  0.23800357078E-01  0.00000000000E+00 0. -1.
     999901    1    3    3    0    0 -0.68279391471E-01  0.12851617736E+00  0.21895310512E-01  0.89222076179E+00  0.88000000000E+00 0.  1.
        -11    1    4    4    0    0  0.17965041897E-01 -0.24628443636E-01  0.36946432731E-02  0.30711797020E-01  0.51100000000E-03 0. -1.
         11    1    4    4    0    0  0.37008808883E-01 -0.88977576927E-01 -0.12662973922E-01  0.97197084114E-01  0.51100000000E-03 0.  1.
</event>
<event>
 8    1  0.1042301E+005  0.1043930E+01  0.7957747E-01            NaN
         13   -1    0    0    0    0  0.00000000000E+00  0.00000000000E+00  0.74505805969E-08  0.10566000000E+00  0.10566000000E+00 0. -1.
     999900   -1    0    0    0    0 -0.00000000000E+00 -0.00000000000E+00 -0.74505805969E-08  0.93827000000E+00  0.93827000000E+00 0. -1.
     999902    2    1    2    0    0 -0.35214107577E-02  0.34041636678E-02  0.76205965456E-02  0.10348711835E+01  0.10348315343E+01 0.  0.
     999903    2    3    3    0    0  0.11112740545E+00 -0.17080274572E-01  0.86996996344E-01  0.14365595919E+00  0.20676586199E-01 0.  0.
         14    1    1    2    0    0  0.35214107577E-02 -0.34041636678E-02 -0.76205965456E-02  0.90588164631E-02  0.00000000000E+00 0. -1.
     999901    1    3    3    0    0 -0.11464881620E+00  0.20484438240E-01 -0.79376399798E-01  0.89121522435E+00  0.88000000000E+00 0. -1.
        -11    1    4    4    0    0  0.70273492061E-01 -0.84947837653E-03  0.56026389549E-01  0.89879378874E-01  0.51100000000E-03 0.  1.
         11    1    4    4    0    0  0.40853913385E-01 -0.16230796196E-01  0.30970606794E-01  0.53776580313E-01  0.51100000000E-03 0. -1.
</event>
<event>
 8    1  0.1042301E+005  0.1043930E+01  0.7957747E-01            NaN
         13   -1    0    0    0    0  0.00000000000E+00  0.00000000000E+00  0.74505805969E-08  0.10566000000E+00  0.10566000000E+00 0. -1.
     999900   -1    0    0    0    0 -0.00000000000E+00 -0.00000000000E+00 -0.74505805969E-08  0.93827000000E+00  0.93827000000E+00 0. -1.
     999902    2    1    2    0    0  0.11395983437E-01  0.18674244674E-01  0.13431590610E-02  0.10220119725E+01  0.10217769189E+01 0.  0.
     999903    2    3    3    0    0 -0.10887408525E-01 -0.11988979470E+00 -0.44154078553E-01  0.12973032348E+00  0.19704711136E-01 0.  0.
         14    1    1    2    0    0 -0.11395983437E-01 -0.18674244674E-01 -0.13431590610E-02  0.21918027486E-01  0.00000000000E+00 0.  1.
     999901    1    3    3    0    0  0.22283391962E-01  0.13856403937E+00  0.45497237614E-01  0.89228164903E+00  0.88000000000E+00 0. -1.
        -11    1    4    4    0    0  0.19648003621E-02 -0.12699863019E-01  0.57098053680E-03  0.12873775706E-01  0.51100000000E-03 0.  1.
         11    1    4    4    0    0 -0.12852208887E-01 -0.10718993168E+00 -0.44725059090E-01  0.11685654778E+00  0.51100000000E-03 0. -1.
</event>
<event>
 8    1  0.1042301E+005  0.1043930E+01  0.7957747E-01            NaN
         13   -1    0    0    0    0  0.00000000000E+00  0.00000000000E+00  0.74505805969E-08  0.10566000000E+00  0.10566000000E+00 0. -1.
     999900   -1    0    0    0    0 -0.00000000000E+00 -0.00000000000E+00 -0.74505805969E-08  0.93827000000E+00  0.93827000000E+00 0. -1.
     999902    2    1    2    0    0 -0.58301281561E-02  0.21982142753E-01  0.51447011739E-02  0.10206132047E+01  0.10203468237E+01 0.  0.
     999903    2    3    3    0    0  0.71909417423E-01 -0.37729196022E-01 -0.98377499188E-01  0.12913929765E+00  0.20108935944E-01 0.  0.
         14    1    1    2    0    0  0.58301281561E-02 -0.21982142753E-01 -0.51447011739E-02  0.23316795331E-01  0.00000000000E+00 0.  1.
     999901    1    3    3    0    0 -0.77739545579E-01  0.59711338775E-01  0.10352220036E+00  0.89147390702E+00  0.88000000000E+00 0.  1.
        -11    1    4    4    0    0  0.27643018182E-01 -0.21241639800E-01 -0.54297413252E-01  0.64527621392E-01  0.51100000000E-03 0.  1.
         11    1    4    4    0    0  0.44266399242E-01 -0.16487556222E-01 -0.44080085936E-01  0.64611676260E-01  0.51100000000E-03 0. -1.
</event>
<event>
 8    1  0.1042301E+005  0.1043930E+01  0.7957747E-01            NaN
         13   -1    0    0    0    0  0.00000000000E+00  0.00000000000E+00  0.74505805969E-08  0.10566000000E+00  0.10566000000E+00 0.  1.
     999900   -1    0    0    0    0 -0.00000000000E+00 -0.00000000000E+00 -0.74505805969E-08  0.93827000000E+00  0.93827000000E+00 0. -1.
     999902    2    1    2    0    0  0.12643773922E-01 -0.17318026133E-01  0.86062826250E-02  0.10208248675E+01  0.10205633557E+01 0.  0.
     999903    2    3    3    0    0 -0.34378671079E-02  0.57689952337E-01 -0.11352202900E+00  0.12908491631E+00  0.20873787853E-01 0.  0.
         14    1    1    2    0    0 -0.12643773922E-01  0.17318026133E-01 -0.86062826250E-02  0.23105132520E-01  0.00000000000E+00 0. -1.
     999901    1    3    3    0    0  0.16081641030E-01 -0.75007978470E-01  0.12212831163E+00  0.89173995117E+00  0.88000000000E+00 0.  1.
        -11    1    4    4    0    0  0.85047335709E-02  0.21220806002E-01 -0.47526119246E-01  0.52741314281E-01  0.51100000000E-03 0.  1.
         11    1    4    4    0    0 -0.11942600679E-01  0.36469146334E-01 -0.65995909755E-01  0.76343602029E-01  0.51100000000E-03 0. -1.
</event>
<event>
 8    1  0.1042301E+005  0.1043930E+01  0.7957747E-01            NaN
         13   -1    0    0    0    0  0.00000000000E+00  0.00000000000E+00  0.74505805969E-08  0.10566000000E+00  0.10566000000E+00 0.  1.
     999900   -1    0    0    0    0 -0.00000000000E+00 -0.00000000000E+00 -0.74505805969E-08  0.93827000000E+00  0.93827000000E+00 0. -1.
     999902    2    1    2    0    0 -0.11866916494E-02  0.92404282608E-02 -0.21482445590E-01  0.10205144236E+01  0.10202457544E+01 0.  0.
     999903    2    3    3    0    0 -0.89851213119E-02  0.12414166182E+00  0.36252415739E-01  0.13113462663E+00  0.19752671959E-01 0.  0.
         14    1    1    2    0    0  0.11866916494E-02 -0.92404282608E-02  0.21482445590E-01  0.23415576440E-01  0.00000000000E+00 0.  1.
     999901    1    3    3    0    0  0.77984296625E-02 -0.11490123356E+00 -0.57734861329E-01  0.88937979693E+00  0.88000000000E+00 0. -1.
        -11    1    4    4    0    0 -0.34602184699E-02  0.90090571130E-02  0.77728648758E-02  0.12402208324E-01  0.51100000000E-03 0.  1.
         11    1    4    4    0    0 -0.55249028420E-02  0.11513260471E+00  0.28479550863E-01  0.11873241830E+00  0.51100000000E-03 0. -1.
</event>
<event>
 7    1  0.1042301E+005  0.1043930E+01  0.7957747E-01            NaN
         13   -1    0    0    0    0  0.00000000000E+00  0.00000000000E+00  0.74505805969E-08  0.10566000000E+00  0.10566000000E+00 0. -1.
     999900   -1    0    0    0    0 -0.00000000000E+00 -0.00000000000E+00 -0.74505805969E-08  0.93827000000E+00  0.93827000000E+00 0. -1.
     999903    2    1    2    0    0  0.66603449928E-01 -0.42129097588E-01  0.38215478226E-01  0.91609290982E-01  0.26850679921E-01 0.  0.
         14    1    1    2    0    0 -0.13760449301E-01  0.64985995785E-01 -0.23038798314E-01  0.70308718100E-01  0.00000000000E+00 0.  1.
     999901    1    1    2    0    0 -0.52843000627E-01 -0.22856898197E-01 -0.15176679912E-01  0.88201199092E+00  0.88000000000E+00 0.  1.
        -11    1    3    3    0    0  0.66923977831E-01 -0.34285422819E-01  0.32686012162E-01  0.81993570105E-01  0.51100000000E-03 0.  1.
         11    1    3    3    0    0 -0.32052790260E-03 -0.78436747692E-02  0.55294660638E-02  0.96157208764E-02  0.51100000000E-03 0. -1.
</event>
<event>
 8    1  0.1042301E+005  0.1043930E+01  0.7957747E-01            NaN
         13   -1    0    0    0    0  0.00000000000E+00  0.00000000000E+00  0.74505805969E-08  0.10566000000E+00  0.10566000000E+00 0. -1.
     999900   -1    0    0    0    0 -0.00000000000E+00 -0.00000000000E+00 -0.74505805969E-08  0.93827000000E+00  0.93827000000E+00 0.  1.
     999902    2    1    2    0    0  0.10443354536E-01  0.27395773710E-01 -0.64550973638E-02  0.10139090015E+01  0.10134644557E+01 0.  0.
     999903    2    3    3    0    0  0.65963190335E-01  0.95775015748E-01 -0.50873420556E-01  0.12839719446E+00  0.19332317642E-01 0.  0.
         14    1    1    2    0    0 -0.10443354536E-01 -0.27395773710E-01  0.64550973638E-02  0.30020998536E-01  0.00000000000E+00 0.  1.
     999901    1    3    3    0    0 -0.55519835799E-01 -0.68379242038E-01  0.44418323193E-01  0.88551180700E+00  0.88000000000E+00 0. -1.
        -11    1    4    4    0    0  0.36326183574E-01  0.36804467761E-01 -0.25807709721E-01  0.57796708057E-01  0.51100000000E-03 0.  1.
         11    1    4    4    0    0  0.29637006761E-01  0.58970547986E-01 -0.25065710836E-01  0.70600486402E-01  0.51100000000E-03 0. -1.
</event>
<event>
 8    1  0.1042301E+005  0.1043930E+01  0.7957747E-01            NaN
         13   -1    0    0    0    0  0.00000000000E+00  0.00000000000E+00  0.74505805969E-08  0.10566000000E+00  0.10566000000E+00 0.  1.
     999900   -1    0    0    0    0 -0.00000000000E+00 -0.00000000000E+00 -0.74505805969E-08  0.93827000000E+00  0.93827000000E+00 0.  1.
     999902    2    1    2    0    0 -0.46086892694E-02 -0.78211495691E-02  0.65526118731E-02  0.10327341472E+01  0.10326734584E+01 0.  0.
     999903    2    3    3    0    0  0.12014313876E-01  0.13805423595E-01  0.13966678135E+00  0.14230536566E+00  0.20225573515E-01 0.  0.
         14    1    1    2    0    0  0.46086892694E-02  0.78211495691E-02 -0.65526118731E-02  0.11195852791E-01  0.00000000000E+00 0.  1.
     999901    1    3    3    0    0 -0.16623003145E-01 -0.21626573164E-01 -0.13311416948E+00  0.89042878155E+00  0.88000000000E+00 0.  1.
        -11    1    4    4    0    0  0.13805216823E-01  0.65670533818E-02  0.49022138913E-01  0.51353105322E-01  0.51100000000E-03 0. -1.
         11    1    4    4    0    0 -0.17909029473E-02  0.72383702133E-02  0.90644642436E-01  0.90952260335E-01  0.51100000000E-03 0.  1.
</event>
<event>
 8    1  0.1042301E+005  0.1043930E+01  0.7957747E-01            NaN
         13   -1    0    0    0    0  0.00000000000E+00  0.00000000000E+00  0.74505805969E-08  0.10566000000E+00  0.10566000000E+00 0. -1.
     999900   -1    0    0    0    0 -0.00000000000E+00 -0.00000000000E+00 -0.74505805969E-08  0.93827000000E+00  0.93827000000E+00 0.  1.
     999902    2    1    2    0    0 -0.14625552976E-01 -0.81000266886E-02  0.14413315223E-01  0.10218560133E+01  0.10216175660E+01 0.  0.
     999903    2    3    3    0    0  0.63264620800E-01 -0.28596243640E-01  0.11163396062E+00  0.13284598640E+00  0.19124788711E-01 0.  0.
         14    1    1    2    0    0  0.14625552976E-01  0.81000266886E-02 -0.14413315223E-01  0.22073986680E-01  0.00000000000E+00 0.  1.
     999901    1    3    3    0    0 -0.77890173776E-01  0.20496216952E-01 -0.97220645394E-01  0.88901002692E+00  0.88000000000E+00 0.  1.
        -11    1    4    4    0    0  0.16581817465E-01 -0.70709700861E-02  0.46457064471E-01  0.49834478513E-01  0.51100000000E-03 0.  1.
         11    1    4    4    0    0  0.46682803336E-01 -0.21525273554E-01  0.65176896147E-01  0.83011507884E-01  0.51100000000E-03 0. -1.
</event>
<event>
 8    1  0.1042301E+005  0.1043930E+01  0.7957747E-01            NaN
         13   -1    0    0    0    0  0.00000000000E+00  0.00000000000E+00  0.74505805969E-08  0.10566000000E+00  0.10566000000E+00 0.  1.
     999900   -1    0    0    0    0 -0.00000000000E+00 -0.00000000000E+00 -0.74505805969E-08  0.93827000000E+00  0.93827000000E+00 0. -1.
     999902    2    1    2    0    0  0.31597302662E-02  0.87818472881E-02  0.21811347715E-01  0.10202057587E+01  0.10199298752E+01 0.  0.
     999903    2    3    3    0    0 -0.26328665285E-01 -0.59854598823E-01 -0.10768537371E+00  0.12759726215E+00  0.20227456165E-01 0.  0.
         14    1    1    2    0    0 -0.31597302662E-02 -0.87818472881E-02 -0.21811347715E-01  0.23724241321E-01  0.00000000000E+00 0. -1.
     999901    1    3    3    0    0  0.29488395551E-01  0.68636446111E-01  0.12949672142E+00  0.89260849652E+00  0.88000000000E+00 0.  1.
        -11    1    4    4    0    0 -0.11537763406E-01 -0.39516928609E-01 -0.81383421294E-01  0.91204331112E-01  0.51100000000E-03 0. -1.
         11    1    4    4    0    0 -0.14790901878E-01 -0.20337670214E-01 -0.26301952414E-01  0.36392931043E-01  0.51100000000E-03 0.  1.
</event>
<event>
 8    1  0.1042301E+005  0.1043930E+01  0.7957747E-01            NaN
         13   -1    0    0    0    0  0.00000000000E+00  0.00000000000E+00  0.74505805969E-08  0.10566000000E+00  0.10566000000E+00 0.  1.
     999900   -1    0    0    0    0 -0.00000000000E+00 -0.00000000000E+00 -0.74505805969E-08  0.93827000000E+00  0.93827000000E+00 0. -1.
     999902    2    1    2    0    0  0.16600736138E-01 -0.75187021978E-02 -0.15017561762E-01  0.10203155450E+01  0.10200422388E+01 0.  0.
     999903    2    3    3    0    0  0.52200666365E-01 -0.16655452115E-01  0.11580710748E+00  0.12988535162E+00  0.21368312221E-01 0.  0.
         14    1    1    2    0    0 -0.16600736138E-01  0.75187021978E-02  0.15017561762E-01  0.23614454987E-01  0.00000000000E+00 0.  1.
     999901    1    3    3    0    0 -0.35599930227E-01  0.91367499172E-02 -0.13082466924E+00  0.89043019340E+00  0.88000000000E+00 0. -1.
        -11    1    4    4    0    0  0.64868302782E-02  0.47232146099E-02  0.20911416579E-01  0.22403932415E-01  0.51100000000E-03 0. -1.
         11    1    4    4    0    0  0.45713836087E-01 -0.21378666725E-01  0.94895690901E-01  0.10748141920E+00  0.51100000000E-03 0.  1.
</event>
<event>
 8    1  0.1042301E+005  0.1043930E+01  0.7957747E-01            NaN
         13   -1    0    0    0    0  0.00000000000E+00  0.00000000000E+00  0.74505805969E-08  0.10566000000E+00  0.10566000000E+00 0. -1.
     999900   -1    0    0    0    0 -0.00000000000E+00 -0.00000000000E+00 -0.74505805969E-08  0.93827000000E+00  0.93827000000E+00 0. -1.
     999902    2    1    2    0    0 -0.80184852891E-02  0.70013509026E-02 -0.20962485890E-01  0.10204195590E+01  0.10201486831E+01 0.  0.
     999903    2    3    3    0    0  0.47996243182E-01 -0.81677922616E-01 -0.87251106973E-01  0.13171497106E+00  0.27589047311E-01 0.  0.
         14    1    1    2    0    0  0.80184852891E-02 -0.70013509026E-02  0.20962485890E-01  0.23510440988E-01  0.00000000000E+00 0. -1.
     999901    1    3    3    0    0 -0.56014728471E-01  0.88679273518E-01  0.66288621083E-01  0.88870458795E+00  0.88000000000E+00 0.  1.
        -11    1    4    4    0    0  0.31443425087E-03 -0.89541904815E-02 -0.19531993191E-01  0.21495029079E-01  0.51100000000E-03 0.  1.
         11    1    4    4    0    0  0.47681808931E-01 -0.72723732134E-01 -0.67719113781E-01  0.11021994198E+00  0.51100000000E-03 0. -1.
</event>
<event>
 8    1  0.1042301E+005  0.1043930E+01  0.7957747E-01            NaN
         13   -1    0    0    0    0  0.00000000000E+00  0.00000000000E+00  0.74505805969E-08  0.10566000000E+00  0.10566000000E+00 0.  1.
     999900   -1    0    0    0    0 -0.00000000000E+00 -0.00000000000E+00 -0.74505805969E-08  0.93827000000E+00  0.93827000000E+00 0.  1.
     999902    2    1    2    0    0  0.13122063377E-01  0.17835396209E-01 -0.84700866989E-02  0.10202227801E+01  0.10199472971E+01 0.  0.
     999903    2    3    3    0    0  0.12836004214E-02 -0.12522607462E+00 -0.20559454994E-01  0.12850932477E+00  0.20217269110E-01 0.  0.
         14    1    1    2    0    0 -0.13122063377E-01 -0.17835396209E-01  0.84700866989E-02  0.23707219868E-01  0.00000000000E+00 0.  1.
     999901    1    3    3    0    0  0.11838462955E-01  0.14306147083E+00  0.12089368295E-01  0.89171345536E+00  0.88000000000E+00 0. -1.
        -11    1    4    4    0    0 -0.36847028486E-02 -0.54944323149E-01  0.14849988174E-03  0.55070308285E-01  0.51100000000E-03 0.  1.
         11    1    4    4    0    0  0.49683032699E-02 -0.70281751468E-01 -0.20707954875E-01  0.73439016489E-01  0.51100000000E-03 0. -1.
</event>
<event>
 8    1  0.1042301E+005  0.1043930E+01  0.7957747E-01            NaN
         13   -1    0    0    0    0  0.00000000000E+00  0.00000000000E+00  0.74505805969E-08  0.10566000000E+00  0.10566000000E+00 0. -1.
     999900   -1    0    0    0    0 -0.00000000000E+00 -0.00000000000E+00 -0.74505805969E-08  0.93827000000E+00  0.93827000000E+00 0.  1.
     999902    2    1    2    0    0 -0.98982417724E-02 -0.21531487745E-01  0.43022789640E-02  0.10198449474E+01  0.10195605068E+01 0.  0.
     999903    2    3    3    0    0  0.86403781497E-01  0.15064856427E-01  0.92726916452E-01  0.12943364434E+00  0.21499392931E-01 0.  0.
         14    1    1    2    0    0  0.98982417724E-02  0.21531487745E-01 -0.43022789640E-02  0.24085052605E-01  0.00000000000E+00 0.  1.
     999901    1    3    3    0    0 -0.96302023270E-01 -0.36596344171E-01 -0.88424637488E-01  0.89041130305E+00  0.88000000000E+00 0.  1.
        -11    1    4    4    0    0  0.26315991924E-01 -0.41328543740E-02  0.34465601856E-01  0.43563181111E-01  0.51100000000E-03 0.  1.
         11    1    4    4    0    0  0.60087789573E-01  0.19197710801E-01  0.58261314596E-01  0.85870463230E-01  0.51100000000E-03 0. -1.
</event>
<event>
 8    1  0.1042301E+005  0.1043930E+01  0.7957747E-01            NaN
         13   -1    0    0    0    0  0.00000000000E+00  0.00000000000E+00  0.74505805969E-08  0.10566000000E+00  0.10566000000E+00 0.  1.
     999900   -1    0    0    0    0 -0.00000000000E+00 -0.00000000000E+00 -0.74505805969E-08  0.93827000000E+00  0.93827000000E+00 0. -1.
     999902    2    1    2    0    0  0.15836445658E-01 -0.50787414214E-03 -0.17899716432E-01  0.10200249630E+01  0.10197448084E+01 0.  0.
     999903    2    3    3    0    0  0.15726050935E-01  0.12106055085E+00 -0.43983198225E-01  0.13128470723E+00  0.19954622936E-01 0.  0.
         14    1    1    2    0    0 -0.15836445658E-01  0.50787414214E-03  0.17899716432E-01  0.23905037033E-01  0.00000000000E+00 0. -1.
     999901    1    3    3    0    0  0.11039472284E-03 -0.12156842499E+00  0.26083481793E-01  0.88874025574E+00  0.88000000000E+00 0. -1.
        -11    1    4    4    0    0  0.22064310595E-02  0.12144280589E-01  0.15706517801E-02  0.12453110337E-01  0.51100000000E-03 0. -1.
         11    1    4    4    0    0  0.13519619876E-01  0.10891627026E+00 -0.45553850005E-01  0.11883159689E+00  0.51100000000E-03 0.  1.
</event>
<event>
 8    1  0.1042301E+005  0.1043930E+01  0.7957747E-01            NaN
         13   -1    0    0    0    0  0.00000000000E+00  0.00000000000E+00  0.74505805969E-08  0.10566000000E+00  0.10566000000E+00 0.  1.
     999900   -1    0    0    0    0 -0.00000000000E+00 -0.00000000000E+00 -0.74505805969E-08  0.93827000000E+00  0.93827000000E+00 0. -1.
     999902    2    1    2    0    0  0.10735062759E-01  0.92039487080E-02  0.19423522903E-01  0.10199044410E+01  0.10196214206E+01 0.  0.
     999903    2    3    3    0    0 -0.44744052727E-02 -0.12691208472E+00 -0.91176276107E-02  0.12885253467E+00  0.19827935019E-01 0.  0.
         14    1    1    2    0    0 -0.10735062759E-01 -0.92039487080E-02 -0.19423522903E-01  0.24025559020E-01  0.00000000000E+00 0. -1.
     999901    1    3    3    0    0  0.15209468031E-01  0.13611603342E+00  0.28541150513E-01  0.89105190631E+00  0.88000000000E+00 0. -1.
        -11    1    4    4    0    0 -0.10654280255E-01 -0.53306716149E-01  0.47983815339E-03  0.54365531727E-01  0.51100000000E-03 0.  1.
         11    1    4    4    0    0  0.61798749828E-02 -0.73605368568E-01 -0.95974657641E-02  0.74487002940E-01  0.51100000000E-03 0. -1.
</event>
<event>
 8    1  0.1042301E+005  0.1043930E+01  0.7957747E-01            NaN
         13   -1    0    0    0    0  0.00000000000E+00  0.00000000000E+00  0.74505805969E-08  0.10566000000E+00  0.10566000000E+00 0.  1.
     999900   -1    0    0    0    0 -0.00000000000E+00 -0.00000000000E+00 -0.74505805969E-08  0.93827000000E+00  0.93827000000E+00 0.  1.
     999902    2    1    2    0    0 -0.16799213370E-02 -0.10411080585E-01  0.27234233259E-01  0.10147252710E+01  0.10143049144E+01 0.  0.
     999903    2    3    3    0    0 -0.64741635799E-02 -0.12366400173E+00  0.22697877276E-01  0.12744302310E+00  0.19794706010E-01 0.  0.
         14    1    1    2    0    0  0.16799213370E-02  0.10411080585E-01 -0.27234233259E-01  0.29204728999E-01  0.00000000000E+00 0. -1.
     999901    1    3    3    0    0  0.47942422429E-02  0.11325292115E+00  0.45363559840E-02  0.88728224790E+00  0.88000000000E+00 0.  1.
        -11    1    4    4    0    0 -0.12119151435E-01 -0.87948717005E-01  0.21053405950E-01  0.91243397993E-01  0.51100000000E-03 0.  1.
         11    1    4    4    0    0  0.56449878547E-02 -0.35715284730E-01  0.16444713251E-02  0.36199625111E-01  0.51100000000E-03 0. -1.
</event>
<event>
 8    1  0.1042301E+005  0.1043930E+01  0.7957747E-01            NaN
         13   -1    0    0    0    0  0.00000000000E+00  0.00000000000E+00  0.74505805969E-08  0.10566000000E+00  0.10566000000E+00 0.  1.
     999900   -1    0    0    0    0 -0.00000000000E+00 -0.00000000000E+00 -0.74505805969E-08  0.93827000000E+00  0.93827000000E+00 0.  1.
     999902    2    1    2    0    0 -0.15136704821E-01 -0.17090364850E-01 -0.27398615016E-02  0.10209363651E+01  0.10206773998E+01 0.  0.
     999903    2    3    3    0    0  0.31675744400E-01  0.51185628249E-01 -0.11364617629E+00  0.13012031942E+00  0.19812188633E-01 0.  0.
         14    1    1    2    0    0  0.15136704821E-01  0.17090364850E-01  0.27398615016E-02  0.22993634871E-01  0.00000000000E+00 0.  1.
     999901    1    3    3    0    0 -0.46812449221E-01 -0.68275993100E-01  0.11090631479E+00  0.89081604571E+00  0.88000000000E+00 0. -1.
        -11    1    4    4    0    0  0.26119245533E-01  0.30075373334E-01 -0.58188122980E-01  0.70518521293E-01  0.51100000000E-03 0. -1.
         11    1    4    4    0    0  0.55564988668E-02  0.21110254916E-01 -0.55458053307E-01  0.59601798126E-01  0.51100000000E-03 0.  1.
</event>
<event>
 8    1  0.1042301E+005  0.1043930E+01  0.7957747E-01            NaN
         13   -1    0    0    0    0  0.00000000000E+00  0.00000000000E+00  0.74505805969E-08  0.10566000000E+00  0.10566000000E+00 0. -1.
     999900   -1    0    0    0    0 -0.00000000000E+00 -0.00000000000E+00 -0.74505805969E-08  0.93827000000E+00  0.93827000000E+00 0.  1.
     999902    2    1    2    0    0 -0.40589621402E-02  0.18500140426E-01 -0.14064186923E-01  0.10203390754E+01  0.10200663199E+01 0.  0.
     999903    2    3    3    0    0  0.12956119745E+00  0.24116836131E-02 -0.15301276952E-02  0.13001874646E+00  0.10517273376E-01 0.  0.
         14    1    1    2    0    0  0.40589621402E-02 -0.18500140426E-01  0.14064186923E-01  0.23590924595E-01  0.00000000000E+00 0. -1.
     999901    1    3    3    0    0 -0.13362015959E+00  0.16088456813E-01 -0.12534059228E-01  0.89032032894E+00  0.88000000000E+00 0.  1.
        -11    1    4    4    0    0  0.50230433890E-01  0.56538085738E-02  0.13447181939E-02  0.50568087053E-01  0.51100000000E-03 0.  1.
         11    1    4    4    0    0  0.79330763555E-01 -0.32421249607E-02 -0.28748458891E-02  0.79450659408E-01  0.51100000000E-03 0. -1.
</event>
<event>
 8    1  0.1042301E+005  0.1043930E+01  0.7957747E-01            NaN
         13   -1    0    0    0    0  0.00000000000E+00  0.00000000000E+00  0.74505805969E-08  0.10566000000E+00  0.10566000000E+00 0.  1.
     999900   -1    0    0    0    0 -0.00000000000E+00 -0.00000000000E+00 -0.74505805969E-08  0.93827000000E+00  0.93827000000E+00 0.  1.
     999902    2    1    2    0    0  0.12388340229E-02  0.12966025977E-01 -0.20937463741E-01  0.10192717371E+01  0.10189734266E+01 0.  0.
     999903    2    3    3    0    0 -0.71135286948E-01 -0.34450224792E-01  0.97605704937E-01  0.12711771621E+00  0.19621241052E-01 0.  0.
         14    1    1    2    0    0 -0.12388340229E-02 -0.12966025977E-01  0.20937463741E-01  0.24658262860E-01  0.00000000000E+00 0.  1.
     999901    1    3    3    0    0  0.72374120971E-01  0.47416250769E-01 -0.11854316868E+00  0.89215402093E+00  0.88000000000E+00 0.  1.
        -11    1    4    4    0    0 -0.53260469208E-01 -0.25617380418E-01  0.58180177793E-01  0.82934443801E-01  0.51100000000E-03 0. -1.
         11    1    4    4    0    0 -0.17874817741E-01 -0.88328443745E-02  0.39425527144E-01  0.44183272407E-01  0.51100000000E-03 0.  1.
</event>
<event>
 8    1  0.1042301E+005  0.1043930E+01  0.7957747E-01            NaN
         13   -1    0    0    0    0  0.00000000000E+00  0.00000000000E+00  0.74505805969E-08  0.10566000000E+00  0.10566000000E+00 0.  1.
     999900   -1    0    0    0    0 -0.00000000000E+00 -0.00000000000E+00 -0.74505805969E-08  0.93827000000E+00  0.93827000000E+00 0. -1.
     999902    2    1    2    0    0  0.96383372187E-02 -0.26260767945E-03  0.22427651402E-01  0.10195175840E+01  0.10192252636E+01 0.  0.
     999903    2    3    3    0    0  0.27707172800E-01 -0.77842406789E-01  0.10163236651E+00  0.13237695539E+00  0.19167490098E-01 0.  0.
         14    1    1    2    0    0 -0.96383372187E-02  0.26260767945E-03 -0.22427651402E-01  0.24412415992E-01  0.00000000000E+00 0. -1.
     999901    1    3    3    0    0 -0.18068835581E-01  0.77579799109E-01 -0.79204715108E-01  0.88714062862E+00  0.88000000000E+00 0. -1.
        -11    1    4    4    0    0  0.23530778357E-01 -0.73904873590E-01  0.86484249858E-01  0.11616976571E+00  0.51100000000E-03 0.  1.
         11    1    4    4    0    0  0.41763944430E-02 -0.39375331982E-02  0.15148116652E-01  0.16207189681E-01  0.51100000000E-03 0. -1.
</event>
<event>
 8    1  0.1042301E+005  0.1043930E+01  0.7957747E-01            NaN
         13   -1    0    0    0    0  0.00000000000E+00  0.00000000000E+00  0.74505805969E-08  0.10566000000E+00  0.10566000000E+00 0.  1.
     999900   -1    0    0    0    0 -0.00000000000E+00 -0.00000000000E+00 -0.74505805969E-08  0.93827000000E+00  0.93827000000E+00 0.  1.
     999902    2    1    2    0    0 -0.82988146441E-04  0.24207828891E-01 -0.22102247962E-02  0.10196213398E+01  0.10193315288E+01 0.  0.
     999903    2    3    3    0    0  0.80448963315E-01  0.72507297029E-01 -0.72258447260E-01  0.13185730173E+00  0.20873931093E-01 0.  0.
         14    1    1    2    0    0  0.82988146441E-04 -0.24207828891E-01  0.22102247962E-02  0.24308660191E-01  0.00000000000E+00 0.  1.
     999901    1    3    3    0    0 -0.80531951461E-01 -0.48299468138E-01  0.70048222464E-01  0.88776403807E+00  0.88000000000E+00 0. -1.
        -11    1    4    4    0    0  0.35088633262E-01  0.20890613562E-01 -0.34425084389E-01  0.53413270592E-01  0.51100000000E-03 0. -1.
         11    1    4    4    0    0  0.45360330053E-01  0.51616683467E-01 -0.37833362872E-01  0.78444031142E-01  0.51100000000E-03 0.  1.
</event>
<event>
 8    1  0.1042301E+005  0.1043930E+01  0.7957747E-01            NaN
         13   -1    0    0    0    0  0.00000000000E+00  0.00000000000E+00  0.74505805969E-08  0.10566000000E+00  0.10566000000E+00 0. -1.
     999900   -1    0    0    0    0 -0.00000000000E+00 -0.00000000000E+00 -0.74505805969E-08  0.93827000000E+00  0.93827000000E+00 0.  1.
     999902    2    1    2    0    0  0.33177216374E-01 -0.68055756553E-02 -0.24925879054E-02  0.10099703690E+01  0.10093992717E+01 0.  0.
     999903    2    3    3    0    0 -0.86908458496E-01  0.62019591594E-01  0.45552786228E-01  0.11785724220E+00  0.20390274780E-01 0.  0.
         14    1    1    2    0    0 -0.33177216374E-01  0.68055756553E-02  0.24925879054E-02  0.33959631046E-01  0.00000000000E+00 0.  1.
     999901    1    3    3    0    0  0.12008567487E+00 -0.68825167249E-01 -0.48045374134E-01  0.89211312676E+00  0.88000000000E+00 0. -1.
        -11    1    4    4    0    0 -0.53220233300E-01  0.31466217627E-01  0.35434489850E-01  0.71262755182E-01  0.51100000000E-03 0.  1.
         11    1    4    4    0    0 -0.33688225196E-01  0.30553373966E-01  0.10118296379E-01  0.46594487015E-01  0.51100000000E-03 0. -1.
</event>
<event>
 8    1  0.1042301E+005  0.1043930E+01  0.7957747E-01            NaN
         13   -1    0    0    0    0  0.00000000000E+00  0.00000000000E+00  0.74505805969E-08  0.10566000000E+00  0.10566000000E+00 0. -1.
     999900   -1    0    0    0    0 -0.00000000000E+00 -0.00000000000E+00 -0.74505805969E-08  0.93827000000E+00  0.93827000000E+00 0.  1.
     999902    2    1    2    0    0 -0.10724105667E-01 -0.19409401650E-01  0.88001391999E-02  0.10200726371E+01  0.10197936121E+01 0.  0.
     999903    2    3    3    0    0  0.76591321473E-01  0.17873888674E-01  0.10159971669E+00  0.13011432957E+00  0.20531193504E-01 0.  0.
         14    1    1    2    0    0  0.10724105667E-01  0.19409401650E-01 -0.88001391999E-02  0.23857362903E-01  0.00000000000E+00 0.  1.
     999901    1    3    3    0    0 -0.87315427140E-01 -0.37283290324E-01 -0.92799577490E-01  0.88995830753E+00  0.88000000000E+00 0.  1.
        -11    1    4    4    0    0  0.49598494441E-01  0.20395650878E-01  0.60190654474E-01  0.80617425117E-01  0.51100000000E-03 0. -1.
         11    1    4    4    0    0  0.26992827032E-01 -0.25217622046E-02  0.41409062216E-01  0.49496904453E-01  0.51100000000E-03 0.  1.
</event>
<event>
 8    1  0.1042301E+005  0.1043930E+01  0.7957747E-01            NaN
         13   -1    0    0    0    0  0.00000000000E+00  0.00000000000E+00  0.74505805969E-08  0.10566000000E+00  0.10566000000E+00 0. -1.
     999900   -1    0    0    0    0 -0.00000000000E+00 -0.00000000000E+00 -0.74505805969E-08  0.93827000000E+00  0.93827000000E+00 0. -1.
     999902    2    1    2    0    0  0.64429722022E-02 -0.17074103588E-01  0.13350738403E-01  0.10213185180E+01  0.10210681838E+01 0.  0.
     999903    2    3    3    0    0 -0.69316310563E-01  0.10598144356E+00 -0.14964455140E-01  0.12908318645E+00  0.20042874505E-01 0.  0.
         14    1    1    2    0    0 -0.64429722022E-02  0.17074103588E-01 -0.13350738403E-01  0.22611482040E-01  0.00000000000E+00 0.  1.
     999901    1    3    3    0    0  0.75759282765E-01 -0.12305554714E+00  0.28315193543E-01  0.89223533151E+00  0.88000000000E+00 0.  1.
        -11    1    4    4    0    0 -0.56200192093E-01  0.97172024631E-01 -0.11048261009E-01  0.11279711501E+00  0.51100000000E-03 0.  1.
         11    1    4    4    0    0 -0.13116118470E-01  0.88094189249E-02 -0.39161941314E-02  0.16286071441E-01  0.51100000000E-03 0. -1.
</event>
<event>
 8    1  0.1042301E+005  0.1043930E+01  0.7957747E-01            NaN
         13   -1    0    0    0    0  0.00000000000E+00  0.00000000000E+00  0.74505805969E-08  0.10566000000E+00  0.10566000000E+00 0. -1.
     999900   -1    0    0    0    0 -0.00000000000E+00 -0.00000000000E+00 -0.74505805969E-08  0.93827000000E+00  0.93827000000E+00 0.  1.
     999902    2    1    2    0    0 -0.86355437697E-02 -0.10206616128E-01 -0.20548679571E-01  0.10194147831E+01  0.10191199655E+01 0.  0.
     999903    2    3    3    0    0 -0.52230374262E-01 -0.11871659838E+00 -0.12226893631E-01  0.13163993683E+00  0.18919125630E-01 0.  0.
         14    1    1    2    0    0  0.86355437697E-02  0.10206616128E-01  0.20548679571E-01  0.24515216930E-01  0.00000000000E+00 0. -1.
     999901    1    3    3    0    0  0.43594830492E-01  0.10850998225E+00 -0.83217859405E-02  0.88777484624E+00  0.88000000000E+00 0. -1.
        -11    1    4    4    0    0 -0.36313950160E-01 -0.59441357429E-01 -0.49650114874E-02  0.69834736409E-01  0.51100000000E-03 0. -1.
         11    1    4    4    0    0 -0.15916424102E-01 -0.59275240951E-01 -0.72618821434E-02  0.61805200422E-01  0.51100000000E-03 0.  1.
</event>
<event>
 8    1  0.1042301E+005  0.1043930E+01  0.7957747E-01            NaN
         13   -1    0    0    0    0  0.00000000000E+00  0.00000000000E+00  0.74505805969E-08  0.10566000000E+00  0.10566000000E+00 0.  1.
     999900   -1    0    0    0    0 -0.00000000000E+00 -0.00000000000E+00 -0.74505805969E-08  0.93827000000E+00  0.93827000000E+00 0. -1.
     999902    2    1    2    0    0  0.25262007413E-02  0.23880536678E-01 -0.25429883006E-02  0.10197819460E+01  0.10194959975E+01 0.  0.
     999903    2    3    3    0    0 -0.11995480502E+00 -0.20487861989E-01  0.38208092690E-01  0.12925917697E+00  0.20956353411E-01 0.  0.
         14    1    1    2    0    0 -0.25262007413E-02 -0.23880536678E-01  0.25429883006E-02  0.24148053995E-01  0.00000000000E+00 0.  1.
     999901    1    3    3    0    0  0.12248100576E+00  0.44368398667E-01 -0.40751080991E-01  0.89052276904E+00  0.88000000000E+00 0. -1.
        -11    1    4    4    0    0 -0.40389855973E-01 -0.16356256731E-01  0.17303461635E-01  0.46888575424E-01  0.51100000000E-03 0.  1.
         11    1    4    4    0    0 -0.79564949042E-01 -0.41316052578E-02  0.20904631055E-01  0.82370601544E-01  0.51100000000E-03 0. -1.
</event>
<event>
 8    1  0.1042301E+005  0.1043930E+01  0.7957747E-01            NaN
         13   -1    0    0    0    0  0.00000000000E+00  0.00000000000E+00  0.74505805969E-08  0.10566000000E+00  0.10566000000E+00 0. -1.
     999900   -1    0    0    0    0 -0.00000000000E+00 -0.00000000000E+00 -0.74505805969E-08  0.93827000000E+00  0.93827000000E+00 0.  1.
     999902    2    1    2    0    0  0.59355468710E-02 -0.18186391690E-01  0.17789115874E-01  0.10178066732E+01  0.10174713735E+01 0.  0.
     999903    2    3    3    0    0  0.29442408820E-01 -0.64785386461E-01 -0.10432676534E+00  0.12784244509E+00  0.19890074510E-01 0.  0.
         14    1    1    2    0    0 -0.59355468710E-02  0.18186391690E-01 -0.17789115874E-01  0.26123326797E-01  0.00000000000E+00 0.  1.
     999901    1    3    3    0    0 -0.23506861949E-01  0.46598994771E-01  0.12211588122E+00  0.88996422811E+00  0.88000000000E+00 0. -1.
        -11    1    4    4    0    0  0.96123398368E-02 -0.50950860921E-02 -0.17832071960E-01  0.20894996789E-01  0.51100000000E-03 0. -1.
         11    1    4    4    0    0  0.19830068983E-01 -0.59690300369E-01 -0.86494693383E-01  0.10694744830E+00  0.51100000000E-03 0.  1.
</event>
<event>
 8    1  0.1042301E+005  0.1043930E+01  0.7957747E-01            NaN
         13   -1    0    0    0    0  0.00000000000E+00  0.00000000000E+00  0.74505805969E-08  0.10566000000E+00  0.10566000000E+00 0. -1.
     999900   -1    0    0    0    0 -0.00000000000E+00 -0.00000000000E+00 -0.74505805969E-08  0.93827000000E+00  0.93827000000E+00 0. -1.
     999902    2    1    2    0    0  0.14426120370E-01  0.17865329844E-01  0.10236803504E-02  0.10209445507E+01  0.10206857718E+01 0.  0.
     999903    2    3    3    0    0  0.31016344650E-02  0.10854295884E+00  0.74371843951E-01  0.13317733485E+00  0.20342991279E-01 0.  0.
         14    1    1    2    0    0 -0.14426120370E-01 -0.17865329844E-01 -0.10236803504E-02  0.22985449328E-01  0.00000000000E+00 0.  1.
     999901    1    3    3    0    0  0.11324485905E-01 -0.90677629001E-01 -0.73348163601E-01  0.88776721582E+00  0.88000000000E+00 0. -1.
        -11    1    4    4    0    0  0.29757613827E-02  0.59468531538E-01  0.28556855093E-01  0.66038749934E-01  0.51100000000E-03 0.  1.
         11    1    4    4    0    0  0.12587308235E-03  0.49074427307E-01  0.45814988858E-01  0.67138584917E-01  0.51100000000E-03 0. -1.
</event>
<event>
 8    1  0.1042301E+005  0.1043930E+01  0.7957747E-01            NaN
         13   -1    0    0    0    0  0.00000000000E+00  0.00000000000E+00  0.74505805969E-08  0.10566000000E+00  0.10566000000E+00 0. -1.
     999900   -1    0    0    0    0 -0.00000000000E+00 -0.00000000000E+00 -0.74505805969E-08  0.93827000000E+00  0.93827000000E+00 0.  1.
     999902    2    1    2    0    0  0.20887149280E-01 -0.78863310339E-02 -0.80025138216E-02  0.10202127605E+01  0.10199370418E+01 0.  0.
     999903    2    3    3    0    0 -0.31065591856E-01 -0.81600132573E-01 -0.96020968497E-01  0.13123578655E+00  0.19471842392E-01 0.  0.
         14    1    1    2    0    0 -0.20887149280E-01  0.78863310339E-02  0.80025138216E-02  0.23717239504E-01  0.00000000000E+00 0. -1.
     999901    1    3    3    0    0  0.51952741135E-01  0.73713801539E-01  0.88018454675E-01  0.88897697395E+00  0.88000000000E+00 0. -1.
        -11    1    4    4    0    0 -0.32138679972E-01 -0.71450516545E-01 -0.78218978404E-01  0.11070926234E+00  0.51100000000E-03 0.  1.
         11    1    4    4    0    0  0.10730881167E-02 -0.10149616028E-01 -0.17801990093E-01  0.20526524204E-01  0.51100000000E-03 0. -1.
</event>
<event>
 8    1  0.1042301E+005  0.1043930E+01  0.7957747E-01            NaN
         13   -1    0    0    0    0  0.00000000000E+00  0.00000000000E+00  0.74505805969E-08  0.10566000000E+00  0.10566000000E+00 0. -1.
     999900   -1    0    0    0    0 -0.00000000000E+00 -0.00000000000E+00 -0.74505805969E-08  0.93827000000E+00  0.93827000000E+00 0.  1.
     999902    2    1    2    0    0 -0.19703442603E-01  0.12227067126E-01  0.69111226543E-02  0.10197330903E+01  0.10194459697E+01 0.  0.
     999903    2    3    3    0    0 -0.32157955861E-01 -0.17595316616E-01  0.12451942720E+00  0.13132090966E+00  0.19908899296E-01 0.  0.
         14    1    1    2    0    0  0.19703442603E-01 -0.12227067126E-01 -0.69111226543E-02  0.24196909663E-01  0.00000000000E+00 0. -1.
     999901    1    3    3    0    0  0.12454513258E-01  0.29822383743E-01 -0.11760830455E+00  0.88841218067E+00  0.88000000000E+00 0.  1.
        -11    1    4    4    0    0 -0.18172468543E-01 -0.19863433564E-01  0.70356424393E-01  0.75333141314E-01  0.51100000000E-03 0. -1.
         11    1    4    4    0    0 -0.13985487318E-01  0.22681169480E-02  0.54163002811E-01  0.55987768347E-01  0.51100000000E-03 0.  1.
</event>
<event>
 8    1  0.1189675E+005  0.1043930E+01  0.7957747E-01            NaN
         13   -1    0    0    0    0  0.00000000000E+00  0.00000000000E+00  0.74505805969E-08  0.10566000000E+00  0.10566000000E+00 0. -1.
     999900   -1    0    0    0    0 -0.00000000000E+00 -0.00000000000E+00 -0.74505805969E-08  0.93827000000E+00  0.93827000000E+00 0. -1.
     999902    2    1    2    0    0 -0.11025812571E-01  0.12121161118E-01  0.16924218490E-01  0.10203732544E+01  0.10201012980E+01 0.  0.
     999903    2    3    3    0    0  0.10806898883E+00  0.49457187434E-01 -0.46633600986E-01  0.12929685649E+00  0.20446628613E-01 0.  0.
         14    1    1    2    0    0  0.11025812571E-01 -0.12121161118E-01 -0.16924218490E-01  0.23556745556E-01  0.00000000000E+00 0.  1.
     999901    1    3    3    0    0 -0.11909480140E+00 -0.37336026316E-01  0.63557819476E-01  0.89107639796E+00  0.88000000000E+00 0.  1.
        -11    1    4    4    0    0  0.36412124889E-01  0.66782737623E-02 -0.16948994989E-01  0.40718199021E-01  0.51100000000E-03 0. -1.
         11    1    4    4    0    0  0.71656863937E-01  0.42778913671E-01 -0.29684605997E-01  0.88578657465E-01  0.51100000000E-03 0.  1.
</event>
<event>
 8    1  0.1042301E+005  0.1043930E+01  0.7957747E-01            NaN
         13   -1    0    0    0    0  0.00000000000E+00  0.00000000000E+00  0.74505805969E-08  0.10566000000E+00  0.10566000000E+00 0.  1.
     999900   -1    0    0    0    0 -0.00000000000E+00 -0.00000000000E+00 -0.74505805969E-08  0.93827000000E+00  0.93827000000E+00 0.  1.
     999902    2    1    2    0    0 -0.33253038988E-02  0.57908037402E-02  0.22703974024E-01  0.10202643817E+01  0.10199898759E+01 0.  0.
     999903    2    3    3    0    0 -0.11132850427E+00 -0.47024343447E-01 -0.42896519192E-01  0.12967044740E+00  0.19209081958E-01 0.  0.
         14    1    1    2    0    0  0.33253038988E-02 -0.57908037402E-02 -0.22703974024E-01  0.23665618320E-01  0.00000000000E+00 0. -1.
     999901    1    3    3    0    0  0.10800320038E+00  0.52815147187E-01  0.65600493216E-01  0.89059393428E+00  0.88000000000E+00 0. -1.
        -11    1    4    4    0    0 -0.77321425917E-01 -0.27891009958E-01 -0.20659878974E-01  0.84756138789E-01  0.51100000000E-03 0.  1.
         11    1    4    4    0    0 -0.34007078358E-01 -0.19133333490E-01 -0.22236640218E-01  0.44914308612E-01  0.51100000000E-03 0. -1.
</event>
<event>
 8    1  0.1042301E+005  0.1043930E+01  0.7957747E-01            NaN
         13   -1    0    0    0    0  0.00000000000E+00  0.00000000000E+00  0.74505805969E-08  0.10566000000E+00  0.10566000000E+00 0.  1.
     999900   -1    0    0    0    0 -0.00000000000E+00 -0.00000000000E+00 -0.74505805969E-08  0.93827000000E+00  0.93827000000E+00 0. -1.
     999902    2    1    2    0    0  0.92006435918E-03  0.13578902520E-01  0.19768462126E-01  0.10199294749E+01  0.10196470509E+01 0.  0.
     999903    2    3    3    0    0  0.60915450441E-01 -0.64412326838E-01 -0.89802295041E-01  0.12769193416E+00  0.19522753507E-01 0.  0.
         14    1    1    2    0    0 -0.92006435918E-03 -0.13578902520E-01 -0.19768462126E-01  0.24000525138E-01  0.00000000000E+00 0. -1.
     999901    1    3    3    0    0 -0.59995386081E-01  0.77991229357E-01  0.10957075717E+00  0.89223754070E+00  0.88000000000E+00 0.  1.
        -11    1    4    4    0    0  0.24181241759E-01 -0.25710574539E-01 -0.22739204208E-01  0.41989267975E-01  0.51100000000E-03 0. -1.
         11    1    4    4    0    0  0.36734208682E-01 -0.38701752299E-01 -0.67063090833E-01  0.85702666187E-01  0.51100000000E-03 0.  1.
</event>
<event>
 8    1  0.1042301E+005  0.1043930E+01  0.7957747E-01            NaN
         13   -1    0    0    0    0  0.00000000000E+00  0.00000000000E+00  0.74505805969E-08  0.10566000000E+00  0.10566000000E+00 0. -1.
     999900   -1    0    0    0    0 -0.00000000000E+00 -0.00000000000E+00 -0.74505805969E-08  0.93827000000E+00  0.93827000000E+00 0. -1.
     999902    2    1    2    0    0  0.86725214610E-02  0.84648868000E-02  0.22394801589E-01  0.10184664167E+01  0.10181480481E+01 0.  0.
     999903    2    3    3    0    0 -0.14856086184E-01 -0.25109846960E-01 -0.12084719795E+00  0.12594239541E+00  0.20155247396E-01 0.  0.
         14    1    1    2    0    0 -0.86725214610E-02 -0.84648868000E-02 -0.22394801589E-01  0.25463583315E-01  0.00000000000E+00 0.  1.
     999901    1    3    3    0    0  0.23528607645E-01  0.33574733760E-01  0.14324199954E+00  0.89252402128E+00  0.88000000000E+00 0.  1.
        -11    1    4    4    0    0  0.50025800636E-03  0.31695516507E-02 -0.12586196741E-01  0.12998837838E-01  0.51100000000E-03 0. -1.
         11    1    4    4    0    0 -0.15356344190E-01 -0.28279398611E-01 -0.10826100121E+00  0.11294355757E+00  0.51100000000E-03 0.  1.
</event>
<event>
 8    1  0.1042301E+005  0.1043930E+01  0.7957747E-01            NaN
         13   -1    0    0    0    0  0.00000000000E+00  0.00000000000E+00  0.74505805969E-08  0.10566000000E+00  0.10566000000E+00 0. -1.
     999900   -1    0    0    0    0 -0.00000000000E+00 -0.00000000000E+00 -0.74505805969E-08  0.93827000000E+00  0.93827000000E+00 0.  1.
     999902    2    1    2    0    0  0.15183823833E-01 -0.22684184687E-02  0.18904178151E-01  0.10195771320E+01  0.10192862532E+01 0.  0.
     999903    2    3    3    0    0 -0.25151438949E-01  0.15160584784E-01 -0.12270695309E+00  0.12717340269E+00  0.15926073108E-01 0.  0.
         14    1    1    2    0    0 -0.15183823833E-01  0.22684184687E-02 -0.18904178151E-01  0.24352868006E-01  0.00000000000E+00 0. -1.
     999901    1    3    3    0    0  0.40335262782E-01 -0.17429003253E-01  0.14161113124E+00  0.89240372930E+00  0.88000000000E+00 0. -1.
        -11    1    4    4    0    0 -0.22270327187E-01  0.51794262709E-02 -0.78839738413E-01  0.82089947031E-01  0.51100000000E-03 0. -1.
         11    1    4    4    0    0 -0.28811117614E-02  0.99811585129E-02 -0.43867214674E-01  0.45083455663E-01  0.51100000000E-03 0.  1.
</event>
<event>
 8    1  0.1042301E+005  0.1043930E+01  0.7957747E-01            NaN
         13   -1    0    0    0    0  0.00000000000E+00  0.00000000000E+00  0.74505805969E-08  0.10566000000E+00  0.10566000000E+00 0.  1.
     999900   -1    0    0    0    0 -0.00000000000E+00 -0.00000000000E+00 -0.74505805969E-08  0.93827000000E+00  0.93827000000E+00 0.  1.
     999902    2    1    2    0    0 -0.88276619105E-02  0.19525952173E-01 -0.84333311876E-02  0.10209015068E+01  0.10206417467E+01 0.  0.
     999903    2    3    3    0    0  0.22380631562E-01 -0.12067999458E+00 -0.34246077283E-01  0.12888246950E+00  0.19322095509E-01 0.  0.
         14    1    1    2    0    0  0.88276619105E-02 -0.19525952173E-01  0.84333311876E-02  0.23028493177E-01  0.00000000000E+00 0.  1.
     999901    1    3    3    0    0 -0.31208293472E-01  0.14020594675E+00  0.25812746095E-01  0.89201903732E+00  0.88000000000E+00 0. -1.
        -11    1    4    4    0    0  0.82462734476E-02 -0.86536539637E-01 -0.19487446315E-01  0.89087571541E-01  0.51100000000E-03 0. -1.
         11    1    4    4    0    0  0.14134358114E-01 -0.34143454941E-01 -0.14758630968E-01  0.39794897960E-01  0.51100000000E-03 0.  1.
</event>
<event>
 8    1  0.1042301E+005  0.1043930E+01  0.7957747E-01            NaN
         13   -1    0    0    0    0  0.00000000000E+00  0.00000000000E+00  0.74505805969E-08  0.10566000000E+00  0.10566000000E+00 0.  1.
     999900   -1    0    0    0    0 -0.00000000000E+00 -0.00000000000E+00 -0.74505805969E-08  0.93827000000E+00  0.93827000000E+00 0. -1.
     999902    2    1    2    0    0 -0.94136223899E-02  0.35964771735E-02 -0.22044485863E-01  0.10196913884E+01  0.10194032653E+01 0.  0.
     999903    2    3    3    0    0 -0.96133613445E-01  0.60625255082E-01 -0.65316878521E-01  0.13253574349E+00  0.19553401103E-01 0.  0.
         14    1    1    2    0    0  0.94136223899E-02 -0.35964771735E-02  0.22044485863E-01  0.24238611584E-01  0.00000000000E+00 0.  1.
     999901    1    3    3    0    0  0.86719991056E-01 -0.57028777908E-01  0.43272392658E-01  0.88715564493E+00  0.88000000000E+00 0. -1.
        -11    1    4    4    0    0 -0.70224150555E-01  0.53956130483E-01 -0.49706301686E-01  0.10155625479E+00  0.51100000000E-03 0.  1.
         11    1    4    4    0    0 -0.25909462890E-01  0.66691245989E-02 -0.15610576835E-01  0.30979488703E-01  0.51100000000E-03 0. -1.
</event>
<event>
 8    1  0.1042301E+005  0.1043930E+01  0.7957747E-01            NaN
         13   -1    0    0    0    0  0.00000000000E+00  0.00000000000E+00  0.74505805969E-08  0.10566000000E+00  0.10566000000E+00 0. -1.
     999900   -1    0    0    0    0 -0.00000000000E+00 -0.00000000000E+00 -0.74505805969E-08  0.93827000000E+00  0.93827000000E+00 0.  1.
     999902    2    1    2    0    0  0.15093467975E-01 -0.12854680635E-01  0.30884196526E-01  0.10072300111E+01  0.10065611785E+01 0.  0.
     999903    2    3    3    0    0 -0.32105664482E-02  0.10991107915E+00  0.39417905820E-01  0.11847847460E+00  0.19814756802E-01 0.  0.
         14    1    1    2    0    0 -0.15093467975E-01  0.12854680635E-01 -0.30884196526E-01  0.36699988893E-01  0.00000000000E+00 0.  1.
     999901    1    3    3    0    0  0.18304034423E-01 -0.12276575979E+00 -0.85337092939E-02  0.88875153651E+00  0.88000000000E+00 0. -1.
        -11    1    4    4    0    0 -0.71292016327E-02  0.44714945162E-01  0.79407974932E-02  0.45973570914E-01  0.51100000000E-03 0. -1.
         11    1    4    4    0    0  0.39186351846E-02  0.65196133988E-01  0.31477108326E-01  0.72504903684E-01  0.51100000000E-03 0.  1.
</event>
<event>
 8    1  0.1042301E+005  0.1043930E+01  0.7957747E-01            NaN
         13   -1    0    0    0    0  0.00000000000E+00  0.00000000000E+00  0.74505805969E-08  0.10566000000E+00  0.10566000000E+00 0.  1.
     999900   -1    0    0    0    0 -0.00000000000E+00 -0.00000000000E+00 -0.74505805969E-08  0.93827000000E+00  0.93827000000E+00 0.  1.
     999902    2    1    2    0    0 -0.30801128765E-02  0.36649605767E-02 -0.26023806302E-01  0.10174695101E+01  0.10171253838E+01 0.  0.
     999903    2    3    3    0    0  0.34258476267E-01 -0.54336724413E-01  0.10551960465E+00  0.12502229336E+00  0.19237049048E-01 0.  0.
         14    1    1    2    0    0  0.30801128765E-02 -0.36649605767E-02  0.26023806302E-01  0.26460489901E-01  0.00000000000E+00 0.  1.
     999901    1    3    3    0    0 -0.37338589144E-01  0.58001684990E-01 -0.13154341095E+00  0.89244721674E+00  0.88000000000E+00 0.  1.
        -11    1    4    4    0    0  0.32075035759E-01 -0.53616186077E-01  0.91443712799E-01  0.11075069778E+00  0.51100000000E-03 0.  1.
         11    1    4    4    0    0  0.21834405080E-02 -0.72053833646E-03  0.14075891848E-01  0.14271595576E-01  0.51100000000E-03 0. -1.
</event>
<event>
 8    1  0.1042301E+005  0.1043930E+01  0.7957747E-01            NaN
         13   -1    0    0    0    0  0.00000000000E+00  0.00000000000E+00  0.74505805969E-08  0.10566000000E+00  0.10566000000E+00 0. -1.
     999900   -1    0    0    0    0 -0.00000000000E+00 -0.00000000000E+00 -0.74505805969E-08  0.93827000000E+00  0.93827000000E+00 0. -1.
     999902    2    1    2    0    0  0.15734298742E-01 -0.28528276875E-02  0.17026616261E-01  0.10205716515E+01  0.10203043092E+01 0.  0.
     999903    2    3    3    0    0 -0.80502040912E-01 -0.87623804143E-01 -0.45338468688E-01  0.12909144683E+00  0.21225344723E-01 0.  0.
         14    1    1    2    0    0 -0.15734298742E-01  0.28528276875E-02 -0.17026616261E-01  0.23358348486E-01  0.00000000000E+00 0.  1.
     999901    1    3    3    0    0  0.96236339654E-01  0.84770976456E-01  0.62365084949E-01  0.89148020468E+00  0.88000000000E+00 0. -1.
        -11    1    4    4    0    0  0.46237972229E-03 -0.69319181496E-03  0.11625111350E-02  0.15188360803E-02  0.51100000000E-03 0. -1.
         11    1    4    4    0    0 -0.80964420635E-01 -0.86930612328E-01 -0.46500979823E-01  0.12757261075E+00  0.51100000000E-03 0.  1.
</event>
<event>
 8    1  0.1042301E+005  0.1043930E+01  0.7957747E-01            NaN
         13   -1    0    0    0    0  0.00000000000E+00  0.00000000000E+00  0.74505805969E-08  0.10566000000E+00  0.10566000000E+00 0. -1.
     999900   -1    0    0    0    0 -0.00000000000E+00 -0.00000000000E+00 -0.74505805969E-08  0.93827000000E+00  0.93827000000E+00 0.  1.
     999902    2    1    2    0    0 -0.20878006157E-01 -0.30185985843E-02 -0.78420491443E-02  0.10214244271E+01  0.10211764585E+01 0.  0.
     999903    2    3    3    0    0 -0.80078819545E-01  0.32566473439E-01 -0.10017039061E+00  0.13390228295E+00  0.20555332453E-01 0.  0.
         14    1    1    2    0    0  0.20878006157E-01  0.30185985843E-02  0.78420491443E-02  0.22505572938E-01  0.00000000000E+00 0. -1.
     999901    1    3    3    0    0  0.59200813389E-01 -0.35585072024E-01  0.92328341462E-01  0.88752214411E+00  0.88000000000E+00 0. -1.
        -11    1    4    4    0    0 -0.53536035803E-01  0.31857269048E-01 -0.69948268945E-01  0.93669707858E-01  0.51100000000E-03 0. -1.
         11    1    4    4    0    0 -0.26542783742E-01  0.70920439125E-03 -0.30222121661E-01  0.40232575089E-01  0.51100000000E-03 0.  1.
</event>
<event>
 8    1  0.1042301E+005  0.1043930E+01  0.7957747E-01            NaN
         13   -1    0    0    0    0  0.00000000000E+00  0.00000000000E+00  0.74505805969E-08  0.10566000000E+00  0.10566000000E+00 0. -1.
     999900   -1    0    0    0    0 -0.00000000000E+00 -0.00000000000E+00 -0.74505805969E-08  0.93827000000E+00  0.93827000000E+00 0.  1.
     999902    2    1    2    0    0  0.26032795687E-01 -0.61403021726E-02 -0.68594138185E-02  0.10163172979E+01  0.10159421187E+01 0.  0.
     999903    2    3    3    0    0  0.15283761402E-01 -0.12555062129E+00  0.41915750309E-02  0.12811884570E+00  0.20007934756E-01 0.  0.
         14    1    1    2    0    0 -0.26032795687E-01  0.61403021726E-02  0.68594138185E-02  0.27612702149E-01  0.00000000000E+00 0. -1.
     999901    1    3    3    0    0  0.10749034285E-01  0.11941031912E+00 -0.11050988849E-01  0.88819845215E+00  0.88000000000E+00 0.  1.
        -11    1    4    4    0    0  0.77576017124E-02 -0.10773887596E+00  0.83233355406E-02  0.10833921180E+00  0.51100000000E-03 0. -1.
         11    1    4    4    0    0  0.75261596896E-02 -0.17811745332E-01 -0.41317605097E-02  0.19779633903E-01  0.51100000000E-03 0.  1.
</event>
<event>
 8    1  0.1042301E+005  0.1043930E+01  0.7957747E-01            NaN
         13   -1    0    0    0    0  0.00000000000E+00  0.00000000000E+00  0.74505805969E-08  0.10566000000E+00  0.10566000000E+00 0. -1.
     999900   -1    0    0    0    0 -0.00000000000E+00 -0.00000000000E+00 -0.74505805969E-08  0.93827000000E+00  0.93827000000E+00 0. -1.
     999902    2    1    2    0    0 -0.90593833498E-02 -0.24868420290E-02  0.22194205096E-01  0.10198293869E+01  0.10195445743E+01 0.  0.
     999903    2    3    3    0    0  0.10752253614E+00 -0.68908478663E-01 -0.34974843844E-02  0.12928840491E+00  0.19844017676E-01 0.  0.
         14    1    1    2    0    0  0.90593833498E-02  0.24868420290E-02 -0.22194205096E-01  0.24100613059E-01  0.00000000000E+00 0.  1.
     999901    1    3    3    0    0 -0.11658191949E+00  0.66421636634E-01  0.25691689481E-01  0.89054098203E+00  0.88000000000E+00 0. -1.
        -11    1    4    4    0    0  0.36381869424E-01 -0.12920852943E-01  0.12642622614E-02  0.38632218984E-01  0.51100000000E-03 0. -1.
         11    1    4    4    0    0  0.71140666718E-01 -0.55987625719E-01 -0.47617466458E-02  0.90656185928E-01  0.51100000000E-03 0.  1.
</event>
<event>
 8    1  0.1042301E+005  0.1043930E+01  0.7957747E-01            NaN
         13   -1    0    0    0    0  0.00000000000E+00  0.00000000000E+00  0.74505805969E-08  0.10566000000E+00  0.10566000000E+00 0. -1.
     999900   -1    0    0    0    0 -0.00000000000E+00 -0.00000000000E+00 -0.74505805969E-08  0.93827000000E+00  0.93827000000E+00 0. -1.
     999902    2    1    2    0    0 -0.19831829567E-01 -0.31482824159E-03 -0.14327040995E-01  0.10194623748E+01  0.10191687146E+01 0.  0.
     999903    2    3    3    0    0 -0.12428530817E+00  0.38962151613E-01 -0.12373176256E-01  0.13241275500E+00  0.20375355508E-01 0.  0.
         14    1    1    2    0    0  0.19831829567E-01  0.31482824159E-03  0.14327040995E-01  0.24467625231E-01  0.00000000000E+00 0. -1.
     999901    1    3    3    0    0  0.10445347860E+00 -0.39276979855E-01 -0.19538647390E-02  0.88704961977E+00  0.88000000000E+00 0.  1.
        -11    1    4    4    0    0 -0.30797929275E-01  0.75369995247E-02  0.54799644950E-02  0.32180894042E-01  0.51100000000E-03 0.  1.
         11    1    4    4    0    0 -0.93487378893E-01  0.31425152089E-01 -0.17853140751E-01  0.10023186096E+00  0.51100000000E-03 0. -1.
</event>
<event>
 8    1  0.1042301E+005  0.1043930E+01  0.7957747E-01            NaN
         13   -1    0    0    0    0  0.00000000000E+00  0.00000000000E+00  0.74505805969E-08  0.10566000000E+00  0.10566000000E+00 0. -1.
     999900   -1    0    0    0    0 -0.00000000000E+00 -0.00000000000E+00 -0.74505805969E-08  0.93827000000E+00  0.93827000000E+00 0. -1.
     999902    2    1    2    0    0 -0.50521004324E-02  0.58076584176E-02  0.19487497195E-01  0.10229773113E+01  0.10227627117E+01 0.  0.
     999903    2    3    3    0    0  0.12900700326E-01 -0.92183197913E-01 -0.89534056774E-01  0.13067119223E+00  0.19860591870E-01 0.  0.
         14    1    1    2    0    0  0.50521004324E-02 -0.58076584176E-02 -0.19487497195E-01  0.20952688658E-01  0.00000000000E+00 0.  1.
     999901    1    3    3    0    0 -0.17952800758E-01  0.97990856331E-01  0.10902155397E+00  0.89230611911E+00  0.88000000000E+00 0.  1.
        -11    1    4    4    0    0  0.30553164826E-02 -0.56940066191E-01 -0.42725286455E-01  0.71254595082E-01  0.51100000000E-03 0.  1.
         11    1    4    4    0    0  0.98453838431E-02 -0.35243131722E-01 -0.46808770319E-01  0.59416597146E-01  0.51100000000E-03 0. -1.
</event>
<event>
 8    1  0.1042301E+005  0.1043930E+01  0.7957747E-01            NaN
         13   -1    0    0    0    0  0.00000000000E+00  0.00000000000E+00  0.74505805969E-08  0.10566000000E+00  0.10566000000E+00 0. -1.
     999900   -1    0    0    0    0 -0.00000000000E+00 -0.00000000000E+00 -0.74505805969E-08  0.93827000000E+00  0.93827000000E+00 0.  1.
     999902    2    1    2    0    0  0.68153668093E-02 -0.22729189765E-01  0.51988383224E-02  0.10196381657E+01  0.10193487606E+01 0.  0.
     999903    2    3    3    0    0 -0.65038747943E-03 -0.93729329698E-01 -0.89752084188E-01  0.13165593897E+00  0.22186468878E-01 0.  0.
         14    1    1    2    0    0 -0.68153668093E-02  0.22729189765E-01 -0.51988383224E-02  0.24291834266E-01  0.00000000000E+00 0.  1.
     999901    1    3    3    0    0  0.74657542887E-02  0.71000139933E-01  0.94950922511E-01  0.88798222676E+00  0.88000000000E+00 0. -1.
        -11    1    4    4    0    0  0.10557609543E-01 -0.37595171858E-01 -0.37856836890E-01  0.54389900594E-01  0.51100000000E-03 0.  1.
         11    1    4    4    0    0 -0.11207997023E-01 -0.56134157840E-01 -0.51895247298E-01  0.77266038379E-01  0.51100000000E-03 0. -1.
</event>
<event>
 8    1  0.1042301E+005  0.1043930E+01  0.7957747E-01            NaN
         13   -1    0    0    0    0  0.00000000000E+00  0.00000000000E+00  0.74505805969E-08  0.10566000000E+00  0.10566000000E+00 0. -1.
     999900   -1    0    0    0    0 -0.00000000000E+00 -0.00000000000E+00 -0.74505805969E-08  0.93827000000E+00  0.93827000000E+00 0. -1.
     999902    2    1    2    0    0 -0.13189849973E-01  0.18507074727E-01 -0.51012210238E-02  0.10206382329E+01  0.10203724301E+01 0.  0.
     999903    2    3    3    0    0  0.56263554630E-01 -0.48110784740E-01  0.10365527737E+00  0.12873594537E+00  0.18662580649E-01 0.  0.
         14    1    1    2    0    0  0.13189849973E-01 -0.18507074727E-01  0.51012210238E-02  0.23291767069E-01  0.00000000000E+00 0.  1.
     999901    1    3    3    0    0 -0.69453404603E-01  0.66617859467E-01 -0.10875649839E+00  0.89190228756E+00  0.88000000000E+00 0. -1.
        -11    1    4    4    0    0  0.44967122803E-01 -0.37342326582E-01  0.92956132234E-01  0.10980708141E+00  0.51100000000E-03 0.  1.
         11    1    4    4    0    0  0.11296431827E-01 -0.10768458158E-01  0.10699145135E-01  0.18928863958E-01  0.51100000000E-03 0. -1.
</event>
<event>
 8    1  0.1042301E+005  0.1043930E+01  0.7957747E-01            NaN
         13   -1    0    0    0    0  0.00000000000E+00  0.00000000000E+00  0.74505805969E-08  0.10566000000E+00  0.10566000000E+00 0.  1.
     999900   -1    0    0    0    0 -0.00000000000E+00 -0.00000000000E+00 -0.74505805969E-08  0.93827000000E+00  0.93827000000E+00 0.  1.
     999902    2    1    2    0    0 -0.97383774409E-02  0.17552102695E-01 -0.12448690914E-01  0.10203104697E+01  0.10200370446E+01 0.  0.
     999903    2    3    3    0    0 -0.12983703470E+00  0.14202594774E-01 -0.20904504558E-02  0.13208628643E+00  0.19571607043E-01 0.  0.
         14    1    1    2    0    0  0.97383774409E-02 -0.17552102695E-01  0.12448690914E-01  0.23619530259E-01  0.00000000000E+00 0. -1.
     999901    1    3    3    0    0  0.12009865725E+00  0.33495079203E-02 -0.10358240459E-01  0.88822418331E+00  0.88000000000E+00 0.  1.
        -11    1    4    4    0    0 -0.24452674603E-01 -0.85973087802E-03 -0.71906589090E-02  0.25507628838E-01  0.51100000000E-03 0.  1.
         11    1    4    4    0    0 -0.10538436009E+00  0.15062325652E-01  0.51002084532E-02  0.10657865759E+00  0.51100000000E-03 0. -1.
</event>
<event>
 8    1  0.1042301E+005  0.1043930E+01  0.7957747E-01            NaN
         13   -1    0    0    0    0  0.00000000000E+00  0.00000000000E+00  0.74505805969E-08  0.10566000000E+00  0.10566000000E+00 0.  1.
     999900   -1    0    0    0    0 -0.00000000000E+00 -0.00000000000E+00 -0.74505805969E-08  0.93827000000E+00  0.93827000000E+00 0.  1.
     999902    2    1    2    0    0 -0.58619019650E-03 -0.20551598291E-01  0.11361394846E-01  0.10204397232E+01  0.10201693171E+01 0.  0.
     999903    2    3    3    0    0  0.29031056789E-01  0.11980969244E+00 -0.27704149807E-01  0.12796866483E+00  0.20280399433E-01 0.  0.
         14    1    1    2    0    0  0.58619019650E-03  0.20551598291E-01 -0.11361394846E-01  0.23490276799E-01  0.00000000000E+00 0. -1.
     999901    1    3    3    0    0 -0.29617246986E-01 -0.14036129073E+00  0.39065544653E-01  0.89247105837E+00  0.88000000000E+00 0. -1.
        -11    1    4    4    0    0  0.40771183768E-02  0.59026434512E-01 -0.15046454553E-01  0.61052434686E-01  0.51100000000E-03 0. -1.
         11    1    4    4    0    0  0.24953938413E-01  0.60783257925E-01 -0.12657695255E-01  0.66916230142E-01  0.51100000000E-03 0.  1.
</event>
<event>
 8    1  0.1042301E+005  0.1043930E+01  0.7957747E-01            NaN
         13   -1    0    0    0    0  0.00000000000E+00  0.00000000000E+00  0.74505805969E-08  0.10566000000E+00  0.10566000000E+00 0. -1.
     999900   -1    0    0    0    0 -0.00000000000E+00 -0.00000000000E+00 -0.74505805969E-08  0.93827000000E+00  0.93827000000E+00 0. -1.
     999902    2    1    2    0    0  0.22179847242E-01  0.67805626244E-02  0.57671374049E-02  0.10200305957E+01  0.10197505747E+01 0.  0.
     999903    2    3    3    0    0  0.32759533264E-01 -0.11818824153E+00 -0.38375009783E-01  0.13004314581E+00  0.19923125730E-01 0.  0.
         14    1    1    2    0    0 -0.22179847242E-01 -0.67805626244E-02 -0.57671374049E-02  0.23899404323E-01  0.00000000000E+00 0. -1.
     999901    1    3    3    0    0 -0.10579686022E-01  0.12496880416E+00  0.44142147188E-01  0.88998744987E+00  0.88000000000E+00 0.  1.
        -11    1    4    4    0    0  0.23253178863E-01 -0.10450712055E+00 -0.37167587161E-01  0.11333198679E+00  0.51100000000E-03 0. -1.
         11    1    4    4    0    0  0.95063544004E-02 -0.13681120985E-01 -0.12074226219E-02  0.16711159020E-01  0.51100000000E-03 0.  1.
</event>
<event>
 8    1  0.1042301E+005  0.1043930E+01  0.7957747E-01            NaN
         13   -1    0    0    0    0  0.00000000000E+00  0.00000000000E+00  0.74505805969E-08  0.10566000000E+00  0.10566000000E+00 0. -1.
     999900   -1    0    0    0    0 -0.00000000000E+00 -0.00000000000E+00 -0.74505805969E-08  0.93827000000E+00  0.93827000000E+00 0.  1.
     999902    2    1    2    0    0  0.11064895056E-01 -0.42184388397E-02  0.20427082181E-01  0.10203187142E+01  0.10200454822E+01 0.  0.
     999903    2    3    3    0    0 -0.92795484468E-01  0.72630973623E-01 -0.46520964493E-01  0.12836868672E+00  0.20689594657E-01 0.  0.
         14    1    1    2    0    0 -0.11064895056E-01  0.42184388397E-02 -0.20427082181E-01  0.23611285760E-01  0.00000000000E+00 0.  1.
     999901    1    3    3    0    0  0.10386037952E+00 -0.76849412463E-01  0.66948046674E-01  0.89195002752E+00  0.88000000000E+00 0. -1.
        -11    1    4    4    0    0 -0.26494247905E-01  0.10566204562E-01 -0.73336835124E-02  0.29455625707E-01  0.51100000000E-03 0.  1.
         11    1    4    4    0    0 -0.66301236562E-01  0.62064769061E-01 -0.39187280981E-01  0.98913061018E-01  0.51100000000E-03 0. -1.
</event>
<event>
 8    1  0.1042301E+005  0.1043930E+01  0.7957747E-01            NaN
         13   -1    0    0    0    0  0.00000000000E+00  0.00000000000E+00  0.74505805969E-08  0.10566000000E+00  0.10566000000E+00 0.  1.
     999900   -1    0    0    0    0 -0.00000000000E+00 -0.00000000000E+00 -0.74505805969E-08  0.93827000000E+00  0.93827000000E+00 0. -1.
     999902    2    1    2    0    0 -0.17744558675E-02  0.27253515263E-01 -0.62680018914E-02  0.10159087467E+01  0.10155222258E+01 0.  0.
     999903    2    3    3    0    0  0.11617514645E+00 -0.15064160838E-01  0.40769343098E-01  0.12578774021E+00  0.20900302800E-01 0.  0.
         14    1    1    2    0    0  0.17744558675E-02 -0.27253515263E-01  0.62680018914E-02  0.28021253283E-01  0.00000000000E+00 0.  1.
     999901    1    3    3    0    0 -0.11794960232E+00  0.42317676101E-01 -0.47037344989E-01  0.89012100650E+00  0.88000000000E+00 0. -1.
        -11    1    4    4    0    0  0.26289355631E-01  0.53173473414E-02  0.88885224284E-02  0.28260774126E-01  0.51100000000E-03 0.  1.
         11    1    4    4    0    0  0.89885790817E-01 -0.20381508179E-01  0.31880820670E-01  0.97526966086E-01  0.51100000000E-03 0. -1.
</event>
<event>
 8    1  0.1042301E+005  0.1043930E+01  0.7957747E-01            NaN
         13   -1    0    0    0    0  0.00000000000E+00  0.00000000000E+00  0.74505805969E-08  0.10566000000E+00  0.10566000000E+00 0. -1.
     999900   -1    0    0    0    0 -0.00000000000E+00 -0.00000000000E+00 -0.74505805969E-08  0.93827000000E+00  0.93827000000E+00 0.  1.
     999902    2    1    2    0    0  0.18019051066E-02 -0.14735016699E-01 -0.18047299707E-01  0.10205618035E+01  0.10202942332E+01 0.  0.
     999903    2    3    3    0    0  0.37336941213E-03 -0.45988229207E-02 -0.13155627485E+00  0.13321233993E+00  0.20425118849E-01 0.  0.
         14    1    1    2    0    0 -0.18019051066E-02  0.14735016699E-01  0.18047299707E-01  0.23368196461E-01  0.00000000000E+00 0. -1.
     999901    1    3    3    0    0  0.14285356945E-02 -0.10136193779E-01  0.11350897514E+00  0.88734946361E+00  0.88000000000E+00 0. -1.
        -11    1    4    4    0    0  0.98091213459E-02 -0.57195746121E-02 -0.76494097075E-01  0.77333953757E-01  0.51100000000E-03 0. -1.
         11    1    4    4    0    0 -0.94357519338E-02  0.11207516913E-02 -0.55062177771E-01  0.55878386168E-01  0.51100000000E-03 0.  1.
</event>
<event>
 8    1  0.1042301E+005  0.1043930E+01  0.7957747E-01            NaN
         13   -1    0    0    0    0  0.00000000000E+00  0.00000000000E+00  0.74505805969E-08  0.10566000000E+00  0.10566000000E+00 0. -1.
     999900   -1    0    0    0    0 -0.00000000000E+00 -0.00000000000E+00 -0.74505805969E-08  0.93827000000E+00  0.93827000000E+00 0. -1.
     999902    2    1    2    0    0 -0.21054035123E-01 -0.30845873305E-02  0.10757698347E-01  0.10200864443E+01  0.10198077460E+01 0.  0.
     999903    2    3    3    0    0  0.10598889587E+00  0.67714419570E-01  0.17233090902E-01  0.12812549427E+00  0.17328421570E-01 0.  0.
         14    1    1    2    0    0  0.21054035123E-01  0.30845873305E-02 -0.10757698347E-01  0.23843555685E-01  0.00000000000E+00 0.  1.
     999901    1    3    3    0    0 -0.12704293100E+00 -0.70799006901E-01 -0.64753925547E-02  0.89196095004E+00  0.88000000000E+00 0. -1.
        -11    1    4    4    0    0  0.26659208580E-01  0.91616460614E-02  0.65819233490E-02  0.28952236471E-01  0.51100000000E-03 0.  1.
         11    1    4    4    0    0  0.79329687293E-01  0.58552773509E-01  0.10651167553E-01  0.99173257801E-01  0.51100000000E-03 0. -1.
</event>
<event>
 8    1  0.1042301E+005  0.1043930E+01  0.7957747E-01            NaN
         13   -1    0    0    0    0  0.00000000000E+00  0.00000000000E+00  0.74505805969E-08  0.10566000000E+00  0.10566000000E+00 0.  1.
     999900   -1    0    0    0    0 -0.00000000000E+00 -0.00000000000E+00 -0.74505805969E-08  0.93827000000E+00  0.93827000000E+00 0. -1.
     999902    2    1    2    0    0  0.11393763000E-01  0.18762640416E-01  0.73981971635E-02  0.10207656344E+01  0.10205027646E+01 0.  0.
     999903    2    3    3    0    0 -0.11905889695E+00  0.13650763653E-01  0.46957318559E-01  0.13025513374E+00  0.20001145169E-01 0.  0.
         14    1    1    2    0    0 -0.11393763000E-01 -0.18762640416E-01 -0.73981971635E-02  0.23164365563E-01  0.00000000000E+00 0.  1.
     999901    1    3    3    0    0  0.13045265995E+00  0.51118767626E-02 -0.39559121395E-01  0.89051050070E+00  0.88000000000E+00 0.  1.
        -11    1    4    4    0    0 -0.83372793961E-01  0.12977254854E-01  0.23672951647E-01  0.87636189312E-01  0.51100000000E-03 0.  1.
         11    1    4    4    0    0 -0.35686102986E-01  0.67350879927E-03  0.23284366912E-01  0.42618944426E-01  0.51100000000E-03 0. -1.
</event>
<event>
 8    1  0.1042301E+005  0.1043930E+01  0.7957747E-01            NaN
         13   -1    0    0    0    0  0.00000000000E+00  0.00000000000E+00  0.74505805969E-08  0.10566000000E+00  0.10566000000E+00 0.  1.
     999900   -1    0    0    0    0 -0.00000000000E+00 -0.00000000000E+00 -0.74505805969E-08  0.93827000000E+00  0.93827000000E+00 0.  1.
     999902    2    1    2    0    0 -0.10252718864E-01  0.10387358904E-01 -0.12653407836E-01  0.10246135770E+01  0.10244314803E+01 0.  0.
     999903    2    3    3    0    0  0.12367841409E+00  0.45433258693E-01  0.82833389043E-02  0.13354449388E+00  0.20124289640E-01 0.  0.
         14    1    1    2    0    0  0.10252718864E-01 -0.10387358904E-01  0.12653407836E-01  0.19316423038E-01  0.00000000000E+00 0.  1.
     999901    1    3    3    0    0 -0.13393113296E+00 -0.35045899788E-01 -0.20936746740E-01  0.89106908309E+00  0.88000000000E+00 0. -1.
        -11    1    4    4    0    0  0.30749037142E-01  0.25121144571E-02  0.12370591057E-03  0.30855962607E-01  0.51100000000E-03 0. -1.
         11    1    4    4    0    0  0.92929376950E-01  0.42921144236E-01  0.81596329937E-02  0.10268853127E+00  0.51100000000E-03 0.  1.
</event>
<event>
 8    1  0.1042301E+005  0.1043930E+01  0.7957747E-01            NaN
         13   -1    0    0    0    0  0.00000000000E+00  0.00000000000E+00  0.74505805969E-08  0.10566000000E+00  0.10566000000E+00 0. -1.
     999900   -1    0    0    0    0 -0.00000000000E+00 -0.00000000000E+00 -0.74505805969E-08  0.93827000000E+00  0.93827000000E+00 0.  1.
     999902    2    1    2    0    0  0.12561538352E-01  0.19859842551E-01 -0.16090067977E-02  0.10203759240E+01  0.10201040299E+01 0.  0.
     999903    2    3    3    0    0  0.74709380083E-01 -0.10046132874E+00  0.26424492224E-01  0.12957548871E+00  0.20434858517E-01 0.  0.
         14    1    1    2    0    0 -0.12561538352E-01 -0.19859842551E-01  0.16090067977E-02  0.23554075970E-01  0.00000000000E+00 0.  1.
     999901    1    3    3    0    0 -0.62147841730E-01  0.12032117129E+00 -0.28033499022E-01  0.89080043532E+00  0.88000000000E+00 0.  1.
        -11    1    4    4    0    0  0.14061298248E-01 -0.33779396086E-01  0.50722159826E-02  0.36942606897E-01  0.51100000000E-03 0. -1.
         11    1    4    4    0    0  0.60648081835E-01 -0.66681932649E-01  0.21352276241E-01  0.92632881817E-01  0.51100000000E-03 0.  1.
</event>
<event>
 8    1  0.1042301E+005  0.1043930E+01  0.7957747E-01            NaN
         13   -1    0    0    0    0  0.00000000000E+00  0.00000000000E+00  0.74505805969E-08  0.10566000000E+00  0.10566000000E+00 0.  1.
     999900   -1    0    0    0    0 -0.00000000000E+00 -0.00000000000E+00 -0.74505805969E-08  0.93827000000E+00  0.93827000000E+00 0.  1.
     999902    2    1    2    0    0  0.20021764602E-01 -0.53868643069E-02 -0.12253211491E-01  0.10198461765E+01  0.10195617652E+01 0.  0.
     999903    2    3    3    0    0 -0.42565061275E-01  0.30884994082E-01 -0.11776860151E+00  0.13059578651E+00  0.20497527963E-01 0.  0.
         14    1    1    2    0    0 -0.20021764602E-01  0.53868643069E-02  0.12253211491E-01  0.24083823548E-01  0.00000000000E+00 0. -1.
     999901    1    3    3    0    0  0.62586825876E-01 -0.36271858389E-01  0.10551539001E+00  0.88925038994E+00  0.88000000000E+00 0. -1.
        -11    1    4    4    0    0 -0.24519676759E-01  0.18226074830E-01 -0.43757776837E-01  0.53370483479E-01  0.51100000000E-03 0. -1.
         11    1    4    4    0    0 -0.18045384515E-01  0.12658919252E-01 -0.74010824669E-01  0.77225303030E-01  0.51100000000E-03 0.  1.
</event>
<event>
 8    1  0.1042301E+005  0.1043930E+01  0.7957747E-01            NaN
         13   -1    0    0    0    0  0.00000000000E+00  0.00000000000E+00  0.74505805969E-08  0.10566000000E+00  0.10566000000E+00 0. -1.
     999900   -1    0    0    0    0 -0.00000000000E+00 -0.00000000000E+00 -0.74505805969E-08  0.93827000000E+00  0.93827000000E+00 0.  1.
     999902    2    1    2    0    0 -0.23278201433E-01  0.39885189049E-02  0.16856546135E-02  0.10202524922E+01  0.10199777073E+01 0.  0.
     999903    2    3    3    0    0 -0.76177177521E-01 -0.87194049448E-01  0.60311866871E-01  0.13202414586E+00  0.19674581848E-01 0.  0.
         14    1    1    2    0    0  0.23278201433E-01 -0.39885189049E-02 -0.16856546135E-02  0.23677507818E-01  0.00000000000E+00 0.  1.
     999901    1    3    3    0    0  0.52898976089E-01  0.91182568353E-01 -0.58626212257E-01  0.88822834632E+00  0.88000000000E+00 0.  1.
        -11    1    4    4    0    0 -0.44105954509E-01 -0.49196241685E-01  0.45189403172E-01  0.80049663954E-01  0.51100000000E-03 0. -1.
         11    1    4    4    0    0 -0.32071223012E-01 -0.37997807763E-01  0.15122463699E-01  0.51974481908E-01  0.51100000000E-03 0.  1.
</event>
<event>
 8    1  0.1042301E+005  0.1043930E+01  0.7957747E-01            NaN
         13   -1    0    0    0    0  0.00000000000E+00  0.00000000000E+00  0.74505805969E-08  0.10566000000E+00  0.10566000000E+00 0. -1.
     999900   -1    0    0    0    0 -0.00000000000E+00 -0.00000000000E+00 -0.74505805969E-08  0.93827000000E+00  0.93827000000E+00 0. -1.
     999902    2    1    2    0    0 -0.19702410758E-01  0.29520691190E-02 -0.12301108763E-01  0.10205159662E+01  0.10202473329E+01 0.  0.
     999903    2    3    3    0    0 -0.47972348565E-01 -0.11620723379E+00  0.33046421339E-01  0.13087866520E+00  0.15221420058E-01 0.  0.
         14    1    1    2    0    0  0.19702410758E-01 -0.29520691190E-02  0.12301108763E-01  0.23414033795E-01  0.00000000000E+00 0. -1.
     999901    1    3    3    0    0  0.28269937806E-01  0.11915930291E+00 -0.45347530102E-01  0.88963730101E+00  0.88000000000E+00 0. -1.
        -11    1    4    4    0    0 -0.33252402231E-01 -0.95492786990E-01  0.24278688607E-01  0.10399187691E+00  0.51100000000E-03 0. -1.
         11    1    4    4    0    0 -0.14719946334E-01 -0.20714446802E-01  0.87677327322E-02  0.26886788292E-01  0.51100000000E-03 0.  1.
</event>
<event>
 8    1  0.1042301E+005  0.1043930E+01  0.7957747E-01            NaN
         13   -1    0    0    0    0  0.00000000000E+00  0.00000000000E+00  0.74505805969E-08  0.10566000000E+00  0.10566000000E+00 0. -1.
     999900   -1    0    0    0    0 -0.00000000000E+00 -0.00000000000E+00 -0.74505805969E-08  0.93827000000E+00  0.93827000000E+00 0.  1.
     999902    2    1    2    0    0 -0.10655026368E-01  0.20492864641E-01  0.28908687607E-02  0.10206524527E+01  0.10203869780E+01 0.  0.
     999903    2    3    3    0    0  0.22622321160E-01  0.71005469835E-01 -0.10710375317E+00  0.13174428980E+00  0.18215317447E-01 0.  0.
         14    1    1    2    0    0  0.10655026368E-01 -0.20492864641E-01 -0.28908687607E-02  0.23277547343E-01  0.00000000000E+00 0.  1.
     999901    1    3    3    0    0 -0.33277347528E-01 -0.50512605193E-01  0.10999462193E+00  0.88890816286E+00  0.88000000000E+00 0. -1.
        -11    1    4    4    0    0  0.62714724111E-02  0.50391106589E-02 -0.66048425935E-02  0.10421567498E-01  0.51100000000E-03 0. -1.
         11    1    4    4    0    0  0.16350848749E-01  0.65966359176E-01 -0.10049891058E+00  0.12132272230E+00  0.51100000000E-03 0.  1.
</event>
<event>
 8    1  0.1042301E+005  0.1043930E+01  0.7957747E-01            NaN
         13   -1    0    0    0    0  0.00000000000E+00  0.00000000000E+00  0.74505805969E-08  0.10566000000E+00  0.10566000000E+00 0. -1.
     999900   -1    0    0    0    0 -0.00000000000E+00 -0.00000000000E+00 -0.74505805969E-08  0.93827000000E+00  0.93827000000E+00 0. -1.
     999902    2    1    2    0    0  0.84877876194E-02  0.21708689204E-01 -0.40460421435E-02  0.10202724392E+01  0.10199981226E+01 0.  0.
     999903    2    3    3    0    0  0.11090192143E+00  0.26733815645E-01  0.63039919652E-01  0.13178246573E+00  0.19459026939E-01 0.  0.
         14    1    1    2    0    0 -0.84877876194E-02 -0.21708689204E-01  0.40460421435E-02  0.23657560793E-01  0.00000000000E+00 0. -1.
     999901    1    3    3    0    0 -0.10241413381E+00 -0.50251264414E-02 -0.67085961796E-01  0.88848997348E+00  0.88000000000E+00 0.  1.
        -11    1    4    4    0    0  0.46085682764E-01  0.16756978360E-02  0.28024840261E-01  0.53966201568E-01  0.51100000000E-03 0. -1.
         11    1    4    4    0    0  0.64816238662E-01  0.25058117809E-01  0.35015079392E-01  0.77816264163E-01  0.51100000000E-03 0.  1.
</event>
<event>
 8    1  0.1042301E+005  0.1043930E+01  0.7957747E-01            NaN
         13   -1    0    0    0    0  0.00000000000E+00  0.00000000000E+00  0.74505805969E-08  0.10566000000E+00  0.10566000000E+00 0.  1.
     999900   -1    0    0    0    0 -0.00000000000E+00 -0.00000000000E+00 -0.74505805969E-08  0.93827000000E+00  0.93827000000E+00 0. -1.
     999902    2    1    2    0    0 -0.86569163678E-02  0.15678291643E-01 -0.15316581305E-01  0.10203641626E+01  0.10200919937E+01 0.  0.
     999903    2    3    3    0    0  0.53983424210E-01 -0.64291833786E-01  0.94193894693E-01  0.12777714858E+00  0.20170768974E-01 0.  0.
         14    1    1    2    0    0  0.86569163678E-02 -0.15678291643E-01  0.15316581305E-01  0.23565837408E-01  0.00000000000E+00 0.  1.
     999901    1    3    3    0    0 -0.62640340578E-01  0.79970125429E-01 -0.10951047600E+00  0.89258701401E+00  0.88000000000E+00 0. -1.
        -11    1    4    4    0    0  0.53261071122E-01 -0.57008469085E-01  0.79691438208E-01  0.11152440849E+00  0.51100000000E-03 0. -1.
         11    1    4    4    0    0  0.72235308801E-03 -0.72833647008E-02  0.14502456484E-01  0.16252740090E-01  0.51100000000E-03 0.  1.
</event>
<event>
 8    1  0.1042301E+005  0.1043930E+01  0.7957747E-01            NaN
         13   -1    0    0    0    0  0.00000000000E+00  0.00000000000E+00  0.74505805969E-08  0.10566000000E+00  0.10566000000E+00 0. -1.
     999900   -1    0    0    0    0 -0.00000000000E+00 -0.00000000000E+00 -0.74505805969E-08  0.93827000000E+00  0.93827000000E+00 0.  1.
     999902    2    1    2    0    0 -0.35728461834E-02  0.17463400630E-01 -0.15955083669E-01  0.10200072015E+01  0.10197266256E+01 0.  0.
     999903    2    3    3    0    0  0.38633564100E-02 -0.32328726532E-01  0.12207942728E+00  0.12782556126E+00  0.19388539490E-01 0.  0.
         14    1    1    2    0    0  0.35728461834E-02 -0.17463400630E-01  0.15955083669E-01  0.23922798463E-01  0.00000000000E+00 0. -1.
     999901    1    3    3    0    0 -0.74362025934E-02  0.49792127163E-01 -0.13803451095E+00  0.89218164028E+00  0.88000000000E+00 0.  1.
        -11    1    4    4    0    0 -0.69486649554E-03 -0.93782018540E-02  0.71213390797E-01  0.71833429957E-01  0.51100000000E-03 0. -1.
         11    1    4    4    0    0  0.45582229055E-02 -0.22950524678E-01  0.50866036485E-01  0.55992131302E-01  0.51100000000E-03 0.  1.
</event>
<event>
 8    1  0.1042301E+005  0.1043930E+01  0.7957747E-01            NaN
         13   -1    0    0    0    0  0.00000000000E+00  0.00000000000E+00  0.74505805969E-08  0.10566000000E+00  0.10566000000E+00 0. -1.
     999900   -1    0    0    0    0 -0.00000000000E+00 -0.00000000000E+00 -0.74505805969E-08  0.93827000000E+00  0.93827000000E+00 0. -1.
     999902    2    1    2    0    0 -0.93307827868E-02 -0.15625746520E-01  0.13281045310E-01  0.10213997176E+01  0.10211511981E+01 0.  0.
     999903    2    3    3    0    0 -0.12736433535E+00 -0.74205732721E-02 -0.29318084879E-01  0.13245993880E+00  0.20232312236E-01 0.  0.
         14    1    1    2    0    0  0.93307827868E-02  0.15625746520E-01 -0.13281045310E-01  0.22530282428E-01  0.00000000000E+00 0. -1.
     999901    1    3    3    0    0  0.11803355256E+00 -0.82051732483E-02  0.42599130190E-01  0.88893977878E+00  0.88000000000E+00 0. -1.
        -11    1    4    4    0    0 -0.10713156957E+00 -0.43846661862E-03 -0.19447706106E-01  0.10888452528E+00  0.51100000000E-03 0. -1.
         11    1    4    4    0    0 -0.20232765780E-01 -0.69821066535E-02 -0.98703787734E-02  0.23575413518E-01  0.51100000000E-03 0.  1.
</event>
<event>
 8    1  0.1042301E+005  0.1043930E+01  0.7957747E-01            NaN
         13   -1    0    0    0    0  0.00000000000E+00  0.00000000000E+00  0.74505805969E-08  0.10566000000E+00  0.10566000000E+00 0. -1.
     999900   -1    0    0    0    0 -0.00000000000E+00 -0.00000000000E+00 -0.74505805969E-08  0.93827000000E+00  0.93827000000E+00 0. -1.
     999902    2    1    2    0    0  0.18668677806E-01  0.13006442627E-01  0.62332521721E-02  0.10203388891E+01  0.10200661293E+01 0.  0.
     999903    2    3    3    0    0  0.38660671135E-01 -0.11664082367E+00  0.37575759567E-01  0.13006340015E+00  0.20120166835E-01 0.  0.
         14    1    1    2    0    0 -0.18668677806E-01 -0.13006442627E-01 -0.62332521721E-02  0.23591110899E-01  0.00000000000E+00 0.  1.
     999901    1    3    3    0    0 -0.19991993329E-01  0.12964726629E+00 -0.31342507395E-01  0.89027548895E+00  0.88000000000E+00 0.  1.
        -11    1    4    4    0    0  0.30858777238E-01 -0.73225706782E-01  0.31727938766E-01  0.85563961372E-01  0.51100000000E-03 0. -1.
         11    1    4    4    0    0  0.78018938968E-02 -0.43415116885E-01  0.58478208012E-02  0.44499438779E-01  0.51100000000E-03 0.  1.
</event>
<event>
 8    1  0.1042301E+005  0.1043930E+01  0.7957747E-01            NaN
         13   -1    0    0    0    0  0.00000000000E+00  0.00000000000E+00  0.74505805969E-08  0.10566000000E+00  0.10566000000E+00 0.  1.
     999900   -1    0    0    0    0 -0.00000000000E+00 -0.00000000000E+00 -0.74505805969E-08  0.93827000000E+00  0.93827000000E+00 0. -1.
     999902    2    1    2    0    0 -0.92873579147E-03  0.16394938571E-01 -0.16607713205E-01  0.10205746430E+01  0.10203073700E+01 0.  0.
     999903    2    3    3    0    0  0.20707208155E-01  0.42378195301E-03 -0.12986522484E+00  0.13290890874E+00  0.19257033487E-01 0.  0.
         14    1    1    2    0    0  0.92873579147E-03 -0.16394938571E-01  0.16607713205E-01  0.23355356962E-01  0.00000000000E+00 0. -1.
     999901    1    3    3    0    0 -0.21635943946E-01  0.15971156618E-01  0.11325751163E+00  0.88766573430E+00  0.88000000000E+00 0.  1.
        -11    1    4    4    0    0  0.94064773679E-02  0.83993023623E-02 -0.38887625555E-01  0.40884454734E-01  0.51100000000E-03 0. -1.
         11    1    4    4    0    0  0.11300730787E-01 -0.79755204093E-02 -0.90977599282E-01  0.92024454001E-01  0.51100000000E-03 0.  1.
</event>
<event>
 8    1  0.1042301E+005  0.1043930E+01  0.7957747E-01            NaN
         13   -1    0    0    0    0  0.00000000000E+00  0.00000000000E+00  0.74505805969E-08  0.10566000000E+00  0.10566000000E+00 0.  1.
     999900   -1    0    0    0    0 -0.00000000000E+00 -0.00000000000E+00 -0.74505805969E-08  0.93827000000E+00  0.93827000000E+00 0. -1.
     999902    2    1    2    0    0  0.16449584685E-01  0.17084980084E-01  0.61907822895E-03  0.10202051472E+01  0.10199292494E+01 0.  0.
     999903    2    3    3    0    0 -0.31275134821E-01 -0.82404678054E-01  0.91482630549E-01  0.12867162231E+00  0.20460930395E-01 0.  0.
         14    1    1    2    0    0 -0.16449584685E-01 -0.17084980084E-01 -0.61907822895E-03  0.23724852763E-01  0.00000000000E+00 0. -1.
     999901    1    3    3    0    0  0.47724719506E-01  0.99489658137E-01 -0.90863552320E-01  0.89153352493E+00  0.88000000000E+00 0. -1.
        -11    1    4    4    0    0 -0.64575659599E-02 -0.44048201656E-01  0.40152639341E-01  0.59953647047E-01  0.51100000000E-03 0. -1.
         11    1    4    4    0    0 -0.24817568861E-01 -0.38356476398E-01  0.51329991208E-01  0.68717975263E-01  0.51100000000E-03 0.  1.
</event>
<event>
 8    1  0.1042301E+005  0.1043930E+01  0.7957747E-01            NaN
         13   -1    0    0    0    0  0.00000000000E+00  0.00000000000E+00  0.74505805969E-08  0.10566000000E+00  0.10566000000E+00 0. -1.
     999900   -1    0    0    0    0 -0.00000000000E+00 -0.00000000000E+00 -0.74505805969E-08  0.93827000000E+00  0.93827000000E+00 0. -1.
     999902    2    1    2    0    0 -0.91300070629E-02 -0.37315882853E-02 -0.21304964677E-01  0.10204527067E+01  0.10201826029E+01 0.  0.
     999903    2    3    3    0    0  0.32391212131E-01  0.77738335988E-01  0.95205453923E-01  0.12807608340E+00  0.15715125700E-01 0.  0.
         14    1    1    2    0    0  0.91300070629E-02  0.37315882853E-02  0.21304964677E-01  0.23477293285E-01  0.00000000000E+00 0. -1.
     999901    1    3    3    0    0 -0.41521219194E-01 -0.81469924273E-01 -0.11651041860E+00  0.89237662332E+00  0.88000000000E+00 0. -1.
        -11    1    4    4    0    0  0.42361247718E-02  0.29541124451E-01  0.33591325547E-01  0.44936188756E-01  0.51100000000E-03 0. -1.
         11    1    4    4    0    0  0.28155087359E-01  0.48197211537E-01  0.61614128376E-01  0.83139894639E-01  0.51100000000E-03 0.  1.
</event>
<event>
 8    1  0.1042301E+005  0.1043930E+01  0.7957747E-01            NaN
         13   -1    0    0    0    0  0.00000000000E+00  0.00000000000E+00  0.74505805969E-08  0.10566000000E+00  0.10566000000E+00 0.  1.
     999900   -1    0    0    0    0 -0.00000000000E+00 -0.00000000000E+00 -0.74505805969E-08  0.93827000000E+00  0.93827000000E+00 0. -1.
     999902    2    1    2    0    0 -0.23204281831E-03  0.22633014339E-01  0.10074732194E-01  0.10191548631E+01  0.10188536831E+01 0.  0.
     999903    2    3    3    0    0  0.13492237427E-01 -0.10457278998E+00  0.69638589907E-01  0.12790993282E+00  0.19847136706E-01 0.  0.
         14    1    1    2    0    0  0.23204281831E-03 -0.22633014339E-01 -0.10074732194E-01  0.24775136947E-01  0.00000000000E+00 0. -1.
     999901    1    3    3    0    0 -0.13724280245E-01  0.12720580432E+00 -0.59563857713E-01  0.89124493023E+00  0.88000000000E+00 0. -1.
        -11    1    4    4    0    0  0.12033027777E-01 -0.69762063600E-01  0.56840276603E-01  0.90788861874E-01  0.51100000000E-03 0.  1.
         11    1    4    4    0    0  0.14592096497E-02 -0.34810726378E-01  0.12798313305E-01  0.37121070946E-01  0.51100000000E-03 0. -1.
</event>
<event>
 8    1  0.1042301E+005  0.1043930E+01  0.7957747E-01            NaN
         13   -1    0    0    0    0  0.00000000000E+00  0.00000000000E+00  0.74505805969E-08  0.10566000000E+00  0.10566000000E+00 0. -1.
     999900   -1    0    0    0    0 -0.00000000000E+00 -0.00000000000E+00 -0.74505805969E-08  0.93827000000E+00  0.93827000000E+00 0.  1.
     999902    2    1    2    0    0 -0.22419251143E-01  0.23460199184E-02 -0.62980229881E-02  0.10205250491E+01  0.10202566266E+01 0.  0.
     999903    2    3    3    0    0 -0.11559127875E+00  0.23202426094E-02  0.62520044766E-01  0.13293451638E+00  0.19902321465E-01 0.  0.
         14    1    1    2    0    0  0.22419251143E-01 -0.23460199184E-02  0.62980229881E-02  0.23404950862E-01  0.00000000000E+00 0. -1.
     999901    1    3    3    0    0  0.93172027604E-01  0.25777309004E-04 -0.68818067754E-01  0.88759053276E+00  0.88000000000E+00 0.  1.
        -11    1    4    4    0    0 -0.38583814977E-01 -0.12561159626E-02  0.10762959090E-01  0.40079808069E-01  0.51100000000E-03 0.  1.
         11    1    4    4    0    0 -0.77007463770E-01  0.35763585720E-02  0.51757085676E-01  0.92854708312E-01  0.51100000000E-03 0. -1.
</event>
<event>
 8    1  0.1042301E+005  0.1043930E+01  0.7957747E-01            NaN
         13   -1    0    0    0    0  0.00000000000E+00  0.00000000000E+00  0.74505805969E-08  0.10566000000E+00  0.10566000000E+00 0. -1.
     999900   -1    0    0    0    0 -0.00000000000E+00 -0.00000000000E+00 -0.74505805969E-08  0.93827000000E+00  0.93827000000E+00 0. -1.
     999902    2    1    2    0    0  0.29338131866E-02 -0.95829460086E-02  0.21806969818E-01  0.10199303324E+01  0.10196479289E+01 0.  0.
     999903    2    3    3    0    0 -0.37759271869E-01 -0.12288517269E+00 -0.16529491837E-01  0.13090670724E+00  0.18352482631E-01 0.  0.
         14    1    1    2    0    0 -0.29338131866E-02  0.95829460086E-02 -0.21806969818E-01  0.23999667637E-01  0.00000000000E+00 0.  1.
     999901    1    3    3    0    0  0.40693085056E-01  0.11330222669E+00  0.38336461655E-01  0.88902362513E+00  0.88000000000E+00 0.  1.
        -11    1    4    4    0    0 -0.29987957268E-01 -0.92341148372E-01 -0.20211106659E-01  0.99171141050E-01  0.51100000000E-03 0. -1.
         11    1    4    4    0    0 -0.77713146018E-02 -0.30544024322E-01  0.36816148226E-02  0.31735566186E-01  0.51100000000E-03 0.  1.
</event>
<event>
 8    1  0.1042301E+005  0.1043930E+01  0.7957747E-01            NaN
         13   -1    0    0    0    0  0.00000000000E+00  0.00000000000E+00  0.74505805969E-08  0.10566000000E+00  0.10566000000E+00 0. -1.
     999900   -1    0    0    0    0 -0.00000000000E+00 -0.00000000000E+00 -0.74505805969E-08  0.93827000000E+00  0.93827000000E+00 0.  1.
     999902    2    1    2    0    0 -0.13663608827E-01  0.14189426904E-01 -0.13387100719E-01  0.10201130206E+01  0.10198349505E+01 0.  0.
     999903    2    3    3    0    0 -0.35429135904E-01 -0.26611646289E-01 -0.12293603677E+00  0.13211559091E+00  0.19438539949E-01 0.  0.
         14    1    1    2    0    0  0.13663608827E-01 -0.14189426904E-01  0.13387100719E-01  0.23816979399E-01  0.00000000000E+00 0. -1.
     999901    1    3    3    0    0  0.21765527077E-01  0.40801073193E-01  0.10954893606E+00  0.88799742969E+00  0.88000000000E+00 0. -1.
        -11    1    4    4    0    0 -0.14552175229E-01 -0.19668312694E-03 -0.42062134524E-01  0.44511670041E-01  0.51100000000E-03 0. -1.
         11    1    4    4    0    0 -0.20876960675E-01 -0.26414963162E-01 -0.80873902250E-01  0.87603920871E-01  0.51100000000E-03 0.  1.
</event>
<event>
 8    1  0.1042301E+005  0.1043930E+01  0.7957747E-01            NaN
         13   -1    0    0    0    0  0.00000000000E+00  0.00000000000E+00  0.74505805969E-08  0.10566000000E+00  0.10566000000E+00 0. -1.
     999900   -1    0    0    0    0 -0.00000000000E+00 -0.00000000000E+00 -0.74505805969E-08  0.93827000000E+00  0.93827000000E+00 0. -1.
     999902    2    1    2    0    0  0.33118460017E-02  0.78037814521E-02 -0.21729783663E-01  0.10206051029E+01  0.10203385346E+01 0.  0.
     999903    2    3    3    0    0 -0.75581117872E-02  0.53425559679E-02 -0.13185874102E+00  0.13367071922E+00  0.19886317818E-01 0.  0.
         14    1    1    2    0    0 -0.33118460017E-02 -0.78037814521E-02  0.21729783663E-01  0.23324897147E-01  0.00000000000E+00 0. -1.
     999901    1    3    3    0    0  0.10869957789E-01  0.24612254842E-02  0.11012895736E+00  0.88693438363E+00  0.88000000000E+00 0.  1.
        -11    1    4    4    0    0 -0.12246759721E-01 -0.23721640637E-02 -0.88751942634E-01  0.89625770447E-01  0.51100000000E-03 0.  1.
         11    1    4    4    0    0  0.46886479334E-02  0.77147200316E-02 -0.43106798387E-01  0.44044948777E-01  0.51100000000E-03 0. -1.
</event>
<event>
 8    1  0.1042301E+005  0.1043930E+01  0.7957747E-01            NaN
         13   -1    0    0    0    0  0.00000000000E+00  0.00000000000E+00  0.74505805969E-08  0.10566000000E+00  0.10566000000E+00 0. -1.
     999900   -1    0    0    0    0 -0.00000000000E+00 -0.00000000000E+00 -0.74505805969E-08  0.93827000000E+00  0.93827000000E+00 0.  1.
     999902    2    1    2    0    0  0.14550384272E-03  0.22950679218E-01  0.87621051283E-02  0.10193631660E+01  0.10190670904E+01 0.  0.
     999903    2    3    3    0    0 -0.40915444179E-01 -0.72299816369E-01 -0.94284100863E-01  0.12729972712E+00  0.20356616380E-01 0.  0.
         14    1    1    2    0    0 -0.14550384272E-03 -0.22950679218E-01 -0.87621051283E-02  0.24566834029E-01  0.00000000000E+00 0.  1.
     999901    1    3    3    0    0  0.41060948022E-01  0.95250495587E-01  0.10304620599E+00  0.89206343885E+00  0.88000000000E+00 0. -1.
        -11    1    4    4    0    0 -0.19612466397E-01 -0.33515402817E-01 -0.59317446717E-01  0.70899588646E-01  0.51100000000E-03 0. -1.
         11    1    4    4    0    0 -0.21302977782E-01 -0.38784413552E-01 -0.34966654146E-01  0.56400138476E-01  0.51100000000E-03 0.  1.
</event>
<event>
 8    1  0.1042301E+005  0.1043930E+01  0.7957747E-01            NaN
         13   -1    0    0    0    0  0.00000000000E+00  0.00000000000E+00  0.74505805969E-08  0.10566000000E+00  0.10566000000E+00 0.  1.
     999900   -1    0    0    0    0 -0.00000000000E+00 -0.00000000000E+00 -0.74505805969E-08  0.93827000000E+00  0.93827000000E+00 0. -1.
     999902    2    1    2    0    0 -0.14450603583E-01  0.12384906434E-01 -0.16155169044E-01  0.10189661193E+01  0.10186602756E+01 0.  0.
     999903    2    3    3    0    0 -0.27481992818E-01 -0.10609762114E+00  0.60009969147E-01  0.12766984159E+00  0.26199750250E-01 0.  0.
         14    1    1    2    0    0  0.14450603583E-01 -0.12384906434E-01  0.16155169044E-01  0.24963880670E-01  0.00000000000E+00 0.  1.
     999901    1    3    3    0    0  0.13031389235E-01  0.11848252757E+00 -0.76165138191E-01  0.89129627774E+00  0.88000000000E+00 0. -1.
        -11    1    4    4    0    0 -0.84844907437E-02 -0.14180660518E-01  0.51430063101E-03  0.16540959526E-01  0.51100000000E-03 0.  1.
         11    1    4    4    0    0 -0.18997502074E-01 -0.91916960619E-01  0.59495668516E-01  0.11112888206E+00  0.51100000000E-03 0. -1.
</event>
<event>
 8    1  0.1042301E+005  0.1043930E+01  0.7957747E-01            NaN
         13   -1    0    0    0    0  0.00000000000E+00  0.00000000000E+00  0.74505805969E-08  0.10566000000E+00  0.10566000000E+00 0. -1.
     999900   -1    0    0    0    0 -0.00000000000E+00 -0.00000000000E+00 -0.74505805969E-08  0.93827000000E+00  0.93827000000E+00 0.  1.
     999902    2    1    2    0    0 -0.67551693756E-02 -0.15918022669E-01  0.15605076719E-01  0.10206376369E+01  0.10203718203E+01 0.  0.
     999903    2    3    3    0    0 -0.24976560565E-01  0.10499160288E+00  0.70654984911E-01  0.13047942117E+00  0.19638920669E-01 0.  0.
         14    1    1    2    0    0  0.67551693756E-02  0.15918022669E-01 -0.15605076719E-01  0.23292363092E-01  0.00000000000E+00 0.  1.
     999901    1    3    3    0    0  0.18221391190E-01 -0.12090962555E+00 -0.55049908192E-01  0.89015821573E+00  0.88000000000E+00 0.  1.
        -11    1    4    4    0    0 -0.20327712985E-01  0.66227130707E-01  0.54822503654E-01  0.88346006049E-01  0.51100000000E-03 0.  1.
         11    1    4    4    0    0 -0.46488475805E-02  0.38764472169E-01  0.15832481257E-01  0.42133415126E-01  0.51100000000E-03 0. -1.
</event>
<event>
 8    1  0.1042301E+005  0.1043930E+01  0.7957747E-01            NaN
         13   -1    0    0    0    0  0.00000000000E+00  0.00000000000E+00  0.74505805969E-08  0.10566000000E+00  0.10566000000E+00 0. -1.
     999900   -1    0    0    0    0 -0.00000000000E+00 -0.00000000000E+00 -0.74505805969E-08  0.93827000000E+00  0.93827000000E+00 0. -1.
     999902    2    1    2    0    0  0.21781754592E-01  0.55632386286E-02 -0.94853527159E-02  0.10195298694E+01  0.10192378467E+01 0.  0.
     999903    2    3    3    0    0 -0.11827073226E+00 -0.45358358666E-02  0.41249034782E-01  0.12695456812E+00  0.20185132640E-01 0.  0.
         14    1    1    2    0    0 -0.21781754592E-01 -0.55632386286E-02  0.94853527159E-02  0.24400130600E-01  0.00000000000E+00 0. -1.
     999901    1    3    3    0    0  0.14005248685E+00  0.10099074495E-01 -0.50734387498E-01  0.89257530128E+00  0.88000000000E+00 0. -1.
        -11    1    4    4    0    0 -0.47296805306E-01 -0.66183153673E-02  0.25813745935E-01  0.54289966759E-01  0.51100000000E-03 0. -1.
         11    1    4    4    0    0 -0.70973926956E-01  0.20824795007E-02  0.15435288846E-01  0.72664601362E-01  0.51100000000E-03 0.  1.
</event>
<event>
 8    1  0.1042301E+005  0.1043930E+01  0.7957747E-01            NaN
         13   -1    0    0    0    0  0.00000000000E+00  0.00000000000E+00  0.74505805969E-08  0.10566000000E+00  0.10566000000E+00 0.  1.
     999900   -1    0    0    0    0 -0.00000000000E+00 -0.00000000000E+00 -0.74505805969E-08  0.93827000000E+00  0.93827000000E+00 0.  1.
     999902    2    1    2    0    0  0.22429686957E-01  0.38650864860E-02  0.86467407322E-02  0.10195826002E+01  0.10192918536E+01 0.  0.
     999903    2    3    3    0    0  0.11988958362E+00  0.52713231459E-01 -0.54378958661E-02  0.13274386082E+00  0.20956260216E-01 0.  0.
         14    1    1    2    0    0 -0.22429686957E-01 -0.38650864860E-02 -0.86467407322E-02  0.24347399775E-01  0.00000000000E+00 0. -1.
     999901    1    3    3    0    0 -0.97459896663E-01 -0.48848144973E-01  0.14084636598E-01  0.88683873941E+00  0.88000000000E+00 0. -1.
        -11    1    4    4    0    0  0.10593281959E+00  0.44059909838E-01  0.19068346178E-02  0.11474726602E+00  0.51100000000E-03 0.  1.
         11    1    4    4    0    0  0.13956764032E-01  0.86533216209E-02 -0.73447304839E-02  0.17996594794E-01  0.51100000000E-03 0. -1.
</event>
<event>
 8    1  0.1042301E+005  0.1043930E+01  0.7957747E-01            NaN
         13   -1    0    0    0    0  0.00000000000E+00  0.00000000000E+00  0.74505805969E-08  0.10566000000E+00  0.10566000000E+00 0.  1.
     999900   -1    0    0    0    0 -0.00000000000E+00 -0.00000000000E+00 -0.74505805969E-08  0.93827000000E+00  0.93827000000E+00 0.  1.
     999902    2    1    2    0    0  0.14208695750E-01  0.74797757802E-02  0.20696937312E-01  0.10177346322E+01  0.10173974564E+01 0.  0.
     999903    2    3    3    0    0 -0.53813862037E-01 -0.11257393871E+00  0.74734409984E-02  0.12688401419E+00  0.21791679901E-01 0.  0.
         14    1    1    2    0    0 -0.14208695750E-01 -0.74797757802E-02 -0.20696937312E-01  0.26195367811E-01  0.00000000000E+00 0. -1.
     999901    1    3    3    0    0  0.68022557788E-01  0.12005371449E+00  0.13223496313E-01  0.89085061800E+00  0.88000000000E+00 0. -1.
        -11    1    4    4    0    0 -0.43518381556E-01 -0.84625288110E-01  0.14548508029E-01  0.96266344731E-01  0.51100000000E-03 0.  1.
         11    1    4    4    0    0 -0.10295480481E-01 -0.27948650601E-01 -0.70750670308E-02  0.30617669461E-01  0.51100000000E-03 0. -1.
</event>
<event>
 8    1  0.1198727E+005  0.1043930E+01  0.7957747E-01            NaN
         13   -1    0    0    0    0  0.00000000000E+00  0.00000000000E+00  0.74505805969E-08  0.10566000000E+00  0.10566000000E+00 0. -1.
     999900   -1    0    0    0    0 -0.00000000000E+00 -0.00000000000E+00 -0.74505805969E-08  0.93827000000E+00  0.93827000000E+00 0.  1.
     999902    2    1    2    0    0 -0.21959987552E-01  0.12663107069E-01  0.30786665818E-03  0.10185786664E+01  0.10182631337E+01 0.  0.
     999903    2    3    3    0    0 -0.10815281247E+00  0.57747982199E-01 -0.44966393990E-01  0.13206210833E+00  0.19661220062E-01 0.  0.
         14    1    1    2    0    0  0.21959987552E-01 -0.12663107069E-01 -0.30786665818E-03  0.25351333610E-01  0.00000000000E+00 0. -1.
     999901    1    3    3    0    0  0.86192824923E-01 -0.45084875130E-01  0.45274260649E-01  0.88651655806E+00  0.88000000000E+00 0. -1.
        -11    1    4    4    0    0 -0.44417247798E-01  0.27458404845E-01 -0.94872536751E-02  0.53076595613E-01  0.51100000000E-03 0. -1.
         11    1    4    4    0    0 -0.63735564677E-01  0.30289577354E-01 -0.35479140315E-01  0.78985512719E-01  0.51100000000E-03 0.  1.
</event>
<event>
 8    1  0.1042301E+005  0.1043930E+01  0.7957747E-01            NaN
         13   -1    0    0    0    0  0.00000000000E+00  0.00000000000E+00  0.74505805969E-08  0.10566000000E+00  0.10566000000E+00 0. -1.
     999900   -1    0    0    0    0 -0.00000000000E+00 -0.00000000000E+00 -0.74505805969E-08  0.93827000000E+00  0.93827000000E+00 0. -1.
     999902    2    1    2    0    0 -0.19104820847E-01 -0.11789558263E-01 -0.11978537580E-01  0.10184845048E+01  0.10181665941E+01 0.  0.
     999903    2    3    3    0    0  0.11252462448E+00  0.19670566159E-01  0.48988273311E-01  0.12605355378E+00  0.20998219236E-01 0.  0.
         14    1    1    2    0    0  0.19104820847E-01  0.11789558263E-01  0.11978537580E-01  0.25445495205E-01  0.00000000000E+00 0. -1.
     999901    1    3    3    0    0 -0.13162944532E+00 -0.31460124423E-01 -0.60966810891E-01  0.89243095102E+00  0.88000000000E+00 0. -1.
        -11    1    4    4    0    0  0.14330420032E-01  0.16824307813E-02  0.14427306497E-01  0.20410776697E-01  0.51100000000E-03 0. -1.
         11    1    4    4    0    0  0.98194204445E-01  0.17988135378E-01  0.34560966814E-01  0.10564277708E+00  0.51100000000E-03 0.  1.
</event>
<event>
 8    1  0.1042301E+005  0.1043930E+01  0.7957747E-01            NaN
         13   -1    0    0    0    0  0.00000000000E+00  0.00000000000E+00  0.74505805969E-08  0.10566000000E+00  0.10566000000E+00 0.  1.
     999900   -1    0    0    0    0 -0.00000000000E+00 -0.00000000000E+00 -0.74505805969E-08  0.93827000000E+00  0.93827000000E+00 0. -1.
     999902    2    1    2    0    0  0.53872867818E-02  0.21126379371E-01 -0.10297845002E-01  0.10198179205E+01  0.10195328335E+01 0.  0.
     999903    2    3    3    0    0 -0.47098988173E-01  0.57593038018E-01  0.10486545938E+00  0.13001613760E+00  0.19291416479E-01 0.  0.
         14    1    1    2    0    0 -0.53872867818E-02 -0.21126379371E-01  0.10297845002E-01  0.24112079460E-01  0.00000000000E+00 0.  1.
     999901    1    3    3    0    0  0.52486274955E-01 -0.36466658647E-01 -0.11516330438E+00  0.88980178294E+00  0.88000000000E+00 0. -1.
        -11    1    4    4    0    0 -0.27763351570E-01  0.39290535688E-01  0.81237096479E-01  0.94415448156E-01  0.51100000000E-03 0.  1.
         11    1    4    4    0    0 -0.19335636603E-01  0.18302502329E-01  0.23628362901E-01  0.35600689442E-01  0.51100000000E-03 0. -1.
</event>
<event>
 8    1  0.1042301E+005  0.1043930E+01  0.7957747E-01            NaN
         13   -1    0    0    0    0  0.00000000000E+00  0.00000000000E+00  0.74505805969E-08  0.10566000000E+00  0.10566000000E+00 0.  1.
     999900   -1    0    0    0    0 -0.00000000000E+00 -0.00000000000E+00 -0.74505805969E-08  0.93827000000E+00  0.93827000000E+00 0. -1.
     999902    2    1    2    0    0 -0.29945287454E-02  0.29634222699E-01  0.31622873485E-02  0.10139774639E+01  0.10135349737E+01 0.  0.
     999903    2    3    3    0    0  0.14268857450E-01 -0.11829005957E+00  0.12859109639E-01  0.12141169817E+00  0.19475761032E-01 0.  0.
         14    1    1    2    0    0  0.29945287454E-02 -0.29634222699E-01 -0.31622873485E-02  0.29952536097E-01  0.00000000000E+00 0.  1.
     999901    1    3    3    0    0 -0.17263386195E-01  0.14792428227E+00 -0.96968222901E-02  0.89256576573E+00  0.88000000000E+00 0. -1.
        -11    1    4    4    0    0  0.14832823487E-01 -0.70681898696E-01  0.14938628782E-01  0.73752065780E-01  0.51100000000E-03 0. -1.
         11    1    4    4    0    0 -0.56396603740E-03 -0.47608160871E-01 -0.20795191433E-02  0.47659632395E-01  0.51100000000E-03 0.  1.
</event>
<event>
 8    1  0.1042301E+005  0.1043930E+01  0.7957747E-01            NaN
         13   -1    0    0    0    0  0.00000000000E+00  0.00000000000E+00  0.74505805969E-08  0.10566000000E+00  0.10566000000E+00 0.  1.
     999900   -1    0    0    0    0 -0.00000000000E+00 -0.00000000000E+00 -0.74505805969E-08  0.93827000000E+00  0.93827000000E+00 0. -1.
     999902    2    1    2    0    0 -0.19998025230E-01 -0.11180493001E-01  0.91079897377E-04  0.10210185895E+01  0.10207614938E+01 0.  0.
     999903    2    3    3    0    0 -0.11942732688E+00  0.53748019970E-01  0.12637881901E-01  0.13295365938E+00  0.19110819626E-01 0.  0.
         14    1    1    2    0    0  0.19998025230E-01  0.11180493001E-01 -0.91079897377E-04  0.22911410528E-01  0.00000000000E+00 0. -1.
     999901    1    3    3    0    0  0.99429301649E-01 -0.64928512970E-01 -0.12546802003E-01  0.88806493009E+00  0.88000000000E+00 0. -1.
        -11    1    4    4    0    0 -0.72852891915E-01  0.22521210007E-01  0.83991700275E-02  0.76717377033E-01  0.51100000000E-03 0.  1.
         11    1    4    4    0    0 -0.46574434964E-01  0.31226809963E-01  0.42387118731E-02  0.56236282345E-01  0.51100000000E-03 0. -1.
</event>
<event>
 8    1  0.1042301E+005  0.1043930E+01  0.7957747E-01            NaN
         13   -1    0    0    0    0  0.00000000000E+00  0.00000000000E+00  0.74505805969E-08  0.10566000000E+00  0.10566000000E+00 0.  1.
     999900   -1    0    0    0    0 -0.00000000000E+00 -0.00000000000E+00 -0.74505805969E-08  0.93827000000E+00  0.93827000000E+00 0. -1.
     999902    2    1    2    0    0 -0.65585416919E-02  0.23670314919E-01 -0.78585150329E-03  0.10193553008E+01  0.10190590334E+01 0.  0.
     999903    2    3    3    0    0  0.10687047671E+00  0.51944463065E-01 -0.48430966161E-01  0.13034707441E+00  0.22918884961E-01 0.  0.
         14    1    1    2    0    0  0.65585416919E-02 -0.23670314919E-01  0.78585150329E-03  0.24574699186E-01  0.00000000000E+00 0.  1.
     999901    1    3    3    0    0 -0.11342901840E+00 -0.28274148146E-01  0.47645114658E-01  0.88900822641E+00  0.88000000000E+00 0. -1.
        -11    1    4    4    0    0  0.15078490449E-01  0.42437545172E-02 -0.14836678361E-01  0.21581438145E-01  0.51100000000E-03 0.  1.
         11    1    4    4    0    0  0.91791986261E-01  0.47700708548E-01 -0.33594287801E-01  0.10876563626E+00  0.51100000000E-03 0. -1.
</event>
<event>
 8    1  0.1042301E+005  0.1043930E+01  0.7957747E-01            NaN
         13   -1    0    0    0    0  0.00000000000E+00  0.00000000000E+00  0.74505805969E-08  0.10566000000E+00  0.10566000000E+00 0.  1.
     999900   -1    0    0    0    0 -0.00000000000E+00 -0.00000000000E+00 -0.74505805969E-08  0.93827000000E+00  0.93827000000E+00 0. -1.
     999902    2    1    2    0    0 -0.99567938441E-02 -0.19615086163E-01  0.61306543704E-02  0.10210941888E+01  0.10208388062E+01 0.  0.
     999903    2    3    3    0    0 -0.35613898765E-01 -0.10833502507E+00 -0.66139414689E-01  0.13331466807E+00  0.19838122555E-01 0.  0.
         14    1    1    2    0    0  0.99567938441E-02  0.19615086163E-01 -0.61306543704E-02  0.22835811171E-01  0.00000000000E+00 0. -1.
     999901    1    3    3    0    0  0.25657104921E-01  0.88719938903E-01  0.72270069060E-01  0.88777952076E+00  0.88000000000E+00 0. -1.
        -11    1    4    4    0    0 -0.35795327636E-01 -0.83397270151E-01 -0.53500926854E-01  0.10535188866E+00  0.51100000000E-03 0.  1.
         11    1    4    4    0    0  0.18142887115E-03 -0.24937754916E-01 -0.12638487835E-01  0.27962779412E-01  0.51100000000E-03 0. -1.
</event>
<event>
 8    1  0.1042301E+005  0.1043930E+01  0.7957747E-01            NaN
         13   -1    0    0    0    0  0.00000000000E+00  0.00000000000E+00  0.74505805969E-08  0.10566000000E+00  0.10566000000E+00 0.  1.
     999900   -1    0    0    0    0 -0.00000000000E+00 -0.00000000000E+00 -0.74505805969E-08  0.93827000000E+00  0.93827000000E+00 0.  1.
     999902    2    1    2    0    0 -0.17982002391E-01  0.15906639827E-01  0.56951514524E-02  0.10192559580E+01  0.10189572609E+01 0.  0.
     999903    2    3    3    0    0 -0.90149719840E-01 -0.52393393556E-01 -0.74601384249E-01  0.13003123515E+00  0.21695988300E-01 0.  0.
         14    1    1    2    0    0  0.17982002391E-01 -0.15906639827E-01 -0.56951514524E-02  0.24674042041E-01  0.00000000000E+00 0.  1.
     999901    1    3    3    0    0  0.72167717449E-01  0.68300033383E-01  0.80296535701E-01  0.88922472280E+00  0.88000000000E+00 0. -1.
        -11    1    4    4    0    0 -0.36498236714E-01 -0.26713499515E-01 -0.20640352156E-01  0.49719388549E-01  0.51100000000E-03 0.  1.
         11    1    4    4    0    0 -0.53651483126E-01 -0.25679894040E-01 -0.53961032093E-01  0.80311846605E-01  0.51100000000E-03 0. -1.
</event>
<event>
 8    1  0.1042301E+005  0.1043930E+01  0.7957747E-01            NaN
         13   -1    0    0    0    0  0.00000000000E+00  0.00000000000E+00  0.74505805969E-08  0.10566000000E+00  0.10566000000E+00 0.  1.
     999900   -1    0    0    0    0 -0.00000000000E+00 -0.00000000000E+00 -0.74505805969E-08  0.93827000000E+00  0.93827000000E+00 0.  1.
     999902    2    1    2    0    0  0.41325373772E-03  0.16373699247E-02  0.23263276456E-01  0.10206055109E+01  0.10203389521E+01 0.  0.
     999903    2    3    3    0    0  0.50738957444E-02 -0.29939462133E-01  0.12852635648E+00  0.13375764691E+00  0.21212448791E-01 0.  0.
         14    1    1    2    0    0 -0.41325373772E-03 -0.16373699247E-02 -0.23263276456E-01  0.23324489070E-01  0.00000000000E+00 0. -1.
     999901    1    3    3    0    0 -0.46606420067E-02  0.31576832058E-01 -0.10526308003E+00  0.88684786402E+00  0.88000000000E+00 0.  1.
        -11    1    4    4    0    0  0.12511124811E-01 -0.11831665070E-01  0.67663456629E-01  0.69822066901E-01  0.51100000000E-03 0.  1.
         11    1    4    4    0    0 -0.74372290669E-02 -0.18107797064E-01  0.60862899856E-01  0.63935580005E-01  0.51100000000E-03 0. -1.
</event>
<event>
 8    1  0.1042301E+005  0.1043930E+01  0.7957747E-01            NaN
         13   -1    0    0    0    0  0.00000000000E+00  0.00000000000E+00  0.74505805969E-08  0.10566000000E+00  0.10566000000E+00 0.  1.
     999900   -1    0    0    0    0 -0.00000000000E+00 -0.00000000000E+00 -0.74505805969E-08  0.93827000000E+00  0.93827000000E+00 0.  1.
     999902    2    1    2    0    0  0.41141411336E-02 -0.20956277756E-01  0.10959394911E-02  0.10225455940E+01  0.10223219645E+01 0.  0.
     999903    2    3    3    0    0  0.10959901498E+00 -0.40589413719E-01 -0.62202176255E-01  0.13377162385E+00  0.19138757191E-01 0.  0.
         14    1    1    2    0    0 -0.41141411336E-02  0.20956277756E-01 -0.10959394911E-02  0.21384405955E-01  0.00000000000E+00 0.  1.
     999901    1    3    3    0    0 -0.10548487384E+00  0.19633135962E-01  0.63298115746E-01  0.88877397019E+00  0.88000000000E+00 0. -1.
        -11    1    4    4    0    0  0.24601105421E-01 -0.13225625046E-01 -0.23271428679E-01  0.36358658660E-01  0.51100000000E-03 0. -1.
         11    1    4    4    0    0  0.84997909557E-01 -0.27363788673E-01 -0.38930747576E-01  0.97412965191E-01  0.51100000000E-03 0.  1.
</event>
<event>
 7    1  0.1042301E+005  0.1043930E+01  0.7957747E-01            NaN
         13   -1    0    0    0    0  0.00000000000E+00  0.00000000000E+00  0.74505805969E-08  0.10566000000E+00  0.10566000000E+00 0.  1.
     999900   -1    0    0    0    0 -0.00000000000E+00 -0.00000000000E+00 -0.74505805969E-08  0.93827000000E+00  0.93827000000E+00 0. -1.
     999902    2    1    2    0    0  0.14408826398E-01 -0.14232311418E-01 -0.12236636365E-01  0.10202676198E+01  0.10199931901E+01 0.  0.
         14    1    1    2    0    0 -0.14408826398E-01  0.14232311418E-01  0.12236636365E-01  0.23662380184E-01  0.00000000000E+00 0.  1.
     999901    1    3    3    0    0 -0.92413444202E-01  0.17380570581E-01  0.48607171143E-01  0.88634360492E+00  0.88000000000E+00 0. -1.
        -11    1    3    3    0    0  0.30806234035E-01 -0.20087829775E-01 -0.15207083545E-02  0.36811936045E-01  0.51100000000E-03 0.  1.
         11    1    3    3    0    0  0.76016036565E-01 -0.11525052223E-01 -0.59323099153E-01  0.97112078847E-01  0.51100000000E-03 0. -1.
</event>
<event>
 8    1  0.1042301E+005  0.1043930E+01  0.7957747E-01            NaN
         13   -1    0    0    0    0  0.00000000000E+00  0.00000000000E+00  0.74505805969E-08  0.10566000000E+00  0.10566000000E+00 0. -1.
     999900   -1    0    0    0    0 -0.00000000000E+00 -0.00000000000E+00 -0.74505805969E-08  0.93827000000E+00  0.93827000000E+00 0.  1.
     999902    2    1    2    0    0  0.14405557133E-01 -0.29855333290E-02 -0.18358661259E-01  0.10204039734E+01  0.10201327340E+01 0.  0.
     999903    2    3    3    0    0  0.51971623086E-01  0.11753190938E+00  0.13207625080E-01  0.13083548599E+00  0.20704678350E-01 0.  0.
         14    1    1    2    0    0 -0.14405557133E-01  0.29855333290E-02  0.18358661259E-01  0.23526026625E-01  0.00000000000E+00 0. -1.
     999901    1    3    3    0    0 -0.37566065953E-01 -0.12051744271E+00 -0.31566286339E-01  0.88956848738E+00  0.88000000000E+00 0. -1.
        -11    1    4    4    0    0  0.36252773485E-01  0.61567860358E-01  0.11135034977E-02  0.71458841478E-01  0.51100000000E-03 0. -1.
         11    1    4    4    0    0  0.15718849601E-01  0.55964049025E-01  0.12094121582E-01  0.59376644515E-01  0.51100000000E-03 0.  1.
</event>
<event>
 8    1  0.1042301E+005  0.1043930E+01  0.7957747E-01            NaN
         13   -1    0    0    0    0  0.00000000000E+00  0.00000000000E+00  0.74505805969E-08  0.10566000000E+00  0.10566000000E+00 0.  1.
     999900   -1    0    0    0    0 -0.00000000000E+00 -0.00000000000E+00 -0.74505805969E-08  0.93827000000E+00  0.93827000000E+00 0. -1.
     999902    2    1    2    0    0 -0.20684425194E-01  0.30032353584E-02  0.11250609740E-01  0.10201930860E+01  0.10199169042E+01 0.  0.
     999903    2    3    3    0    0  0.10650421986E+00  0.49321605455E-01 -0.47124210433E-01  0.12793193447E+00  0.19238478004E-01 0.  0.
         14    1    1    2    0    0  0.20684425194E-01 -0.30032353584E-02 -0.11250609740E-01  0.23736914032E-01  0.00000000000E+00 0.  1.
     999901    1    3    3    0    0 -0.12718864506E+00 -0.46318370097E-01  0.58374820172E-01  0.89226115150E+00  0.88000000000E+00 0. -1.
        -11    1    4    4    0    0  0.80285130677E-01  0.39751170165E-01 -0.27170931046E-01  0.93618258648E-01  0.51100000000E-03 0. -1.
         11    1    4    4    0    0  0.26219089184E-01  0.95704352898E-02 -0.19953279387E-01  0.34313675824E-01  0.51100000000E-03 0.  1.
</event>
<event>
 7    1  0.1042301E+005  0.1043930E+01  0.7957747E-01            NaN
         13   -1    0    0    0    0  0.00000000000E+00  0.00000000000E+00  0.74505805969E-08  0.10566000000E+00  0.10566000000E+00 0.  1.
     999900   -1    0    0    0    0 -0.00000000000E+00 -0.00000000000E+00 -0.74505805969E-08  0.93827000000E+00  0.93827000000E+00 0.  1.
     999903    2    1    2    0    0  0.74812680032E-01 -0.26582253213E-01 -0.54472642011E-01  0.98362323661E-01  0.20107827055E-01 0.  0.
         14    1    1    2    0    0 -0.14708681327E-01 -0.53821269009E-01 -0.13015860270E-01  0.57292991916E-01  0.00000000000E+00 0. -1.
     999901    1    1    2    0    0 -0.60103998705E-01  0.80403522222E-01  0.67488502281E-01  0.88827468442E+00  0.88000000000E+00 0. -1.
        -11    1    3    3    0    0  0.13765648093E-01 -0.24968617673E-02 -0.19476849113E-01  0.23986165981E-01  0.51100000000E-03 0.  1.
         11    1    3    3    0    0  0.61047031939E-01 -0.24085391446E-01 -0.34995792898E-01  0.74376157680E-01  0.51100000000E-03 0. -1.
</event>
<event>
 8    1  0.1042301E+005  0.1043930E+01  0.7957747E-01            NaN
         13   -1    0    0    0    0  0.00000000000E+00  0.00000000000E+00  0.74505805969E-08  0.10566000000E+00  0.10566000000E+00 0.  1.
     999900   -1    0    0    0    0 -0.00000000000E+00 -0.00000000000E+00 -0.74505805969E-08  0.93827000000E+00  0.93827000000E+00 0.  1.
     999902    2    1    2    0    0 -0.45483499736E-02  0.15009615417E-01  0.15661084245E-01  0.10217659390E+01  0.10215255202E+01 0.  0.
     999903    2    3    3    0    0 -0.78568445327E-01  0.99722152306E-01  0.38976233075E-01  0.13429831442E+00  0.19984550294E-01 0.  0.
         14    1    1    2    0    0  0.45483499736E-02 -0.15009615417E-01 -0.15661084245E-01  0.22164061049E-01  0.00000000000E+00 0.  1.
     999901    1    3    3    0    0  0.74020095353E-01 -0.84712536889E-01 -0.23315148830E-01  0.88746762453E+00  0.88000000000E+00 0.  1.
        -11    1    4    4    0    0 -0.45675630054E-01  0.41872548006E-01  0.19221180595E-01  0.64879028676E-01  0.51100000000E-03 0. -1.
         11    1    4    4    0    0 -0.32892815272E-01  0.57849604299E-01  0.19755052480E-01  0.69419285747E-01  0.51100000000E-03 0.  1.
</event>
<event>
 8    1  0.1092445E+005  0.1043930E+01  0.7957747E-01            NaN
         13   -1    0    0    0    0  0.00000000000E+00  0.00000000000E+00  0.74505805969E-08  0.10566000000E+00  0.10566000000E+00 0.  1.
     999900   -1    0    0    0    0 -0.00000000000E+00 -0.00000000000E+00 -0.74505805969E-08  0.93827000000E+00  0.93827000000E+00 0.  1.
     999902    2    1    2    0    0  0.15471480213E-01 -0.14442330979E-01 -0.10594230978E-01  0.10202617649E+01  0.10199871977E+01 0.  0.
     999903    2    3    3    0    0  0.46150712317E-01 -0.11826097227E+00  0.29885490568E-01  0.13270436762E+00  0.24530813893E-01 0.  0.
         14    1    1    2    0    0 -0.15471480213E-01  0.14442330979E-01  0.10594230978E-01  0.23668235128E-01  0.00000000000E+00 0.  1.
     999901    1    3    3    0    0 -0.30679232104E-01  0.10381864129E+00 -0.40479721546E-01  0.88755739725E+00  0.88000000000E+00 0. -1.
        -11    1    4    4    0    0  0.34535366045E-01 -0.55922358895E-01  0.11981915525E-01  0.66811893798E-01  0.51100000000E-03 0. -1.
         11    1    4    4    0    0  0.11615346272E-01 -0.62338613370E-01  0.17903575043E-01  0.65892473821E-01  0.51100000000E-03 0.  1.
</event>
<event>
 8    1  0.1042301E+005  0.1043930E+01  0.7957747E-01            NaN
         13   -1    0    0    0    0  0.00000000000E+00  0.00000000000E+00  0.74505805969E-08  0.10566000000E+00  0.10566000000E+00 0. -1.
     999900   -1    0    0    0    0 -0.00000000000E+00 -0.00000000000E+00 -0.74505805969E-08  0.93827000000E+00  0.93827000000E+00 0. -1.
     999902    2    1    2    0    0 -0.26765493762E-03 -0.11802654603E-01 -0.20272427587E-01  0.10204705538E+01  0.10202008653E+01 0.  0.
     999903    2    3    3    0    0  0.59617072169E-03 -0.86417355498E-02 -0.13167736684E+00  0.13344079215E+00  0.19811134723E-01 0.  0.
         14    1    1    2    0    0  0.26765493762E-03  0.11802654603E-01  0.20272427587E-01  0.23459446181E-01  0.00000000000E+00 0. -1.
     999901    1    3    3    0    0 -0.86382565931E-03 -0.31609190536E-02  0.11140493925E+00  0.88702976167E+00  0.88000000000E+00 0.  1.
        -11    1    4    4    0    0 -0.54798520604E-02 -0.58039256002E-04 -0.10952656503E-01  0.12257811902E-01  0.51100000000E-03 0.  1.
         11    1    4    4    0    0  0.60760227821E-02 -0.85836962938E-02 -0.12072471033E+00  0.12118298024E+00  0.51100000000E-03 0. -1.
</event>
<event>
 8    1  0.1042301E+005  0.1043930E+01  0.7957747E-01            NaN
         13   -1    0    0    0    0  0.00000000000E+00  0.00000000000E+00  0.74505805969E-08  0.10566000000E+00  0.10566000000E+00 0. -1.
     999900   -1    0    0    0    0 -0.00000000000E+00 -0.00000000000E+00 -0.74505805969E-08  0.93827000000E+00  0.93827000000E+00 0.  1.
     999902    2    1    2    0    0  0.17998026661E-01  0.13327971988E-01  0.81828806447E-02  0.10200862726E+01  0.10198075702E+01 0.  0.
     999903    2    3    3    0    0  0.77188911055E-01 -0.99387775819E-01  0.28923575323E-01  0.13068277754E+00  0.20133483648E-01 0.  0.
         14    1    1    2    0    0 -0.17998026661E-01 -0.13327971988E-01 -0.81828806447E-02  0.23843727406E-01  0.00000000000E+00 0.  1.
     999901    1    3    3    0    0 -0.59190884395E-01  0.11271574781E+00 -0.20740694678E-01  0.88940349505E+00  0.88000000000E+00 0.  1.
        -11    1    4    4    0    0  0.50354342528E-01 -0.53209731374E-01  0.23785202536E-01  0.77024881077E-01  0.51100000000E-03 0. -1.
         11    1    4    4    0    0  0.26834568527E-01 -0.46178044445E-01  0.51383727864E-02  0.53657896462E-01  0.51100000000E-03 0.  1.
</event>
<event>
 8    1  0.1042301E+005  0.1043930E+01  0.7957747E-01            NaN
         13   -1    0    0    0    0  0.00000000000E+00  0.00000000000E+00  0.74505805969E-08  0.10566000000E+00  0.10566000000E+00 0.  1.
     999900   -1    0    0    0    0 -0.00000000000E+00 -0.00000000000E+00 -0.74505805969E-08  0.93827000000E+00  0.93827000000E+00 0. -1.
     999902    2    1    2    0    0 -0.16918374213E-01 -0.91859407201E-04 -0.16297685686E-01  0.10204384189E+01  0.10201679824E+01 0.  0.
     999903    2    3    3    0    0  0.82913872752E-01  0.44883845841E-01 -0.86634634432E-01  0.13086741107E+00  0.27045322799E-01 0.  0.
         14    1    1    2    0    0  0.16918374213E-01  0.91859407201E-04  0.16297685686E-01  0.23491581107E-01  0.00000000000E+00 0.  1.
     999901    1    3    3    0    0 -0.99832246966E-01 -0.44975705248E-01  0.70336948746E-01  0.88957100782E+00  0.88000000000E+00 0.  1.
        -11    1    4    4    0    0  0.72233789591E-01  0.29059273882E-01 -0.61057306270E-01  0.98946538733E-01  0.51100000000E-03 0.  1.
         11    1    4    4    0    0  0.10680083162E-01  0.15824571959E-01 -0.25577328162E-01  0.31920872339E-01  0.51100000000E-03 0. -1.
</event>
<event>
 7    1  0.1042301E+005  0.1043930E+01  0.7957747E-01            NaN
         13   -1    0    0    0    0  0.00000000000E+00  0.00000000000E+00  0.74505805969E-08  0.10566000000E+00  0.10566000000E+00 0.  1.
     999900   -1    0    0    0    0 -0.00000000000E+00 -0.00000000000E+00 -0.74505805969E-08  0.93827000000E+00  0.93827000000E+00 0. -1.
     999903    2    1    2    0    0  0.91318379476E-01 -0.42745316636E-01  0.10510845554E-01  0.10330101952E+00  0.19859864939E-01 0.  0.
         14    1    1    2    0    0  0.17655860391E-01 -0.43433728195E-01 -0.16515878899E-01  0.49709077711E-01  0.00000000000E+00 0. -1.
     999901    1    1    2    0    0 -0.10897423987E+00  0.86179044831E-01  0.60050333450E-02  0.89091990277E+00  0.88000000000E+00 0. -1.
        -11    1    3    3    0    0  0.71784772016E-01 -0.33071298644E-01  0.16387393325E-01  0.80719093580E-01  0.51100000000E-03 0. -1.
         11    1    3    3    0    0  0.19533607460E-01 -0.96740179923E-02 -0.58765477707E-02  0.22581925942E-01  0.51100000000E-03 0.  1.
</event>
<event>
 8    1  0.1042301E+005  0.1043930E+01  0.7957747E-01            NaN
         13   -1    0    0    0    0  0.00000000000E+00  0.00000000000E+00  0.74505805969E-08  0.10566000000E+00  0.10566000000E+00 0.  1.
     999900   -1    0    0    0    0 -0.00000000000E+00 -0.00000000000E+00 -0.74505805969E-08  0.93827000000E+00  0.93827000000E+00 0.  1.
     999902    2    1    2    0    0  0.59891137205E-02 -0.81205526066E-02  0.21898792031E-01  0.10198183856E+01  0.10195333097E+01 0.  0.
     999903    2    3    3    0    0 -0.31808403152E-01  0.10613777575E+00 -0.60287107823E-01  0.12783288120E+00  0.20729404102E-01 0.  0.
         14    1    1    2    0    0 -0.59891137205E-02  0.81205526066E-02 -0.21898792031E-01  0.24111614426E-01  0.00000000000E+00 0. -1.
     999901    1    3    3    0    0  0.37797516873E-01 -0.11425832835E+00  0.82185899854E-01  0.89198550437E+00  0.88000000000E+00 0. -1.
        -11    1    4    4    0    0 -0.25842096350E-01  0.65642484749E-01 -0.47099083286E-01  0.84825317654E-01  0.51100000000E-03 0. -1.
         11    1    4    4    0    0 -0.59663068020E-02  0.40495290998E-01 -0.13188024537E-01  0.43007563545E-01  0.51100000000E-03 0.  1.
</event>
<event>
 8    1  0.1042301E+005  0.1043930E+01  0.7957747E-01            NaN
         13   -1    0    0    0    0  0.00000000000E+00  0.00000000000E+00  0.74505805969E-08  0.10566000000E+00  0.10566000000E+00 0. -1.
     999900   -1    0    0    0    0 -0.00000000000E+00 -0.00000000000E+00 -0.74505805969E-08  0.93827000000E+00  0.93827000000E+00 0. -1.
     999902    2    1    2    0    0 -0.15882216112E-01 -0.96253282337E-02 -0.15477443420E-01  0.10197547443E+01  0.10194681435E+01 0.  0.
     999903    2    3    3    0    0  0.35580367996E-01 -0.86037869110E-01  0.87070934155E-01  0.12902277358E+00  0.19926139085E-01 0.  0.
         14    1    1    2    0    0  0.15882216112E-01  0.96253282337E-02  0.15477443420E-01  0.24175255678E-01  0.00000000000E+00 0. -1.
     999901    1    3    3    0    0 -0.51462584109E-01  0.76412540876E-01 -0.10254837758E+00  0.89073197075E+00  0.88000000000E+00 0. -1.
        -11    1    4    4    0    0  0.98068081704E-02 -0.24540935536E-01  0.37745704126E-01  0.46080693402E-01  0.51100000000E-03 0. -1.
         11    1    4    4    0    0  0.25773559826E-01 -0.61496933574E-01  0.49325230029E-01  0.82942080174E-01  0.51100000000E-03 0.  1.
</event>
<event>
 8    1  0.1042301E+005  0.1043930E+01  0.7957747E-01            NaN
         13   -1    0    0    0    0  0.00000000000E+00  0.00000000000E+00  0.74505805969E-08  0.10566000000E+00  0.10566000000E+00 0.  1.
     999900   -1    0    0    0    0 -0.00000000000E+00 -0.00000000000E+00 -0.74505805969E-08  0.93827000000E+00  0.93827000000E+00 0.  1.
     999902    2    1    2    0    0  0.16407000167E-01  0.95290617612E-02  0.13661856904E-01  0.10205496876E+01  0.10202818365E+01 0.  0.
     999903    2    3    3    0    0  0.61690948824E-01 -0.65068079466E-01  0.95314342478E-01  0.13247170801E+00  0.20598577829E-01 0.  0.
         14    1    1    2    0    0 -0.16407000167E-01 -0.95290617612E-02 -0.13661856904E-01  0.23380312371E-01  0.00000000000E+00 0. -1.
     999901    1    3    3    0    0 -0.45283948657E-01  0.74597141227E-01 -0.81652485574E-01  0.88807797962E+00  0.88000000000E+00 0.  1.
        -11    1    4    4    0    0  0.13256171385E-01 -0.23159659396E-01  0.38547121536E-01  0.46885366617E-01  0.51100000000E-03 0. -1.
         11    1    4    4    0    0  0.48434777439E-01 -0.41908420070E-01  0.56767220942E-01  0.85586341392E-01  0.51100000000E-03 0.  1.
</event>
<event>
 8    1  0.1042301E+005  0.1043930E+01  0.7957747E-01            NaN
         13   -1    0    0    0    0  0.00000000000E+00  0.00000000000E+00  0.74505805969E-08  0.10566000000E+00  0.10566000000E+00 0.  1.
     999900   -1    0    0    0    0 -0.00000000000E+00 -0.00000000000E+00 -0.74505805969E-08  0.93827000000E+00  0.93827000000E+00 0. -1.
     999902    2    1    2    0    0  0.12712194689E-01 -0.62338158577E-02 -0.18084537890E-01  0.10209623953E+01  0.10207040226E+01 0.  0.
     999903    2    3    3    0    0 -0.32765346522E-01 -0.34662324420E-01  0.11776457198E+00  0.12892463407E+00  0.21863718522E-01 0.  0.
         14    1    1    2    0    0 -0.12712194689E-01  0.62338158577E-02  0.18084537890E-01  0.22967604678E-01  0.00000000000E+00 0.  1.
     999901    1    3    3    0    0  0.45477541210E-01  0.28428508562E-01 -0.13584910987E+00  0.89203776126E+00  0.88000000000E+00 0. -1.
        -11    1    4    4    0    0 -0.21172089289E-01 -0.24119649554E-01  0.10097036130E+00  0.10594946834E+00  0.51100000000E-03 0.  1.
         11    1    4    4    0    0 -0.11593257233E-01 -0.10542674866E-01  0.16794210680E-01  0.22975165722E-01  0.51100000000E-03 0. -1.
</event>
<event>
 8    1  0.1042301E+005  0.1043930E+01  0.7957747E-01            NaN
         13   -1    0    0    0    0  0.00000000000E+00  0.00000000000E+00  0.74505805969E-08  0.10566000000E+00  0.10566000000E+00 0.  1.
     999900   -1    0    0    0    0 -0.00000000000E+00 -0.00000000000E+00 -0.74505805969E-08  0.93827000000E+00  0.93827000000E+00 0. -1.
     999902    2    1    2    0    0  0.21092335573E-01  0.10871715009E-01  0.20063495622E-02  0.10201160074E+01  0.10198380078E+01 0.  0.
     999903    2    3    3    0    0  0.30251624748E-03  0.12811912777E+00 -0.23527643579E-01  0.13172917878E+00  0.19606736405E-01 0.  0.
         14    1    1    2    0    0 -0.21092335573E-01 -0.10871715009E-01 -0.20063495622E-02  0.23813992646E-01  0.00000000000E+00 0. -1.
     999901    1    3    3    0    0  0.20789819326E-01 -0.11724741276E+00  0.25533993141E-01  0.88838682858E+00  0.88000000000E+00 0.  1.
        -11    1    4    4    0    0  0.19664446900E-02  0.11355479988E+00 -0.14472718698E-01  0.11449139788E+00  0.51100000000E-03 0. -1.
         11    1    4    4    0    0 -0.16639284426E-02  0.14564327889E-01 -0.90549248807E-02  0.17237780898E-01  0.51100000000E-03 0.  1.
</event>
<event>
 8    1  0.1042301E+005  0.1043930E+01  0.7957747E-01            NaN
         13   -1    0    0    0    0  0.00000000000E+00  0.00000000000E+00  0.74505805969E-08  0.10566000000E+00  0.10566000000E+00 0. -1.
     999900   -1    0    0    0    0 -0.00000000000E+00 -0.00000000000E+00 -0.74505805969E-08  0.93827000000E+00  0.93827000000E+00 0. -1.
     999902    2    1    2    0    0 -0.88385832426E-02 -0.11928240072E-01  0.81360927340E-02  0.10270007511E+01  0.10268612093E+01 0.  0.
     999903    2    3    3    0    0 -0.96527826024E-01 -0.68400050569E-01 -0.68386377499E-01  0.13754352491E+00  0.15663221365E-01 0.  0.
         14    1    1    2    0    0  0.88385832426E-02  0.11928240072E-01 -0.81360927340E-02  0.16929248947E-01  0.00000000000E+00 0.  1.
     999901    1    3    3    0    0  0.87689242781E-01  0.56471810498E-01  0.76522470233E-01  0.88945722614E+00  0.88000000000E+00 0. -1.
        -11    1    4    4    0    0 -0.68105571169E-01 -0.42418488611E-01 -0.39692788982E-01  0.89518018401E-01  0.51100000000E-03 0.  1.
         11    1    4    4    0    0 -0.28422254855E-01 -0.25981561958E-01 -0.28693588517E-01  0.48025506512E-01  0.51100000000E-03 0. -1.
</event>
<event>
 8    1  0.1042301E+005  0.1043930E+01  0.7957747E-01            NaN
         13   -1    0    0    0    0  0.00000000000E+00  0.00000000000E+00  0.74505805969E-08  0.10566000000E+00  0.10566000000E+00 0.  1.
     999900   -1    0    0    0    0 -0.00000000000E+00 -0.00000000000E+00 -0.74505805969E-08  0.93827000000E+00  0.93827000000E+00 0.  1.
     999902    2    1    2    0    0  0.12665842197E-01  0.59609431059E-02  0.16891889199E-01  0.10219916244E+01  0.10217561295E+01 0.  0.
     999903    2    3    3    0    0 -0.90834620986E-01 -0.89253836000E-01  0.23231354348E-01  0.13080231299E+00  0.18771618136E-01 0.  0.
         14    1    1    2    0    0 -0.12665842197E-01 -0.59609431059E-02 -0.16891889199E-01  0.21938375555E-01  0.00000000000E+00 0. -1.
     999901    1    3    3    0    0  0.10350046318E+00  0.95214779106E-01 -0.63394651487E-02  0.89118931146E+00  0.88000000000E+00 0. -1.
        -11    1    4    4    0    0 -0.31887623956E-01 -0.42245691223E-01  0.14625905355E-01  0.54915364125E-01  0.51100000000E-03 0. -1.
         11    1    4    4    0    0 -0.58946997030E-01 -0.47008144777E-01  0.86054489923E-02  0.75886948862E-01  0.51100000000E-03 0.  1.
</event>
<event>
 8    1  0.1087792E+005  0.1043930E+01  0.7957747E-01            NaN
         13   -1    0    0    0    0  0.00000000000E+00  0.00000000000E+00  0.74505805969E-08  0.10566000000E+00  0.10566000000E+00 0.  1.
     999900   -1    0    0    0    0 -0.00000000000E+00 -0.00000000000E+00 -0.74505805969E-08  0.93827000000E+00  0.93827000000E+00 0.  1.
     999902    2    1    2    0    0  0.77656645612E-02 -0.82795093965E-02 -0.20115842928E-01  0.10208323170E+01  0.10205709757E+01 0.  0.
     999903    2    3    3    0    0 -0.11918416844E+00  0.35614770825E-01 -0.34949155627E-01  0.13051608383E+00  0.18431677904E-01 0.  0.
         14    1    1    2    0    0 -0.77656645612E-02  0.82795093965E-02  0.20115842928E-01  0.23097682971E-01  0.00000000000E+00 0.  1.
     999901    1    3    3    0    0  0.12694983300E+00 -0.43894280221E-01  0.14833312699E-01  0.89031623320E+00  0.88000000000E+00 0. -1.
        -11    1    4    4    0    0 -0.67775959587E-01  0.10691230505E-01 -0.19200988403E-01  0.71251822323E-01  0.51100000000E-03 0. -1.
         11    1    4    4    0    0 -0.51408208856E-01  0.24923540319E-01 -0.15748167224E-01  0.59264261505E-01  0.51100000000E-03 0.  1.
</event>
<event>
 8    1  0.1042301E+005  0.1043930E+01  0.7957747E-01            NaN
         13   -1    0    0    0    0  0.00000000000E+00  0.00000000000E+00  0.74505805969E-08  0.10566000000E+00  0.10566000000E+00 0.  1.
     999900   -1    0    0    0    0 -0.00000000000E+00 -0.00000000000E+00 -0.74505805969E-08  0.93827000000E+00  0.93827000000E+00 0.  1.
     999902    2    1    2    0    0 -0.13088348163E-01 -0.16461577591E-01 -0.14095608984E-01  0.10186125241E+01  0.10182978443E+01 0.  0.
     999903    2    3    3    0    0 -0.13367334285E-01  0.74421592179E-01 -0.10323080892E+00  0.12945285774E+00  0.19600598417E-01 0.  0.
         14    1    1    2    0    0  0.13088348163E-01  0.16461577591E-01  0.14095608984E-01  0.25317475922E-01  0.00000000000E+00 0.  1.
     999901    1    3    3    0    0  0.27898612251E-03 -0.90883169770E-01  0.89135199934E-01  0.88915966634E+00  0.88000000000E+00 0. -1.
        -11    1    4    4    0    0 -0.16008981658E-01  0.66722578377E-01 -0.83331775829E-01  0.10794737580E+00  0.51100000000E-03 0. -1.
         11    1    4    4    0    0  0.26416473728E-02  0.76990138019E-02 -0.19899033088E-01  0.21505481934E-01  0.51100000000E-03 0.  1.
</event>
<event>
 8    1  0.1042301E+005  0.1043930E+01  0.7957747E-01            NaN
         13   -1    0    0    0    0  0.00000000000E+00  0.00000000000E+00  0.74505805969E-08  0.10566000000E+00  0.10566000000E+00 0.  1.
     999900   -1    0    0    0    0 -0.00000000000E+00 -0.00000000000E+00 -0.74505805969E-08  0.93827000000E+00  0.93827000000E+00 0. -1.
     999902    2    1    2    0    0  0.18730227163E-02 -0.22448292334E-01  0.10374152703E-01  0.10191296555E+01  0.10188278548E+01 0.  0.
     999903    2    3    3    0    0  0.73448600133E-01 -0.87625283491E-01 -0.61015396646E-01  0.13094748319E+00  0.18747734737E-01 0.  0.
         14    1    1    2    0    0 -0.18730227163E-02  0.22448292334E-01 -0.10374152703E-01  0.24800344496E-01  0.00000000000E+00 0. -1.
     999901    1    3    3    0    0 -0.71575577417E-01  0.65176991157E-01  0.71389549349E-01  0.88818217231E+00  0.88000000000E+00 0.  1.
        -11    1    4    4    0    0  0.26456358121E-01 -0.20848869117E-01 -0.23575194520E-01  0.41117698697E-01  0.51100000000E-03 0. -1.
         11    1    4    4    0    0  0.46992242012E-01 -0.66776414374E-01 -0.37440202126E-01  0.89829784494E-01  0.51100000000E-03 0.  1.
</event>
<event>
 8    1  0.1042301E+005  0.1043930E+01  0.7957747E-01            NaN
         13   -1    0    0    0    0  0.00000000000E+00  0.00000000000E+00  0.74505805969E-08  0.10566000000E+00  0.10566000000E+00 0.  1.
     999900   -1    0    0    0    0 -0.00000000000E+00 -0.00000000000E+00 -0.74505805969E-08  0.93827000000E+00  0.93827000000E+00 0.  1.
     999902    2    1    2    0    0 -0.14865049615E-01  0.14576618547E-01  0.12179815262E-01  0.10198095645E+01  0.10195242775E+01 0.  0.
     999903    2    3    3    0    0 -0.30456278134E-01 -0.11878536963E+00  0.35651850298E-01  0.12931563263E+00  0.20345257331E-01 0.  0.
         14    1    1    2    0    0  0.14865049615E-01 -0.14576618547E-01 -0.12179815262E-01  0.24120435488E-01  0.00000000000E+00 0. -1.
     999901    1    3    3    0    0  0.15591228518E-01  0.13336198818E+00 -0.23472035035E-01  0.89049393189E+00  0.88000000000E+00 0.  1.
        -11    1    4    4    0    0  0.22535795076E-02 -0.21441754072E-01  0.48857146435E-02  0.22112412054E-01  0.51100000000E-03 0.  1.
         11    1    4    4    0    0 -0.32709857641E-01 -0.97343615558E-01  0.30766135654E-01  0.10720322057E+00  0.51100000000E-03 0. -1.
</event>
<event>
 8    1  0.1042301E+005  0.1043930E+01  0.7957747E-01            NaN
         13   -1    0    0    0    0  0.00000000000E+00  0.00000000000E+00  0.74505805969E-08  0.10566000000E+00  0.10566000000E+00 0.  1.
     999900   -1    0    0    0    0 -0.00000000000E+00 -0.00000000000E+00 -0.74505805969E-08  0.93827000000E+00  0.93827000000E+00 0. -1.
     999902    2    1    2    0    0  0.47726900037E-02 -0.57073452456E-02  0.21743039962E-01  0.10209493093E+01  0.10206906387E+01 0.  0.
     999903    2    3    3    0    0  0.43323228257E-01 -0.20265784595E-01 -0.11802612119E+00  0.12896639992E+00  0.20360817599E-01 0.  0.
         14    1    1    2    0    0 -0.47726900037E-02  0.57073452456E-02 -0.21743039962E-01  0.22980690730E-01  0.00000000000E+00 0. -1.
     999901    1    3    3    0    0 -0.38550538253E-01  0.14558439350E-01  0.13976916116E+00  0.89198290935E+00  0.88000000000E+00 0.  1.
        -11    1    4    4    0    0  0.32842074300E-01 -0.21396993143E-01 -0.74558472350E-01  0.84235741108E-01  0.51100000000E-03 0.  1.
         11    1    4    4    0    0  0.10481153957E-01  0.11312085475E-02 -0.43467648844E-01  0.44730658815E-01  0.51100000000E-03 0. -1.
</event>
<event>
 7    1  0.1042301E+005  0.1043930E+01  0.7957747E-01            NaN
         13   -1    0    0    0    0  0.00000000000E+00  0.00000000000E+00  0.74505805969E-08  0.10566000000E+00  0.10566000000E+00 0. -1.
     999900   -1    0    0    0    0 -0.00000000000E+00 -0.00000000000E+00 -0.74505805969E-08  0.93827000000E+00  0.93827000000E+00 0. -1.
     999903    2    1    2    0    0  0.10024401617E+00  0.24442735185E-01  0.41100518293E-01  0.11294503828E+00  0.20518747200E-01 0.  0.
         14    1    1    2    0    0  0.12473246555E-01  0.22344550155E-01 -0.33974774801E-01  0.42534058400E-01  0.00000000000E+00 0.  1.
     999901    1    1    2    0    0 -0.11271726273E+00 -0.46787285340E-01 -0.71257434924E-02  0.88845090332E+00  0.88000000000E+00 0.  1.
        -11    1    3    3    0    0  0.10878720091E-01 -0.13776392158E-02  0.10034215605E-01  0.14872492879E-01  0.51100000000E-03 0.  1.
         11    1    3    3    0    0  0.89365296082E-01  0.25820374401E-01  0.31066302688E-01  0.98072545403E-01  0.51100000000E-03 0. -1.
</event>
<event>
 8    1  0.1042301E+005  0.1043930E+01  0.7957747E-01            NaN
         13   -1    0    0    0    0  0.00000000000E+00  0.00000000000E+00  0.74505805969E-08  0.10566000000E+00  0.10566000000E+00 0.  1.
     999900   -1    0    0    0    0 -0.00000000000E+00 -0.00000000000E+00 -0.74505805969E-08  0.93827000000E+00  0.93827000000E+00 0. -1.
     999902    2    1    2    0    0 -0.27461680338E-02 -0.17192577807E-01 -0.11498766107E-01  0.10230650104E+01  0.10228522218E+01 0.  0.
     999903    2    3    3    0    0 -0.16927746134E-01 -0.11438687771E+00  0.65108520837E-01  0.13429252795E+00  0.20602358955E-01 0.  0.
         14    1    1    2    0    0  0.27461680338E-02  0.17192577807E-01  0.11498766107E-01  0.20864989636E-01  0.00000000000E+00 0. -1.
     999901    1    3    3    0    0  0.14181578100E-01  0.97194299905E-01 -0.76607286944E-01  0.88877248242E+00  0.88000000000E+00 0.  1.
        -11    1    4    4    0    0 -0.45464105337E-02 -0.84869270065E-01  0.52411095283E-01  0.99853126540E-01  0.51100000000E-03 0.  1.
         11    1    4    4    0    0 -0.12381335600E-01 -0.29517607647E-01  0.12697425554E-01  0.34439401405E-01  0.51100000000E-03 0. -1.
</event>
<event>
 8    1  0.1042301E+005  0.1043930E+01  0.7957747E-01            NaN
         13   -1    0    0    0    0  0.00000000000E+00  0.00000000000E+00  0.74505805969E-08  0.10566000000E+00  0.10566000000E+00 0.  1.
     999900   -1    0    0    0    0 -0.00000000000E+00 -0.00000000000E+00 -0.74505805969E-08  0.93827000000E+00  0.93827000000E+00 0.  1.
     999902    2    1    2    0    0  0.16201995096E-01  0.17933327855E-01  0.39388925620E-02  0.10194427836E+01  0.10191486473E+01 0.  0.
     999903    2    3    3    0    0  0.10743431172E+00  0.65420805734E-01  0.37541216367E-01  0.13281574119E+00  0.20215464939E-01 0.  0.
         14    1    1    2    0    0 -0.16201995096E-01 -0.17933327855E-01 -0.39388925620E-02  0.24487216413E-01  0.00000000000E+00 0. -1.
     999901    1    3    3    0    0 -0.91232316625E-01 -0.47487477879E-01 -0.33602323805E-01  0.88662704240E+00  0.88000000000E+00 0.  1.
        -11    1    4    4    0    0  0.32662098065E-01  0.11295587514E-01  0.15682942021E-01  0.37955483645E-01  0.51100000000E-03 0. -1.
         11    1    4    4    0    0  0.74772213656E-01  0.54125218220E-01  0.21858274345E-01  0.94860257541E-01  0.51100000000E-03 0.  1.
</event>
<event>
 8    1  0.1042301E+005  0.1043930E+01  0.7957747E-01            NaN
         13   -1    0    0    0    0  0.00000000000E+00  0.00000000000E+00  0.74505805969E-08  0.10566000000E+00  0.10566000000E+00 0. -1.
     999900   -1    0    0    0    0 -0.00000000000E+00 -0.00000000000E+00 -0.74505805969E-08  0.93827000000E+00  0.93827000000E+00 0.  1.
     999902    2    1    2    0    0 -0.86665113990E-02 -0.13269692893E-01 -0.17875266031E-01  0.10200402887E+01  0.10197604975E+01 0.  0.
     999903    2    3    3    0    0  0.49330963284E-01  0.61341318035E-01 -0.10157857021E+00  0.13103142873E+00  0.25587656216E-01 0.  0.
         14    1    1    2    0    0  0.86665113990E-02  0.13269692893E-01  0.17875266031E-01  0.23889711278E-01  0.00000000000E+00 0.  1.
     999901    1    3    3    0    0 -0.57997474683E-01 -0.74611010928E-01  0.83703304182E-01  0.88900886000E+00  0.88000000000E+00 0. -1.
        -11    1    4    4    0    0  0.25910527724E-01  0.13152874993E-01 -0.39244597495E-01  0.48833934114E-01  0.51100000000E-03 0. -1.
         11    1    4    4    0    0  0.23420435560E-01  0.48188443042E-01 -0.62333972717E-01  0.82197494612E-01  0.51100000000E-03 0.  1.
</event>
<event>
 8    1  0.1042301E+005  0.1043930E+01  0.7957747E-01            NaN
         13   -1    0    0    0    0  0.00000000000E+00  0.00000000000E+00  0.74505805969E-08  0.10566000000E+00  0.10566000000E+00 0. -1.
     999900   -1    0    0    0    0 -0.00000000000E+00 -0.00000000000E+00 -0.74505805969E-08  0.93827000000E+00  0.93827000000E+00 0. -1.
     999902    2    1    2    0    0  0.21328777478E-02 -0.24013326120E-01  0.60382396275E-02  0.10190774481E+01  0.10187743596E+01 0.  0.
     999903    2    3    3    0    0 -0.10632003663E+00 -0.23374310749E-01  0.68513086626E-01  0.13022113265E+00  0.20327118817E-01 0.  0.
         14    1    1    2    0    0 -0.21328777478E-02  0.24013326120E-01 -0.60382396275E-02  0.24852551914E-01  0.00000000000E+00 0.  1.
     999901    1    3    3    0    0  0.10845291437E+00 -0.63901537075E-03 -0.62474846999E-01  0.88885631543E+00  0.88000000000E+00 0. -1.
        -11    1    4    4    0    0 -0.13976418724E-01 -0.73111619555E-02  0.17277676393E-01  0.23400269059E-01  0.51100000000E-03 0. -1.
         11    1    4    4    0    0 -0.92343617902E-01 -0.16063148793E-01  0.51235410233E-01  0.10682086359E+00  0.51100000000E-03 0.  1.
</event>
<event>
 8    1  0.1042301E+005  0.1043930E+01  0.7957747E-01            NaN
         13   -1    0    0    0    0  0.00000000000E+00  0.00000000000E+00  0.74505805969E-08  0.10566000000E+00  0.10566000000E+00 0. -1.
     999900   -1    0    0    0    0 -0.00000000000E+00 -0.00000000000E+00 -0.74505805969E-08  0.93827000000E+00  0.93827000000E+00 0.  1.
     999902    2    1    2    0    0  0.19502138267E-01  0.37965986997E-02 -0.12039594879E-01  0.10206985686E+01  0.10204341569E+01 0.  0.
     999903    2    3    3    0    0  0.91943702284E-01  0.54176008909E-01 -0.78125961088E-01  0.13382018183E+00  0.20383594838E-01 0.  0.
         14    1    1    2    0    0 -0.19502138267E-01 -0.37965986997E-02  0.12039594879E-01  0.23231431371E-01  0.00000000000E+00 0. -1.
     999901    1    3    3    0    0 -0.72441564017E-01 -0.50379410209E-01  0.66086366208E-01  0.88687838680E+00  0.88000000000E+00 0. -1.
        -11    1    4    4    0    0  0.44248522915E-01  0.33558686647E-01 -0.30643993764E-01  0.63430534480E-01  0.51100000000E-03 0.  1.
         11    1    4    4    0    0  0.47695179370E-01  0.20617322262E-01 -0.47481967324E-01  0.70389647352E-01  0.51100000000E-03 0. -1.
</event>
<event>
 8    1  0.1042301E+005  0.1043930E+01  0.7957747E-01            NaN
         13   -1    0    0    0    0  0.00000000000E+00  0.00000000000E+00  0.74505805969E-08  0.10566000000E+00  0.10566000000E+00 0.  1.
     999900   -1    0    0    0    0 -0.00000000000E+00 -0.00000000000E+00 -0.74505805969E-08  0.93827000000E+00  0.93827000000E+00 0. -1.
     999902    2    1    2    0    0  0.22621997602E-01  0.20971914212E-02  0.54696275704E-02  0.10205618633E+01  0.10202942943E+01 0.  0.
     999903    2    3    3    0    0 -0.35084227218E-02 -0.68314703856E-01  0.11028160141E+00  0.13116533546E+00  0.19055335807E-01 0.  0.
         14    1    1    2    0    0 -0.22621997602E-01 -0.20971914212E-02 -0.54696275704E-02  0.23368136706E-01  0.00000000000E+00 0.  1.
     999901    1    3    3    0    0  0.26130420324E-01  0.70411895277E-01 -0.10481197384E+00  0.88939652783E+00  0.88000000000E+00 0. -1.
        -11    1    4    4    0    0  0.19588466145E-02 -0.62182965090E-01  0.91378796274E-01  0.11054819653E+00  0.51100000000E-03 0.  1.
         11    1    4    4    0    0 -0.54672693363E-02 -0.61317387663E-02  0.18902805141E-01  0.20617138926E-01  0.51100000000E-03 0. -1.
</event>
<event>
 8    1  0.1042301E+005  0.1043930E+01  0.7957747E-01            NaN
         13   -1    0    0    0    0  0.00000000000E+00  0.00000000000E+00  0.74505805969E-08  0.10566000000E+00  0.10566000000E+00 0.  1.
     999900   -1    0    0    0    0 -0.00000000000E+00 -0.00000000000E+00 -0.74505805969E-08  0.93827000000E+00  0.93827000000E+00 0.  1.
     999902    2    1    2    0    0  0.21664244597E-01 -0.99565262759E-02 -0.33241110602E-02  0.10198567446E+01  0.10195725859E+01 0.  0.
     999903    2    3    3    0    0 -0.99495822203E-01  0.19752300132E-01  0.74967347367E-01  0.12761690658E+00  0.19401022584E-01 0.  0.
         14    1    1    2    0    0 -0.21664244597E-01  0.99565262759E-02  0.33241110602E-02  0.24073255363E-01  0.00000000000E+00 0.  1.
     999901    1    3    3    0    0  0.12116006680E+00 -0.29708826408E-01 -0.78291458428E-01  0.89223983806E+00  0.88000000000E+00 0. -1.
        -11    1    4    4    0    0 -0.50735617980E-02  0.32961568726E-02  0.10425855004E-01  0.12065042603E-01  0.51100000000E-03 0. -1.
         11    1    4    4    0    0 -0.94422260405E-01  0.16456143259E-01  0.64541492363E-01  0.11555186398E+00  0.51100000000E-03 0.  1.
</event>
<event>
 8    1  0.1042301E+005  0.1043930E+01  0.7957747E-01            NaN
         13   -1    0    0    0    0  0.00000000000E+00  0.00000000000E+00  0.74505805969E-08  0.10566000000E+00  0.10566000000E+00 0.  1.
     999900   -1    0    0    0    0 -0.00000000000E+00 -0.00000000000E+00 -0.74505805969E-08  0.93827000000E+00  0.93827000000E+00 0.  1.
     999902    2    1    2    0    0 -0.55593044543E-02 -0.22166813230E-01 -0.69829861939E-02  0.10200336494E+01  0.10197537008E+01 0.  0.
     999903    2    3    3    0    0  0.58930312256E-01  0.10129682892E+00  0.46545687460E-01  0.12747132639E+00  0.18671067918E-01 0.  0.
         14    1    1    2    0    0  0.55593044543E-02  0.22166813230E-01  0.69829861939E-02  0.23896350578E-01  0.00000000000E+00 0.  1.
     999901    1    3    3    0    0 -0.64489616711E-01 -0.12346364215E+00 -0.53528673654E-01  0.89256232303E+00  0.88000000000E+00 0.  1.
        -11    1    4    4    0    0  0.21824566462E-01  0.35593514651E-01  0.72011972337E-02  0.42371315168E-01  0.51100000000E-03 0.  1.
         11    1    4    4    0    0  0.37105745794E-01  0.65703314273E-01  0.39344490226E-01  0.85100011220E-01  0.51100000000E-03 0. -1.
</event>
<event>
 8    1  0.1042301E+005  0.1043930E+01  0.7957747E-01            NaN
         13   -1    0    0    0    0  0.00000000000E+00  0.00000000000E+00  0.74505805969E-08  0.10566000000E+00  0.10566000000E+00 0. -1.
     999900   -1    0    0    0    0 -0.00000000000E+00 -0.00000000000E+00 -0.74505805969E-08  0.93827000000E+00  0.93827000000E+00 0. -1.
     999902    2    1    2    0    0  0.16801612685E-01 -0.14447722703E-02  0.15508624863E-01  0.10210193256E+01  0.10207622467E+01 0.  0.
     999903    2    3    3    0    0  0.29775210564E-01 -0.49640051884E-01 -0.11472334685E+00  0.13003589946E+00  0.19929649312E-01 0.  0.
         14    1    1    2    0    0 -0.16801612685E-01  0.14447722703E-02 -0.15508624863E-01  0.22910674387E-01  0.00000000000E+00 0.  1.
     999901    1    3    3    0    0 -0.12973597879E-01  0.48195279614E-01  0.13023197171E+00  0.89098342615E+00  0.88000000000E+00 0.  1.
        -11    1    4    4    0    0  0.68085460092E-02 -0.25885050065E-01 -0.65387057916E-01  0.70654940234E-01  0.51100000000E-03 0.  1.
         11    1    4    4    0    0  0.22966664555E-01 -0.23755001819E-01 -0.49336288932E-01  0.59380959228E-01  0.51100000000E-03 0. -1.
</event>
<event>
 8    1  0.1042301E+005  0.1043930E+01  0.7957747E-01            NaN
         13   -1    0    0    0    0  0.00000000000E+00  0.00000000000E+00  0.74505805969E-08  0.10566000000E+00  0.10566000000E+00 0. -1.
     999900   -1    0    0    0    0 -0.00000000000E+00 -0.00000000000E+00 -0.74505805969E-08  0.93827000000E+00  0.93827000000E+00 0.  1.
     999902    2    1    2    0    0 -0.22298214407E-01  0.40366932087E-02  0.47339272473E-02  0.10207801550E+01  0.10205176184E+01 0.  0.
     999903    2    3    3    0    0 -0.49999408177E-01  0.11716478190E+00  0.31369440919E-01  0.13270652560E+00  0.19986324777E-01 0.  0.
         14    1    1    2    0    0  0.22298214407E-01 -0.40366932087E-02 -0.47339272473E-02  0.23149845031E-01  0.00000000000E+00 0.  1.
     999901    1    3    3    0    0  0.27701193770E-01 -0.11312808869E+00 -0.26635513671E-01  0.88807362937E+00  0.88000000000E+00 0. -1.
        -11    1    4    4    0    0 -0.48802524587E-01  0.95752145031E-01  0.27030324578E-01  0.11081994068E+00  0.51100000000E-03 0.  1.
         11    1    4    4    0    0 -0.11968835901E-02  0.21412636870E-01  0.43391163407E-02  0.21886584925E-01  0.51100000000E-03 0. -1.
</event>
<event>
 8    1  0.1042301E+005  0.1043930E+01  0.7957747E-01            NaN
         13   -1    0    0    0    0  0.00000000000E+00  0.00000000000E+00  0.74505805969E-08  0.10566000000E+00  0.10566000000E+00 0. -1.
     999900   -1    0    0    0    0 -0.00000000000E+00 -0.00000000000E+00 -0.74505805969E-08  0.93827000000E+00  0.93827000000E+00 0. -1.
     999902    2    1    2    0    0  0.99904234335E-02 -0.17865204094E-01 -0.11826145053E-01  0.10202903768E+01  0.10200164809E+01 0.  0.
     999903    2    3    3    0    0 -0.12858889305E-01  0.12102016991E+00 -0.37052194139E-01  0.12874812220E+00  0.19798518113E-01 0.  0.
         14    1    1    2    0    0 -0.99904234335E-02  0.17865204094E-01  0.11826145053E-01  0.23639623189E-01  0.00000000000E+00 0. -1.
     999901    1    3    3    0    0  0.22849312739E-01 -0.13888537401E+00  0.25226049086E-01  0.89154225461E+00  0.88000000000E+00 0.  1.
        -11    1    4    4    0    0 -0.95213808360E-02  0.56199968440E-01 -0.77323718434E-02  0.57525158331E-01  0.51100000000E-03 0.  1.
         11    1    4    4    0    0 -0.33375084692E-02  0.64820201472E-01 -0.29319822296E-01  0.71222963868E-01  0.51100000000E-03 0. -1.
</event>
<event>
 8    1  0.1042301E+005  0.1043930E+01  0.7957747E-01            NaN
         13   -1    0    0    0    0  0.00000000000E+00  0.00000000000E+00  0.74505805969E-08  0.10566000000E+00  0.10566000000E+00 0. -1.
     999900   -1    0    0    0    0 -0.00000000000E+00 -0.00000000000E+00 -0.74505805969E-08  0.93827000000E+00  0.93827000000E+00 0. -1.
     999902    2    1    2    0    0  0.22194179514E-01 -0.78144547885E-02 -0.73504626012E-02  0.10192789025E+01  0.10189807675E+01 0.  0.
     999903    2    3    3    0    0 -0.58234397468E-01 -0.43419884255E-01  0.10349823660E+00  0.12797427627E+00  0.19723057865E-01 0.  0.
         14    1    1    2    0    0 -0.22194179514E-01  0.78144547885E-02  0.73504626012E-02  0.24651097509E-01  0.00000000000E+00 0. -1.
     999901    1    3    3    0    0  0.80428576982E-01  0.35605429466E-01 -0.11084869920E+00  0.89130462622E+00  0.88000000000E+00 0.  1.
        -11    1    4    4    0    0 -0.23896316231E-01 -0.67618879895E-02  0.29964646090E-01  0.38921693115E-01  0.51100000000E-03 0. -1.
         11    1    4    4    0    0 -0.34338081237E-01 -0.36657996265E-01  0.73533590508E-01  0.89052583159E-01  0.51100000000E-03 0.  1.
</event>
<event>
 8    1  0.1042301E+005  0.1043930E+01  0.7957747E-01            NaN
         13   -1    0    0    0    0  0.00000000000E+00  0.00000000000E+00  0.74505805969E-08  0.10566000000E+00  0.10566000000E+00 0. -1.
     999900   -1    0    0    0    0 -0.00000000000E+00 -0.00000000000E+00 -0.74505805969E-08  0.93827000000E+00  0.93827000000E+00 0. -1.
     999902    2    1    2    0    0  0.35944713363E-02 -0.23252455542E-01 -0.22520052539E-01  0.10113608477E+01  0.10108362947E+01 0.  0.
     999903    2    3    3    0    0  0.79347401006E-01 -0.92810349648E-01  0.15592114606E-01  0.12455233161E+00  0.18984157172E-01 0.  0.
         14    1    1    2    0    0 -0.35944713363E-02  0.23252455542E-01  0.22520052539E-01  0.32569152265E-01  0.00000000000E+00 0. -1.
     999901    1    3    3    0    0 -0.75752929670E-01  0.69557894107E-01 -0.38112167145E-01  0.88680851612E+00  0.88000000000E+00 0. -1.
        -11    1    4    4    0    0  0.43435307589E-01 -0.39790107439E-01  0.12241945248E-02  0.58920610728E-01  0.51100000000E-03 0. -1.
         11    1    4    4    0    0  0.35912093417E-01 -0.53020242209E-01  0.14367920082E-01  0.65631720883E-01  0.51100000000E-03 0.  1.
</event>
<event>
 8    1  0.1042301E+005  0.1043930E+01  0.7957747E-01            NaN
         13   -1    0    0    0    0  0.00000000000E+00  0.00000000000E+00  0.74505805969E-08  0.10566000000E+00  0.10566000000E+00 0. -1.
     999900   -1    0    0    0    0 -0.00000000000E+00 -0.00000000000E+00 -0.74505805969E-08  0.93827000000E+00  0.93827000000E+00 0. -1.
     999902    2    1    2    0    0  0.17776889456E-01 -0.11368402189E-01  0.10786637693E-01  0.10202316895E+01  0.10199564159E+01 0.  0.
     999903    2    3    3    0    0 -0.19612952617E-01  0.49055034082E-01  0.11818025534E+00  0.13085978696E+00  0.19148023742E-01 0.  0.
         14    1    1    2    0    0 -0.17776889456E-01  0.11368402189E-01 -0.10786637693E-01  0.23698310484E-01  0.00000000000E+00 0.  1.
     999901    1    3    3    0    0  0.37389842073E-01 -0.60423436272E-01 -0.10739361764E+00  0.88937190255E+00  0.88000000000E+00 0. -1.
        -11    1    4    4    0    0 -0.21532715482E-02  0.21282589317E-01  0.64403044012E-01  0.67864559126E-01  0.51100000000E-03 0. -1.
         11    1    4    4    0    0 -0.17459681069E-01  0.27772444766E-01  0.53777211325E-01  0.62995227837E-01  0.51100000000E-03 0.  1.
</event>
<event>
 8    1  0.1042301E+005  0.1043930E+01  0.7957747E-01            NaN
         13   -1    0    0    0    0  0.00000000000E+00  0.00000000000E+00  0.74505805969E-08  0.10566000000E+00  0.10566000000E+00 0.  1.
     999900   -1    0    0    0    0 -0.00000000000E+00 -0.00000000000E+00 -0.74505805969E-08  0.93827000000E+00  0.93827000000E+00 0. -1.
     999902    2    1    2    0    0  0.49870008002E-02 -0.84579340770E-02 -0.21686994350E-01  0.10201238548E+01  0.10198460406E+01 0.  0.
     999903    2    3    3    0    0  0.25172135475E-01 -0.10748335965E+00 -0.71610380393E-01  0.13293401093E+00  0.18896975309E-01 0.  0.
         14    1    1    2    0    0 -0.49870008002E-02  0.84579340770E-02  0.21686994350E-01  0.23806145210E-01  0.00000000000E+00 0.  1.
     999901    1    3    3    0    0 -0.20185134675E-01  0.99025425574E-01  0.49923386043E-01  0.88718984386E+00  0.88000000000E+00 0.  1.
        -11    1    4    4    0    0  0.22394450312E-01 -0.54462647548E-01 -0.38634334045E-01  0.70431273386E-01  0.51100000000E-03 0. -1.
         11    1    4    4    0    0  0.27776851631E-02 -0.53020712104E-01 -0.32976046348E-01  0.62502737545E-01  0.51100000000E-03 0.  1.
</event>
<event>
 8    1  0.1042301E+005  0.1043930E+01  0.7957747E-01            NaN
         13   -1    0    0    0    0  0.00000000000E+00  0.00000000000E+00  0.74505805969E-08  0.10566000000E+00  0.10566000000E+00 0.  1.
     999900   -1    0    0    0    0 -0.00000000000E+00 -0.00000000000E+00 -0.74505805969E-08  0.93827000000E+00  0.93827000000E+00 0.  1.
     999902    2    1    2    0    0  0.19473635747E-01 -0.23452822304E-03 -0.95139685317E-02  0.10222552892E+01  0.10220254807E+01 0.  0.
     999903    2    3    3    0    0 -0.99569437104E-01 -0.27380225942E-01  0.76031006064E-01  0.12971616689E+00  0.19540227559E-01 0.  0.
         14    1    1    2    0    0 -0.19473635747E-01  0.23452822304E-03  0.95139685317E-02  0.21674710838E-01  0.00000000000E+00 0. -1.
     999901    1    3    3    0    0  0.11904307285E+00  0.27145697719E-01 -0.85544974596E-01  0.89253912227E+00  0.88000000000E+00 0.  1.
        -11    1    4    4    0    0 -0.33384386281E-01 -0.12690763983E-01  0.37261382963E-01  0.51616320279E-01  0.51100000000E-03 0.  1.
         11    1    4    4    0    0 -0.66185050822E-01 -0.14689461959E-01  0.38769623101E-01  0.78099846616E-01  0.51100000000E-03 0. -1.
</event>
<event>
 8    1  0.1042301E+005  0.1043930E+01  0.7957747E-01            NaN
         13   -1    0    0    0    0  0.00000000000E+00  0.00000000000E+00  0.74505805969E-08  0.10566000000E+00  0.10566000000E+00 0.  1.
     999900   -1    0    0    0    0 -0.00000000000E+00 -0.00000000000E+00 -0.74505805969E-08  0.93827000000E+00  0.93827000000E+00 0.  1.
     999902    2    1    2    0    0 -0.21992243164E-01  0.62118876835E-02 -0.72203420723E-02  0.10199637811E+01  0.10196821736E+01 0.  0.
     999903    2    3    3    0    0  0.12229312805E+00  0.83818081260E-02  0.28608661046E-01  0.12749154381E+00  0.20242884686E-01 0.  0.
         14    1    1    2    0    0  0.21992243164E-01 -0.62118876835E-02  0.72203420723E-02  0.23966218885E-01  0.00000000000E+00 0. -1.
     999901    1    3    3    0    0 -0.14428537121E+00 -0.21699204426E-02 -0.35829003118E-01  0.89247223731E+00  0.88000000000E+00 0. -1.
        -11    1    4    4    0    0  0.10248139956E+00  0.34417340144E-02  0.16825743619E-01  0.10391173927E+00  0.51100000000E-03 0.  1.
         11    1    4    4    0    0  0.19811728483E-01  0.49400741117E-02  0.11782917427E-01  0.23579804532E-01  0.51100000000E-03 0. -1.
</event>
<event>
 8    1  0.1042301E+005  0.1043930E+01  0.7957747E-01            NaN
         13   -1    0    0    0    0  0.00000000000E+00  0.00000000000E+00  0.74505805969E-08  0.10566000000E+00  0.10566000000E+00 0. -1.
     999900   -1    0    0    0    0 -0.00000000000E+00 -0.00000000000E+00 -0.74505805969E-08  0.93827000000E+00  0.93827000000E+00 0.  1.
     999902    2    1    2    0    0 -0.45752209715E-02  0.75023946334E-02  0.23256155722E-01  0.10190690396E+01  0.10187657435E+01 0.  0.
     999903    2    3    3    0    0 -0.95656222867E-01 -0.13689936810E-01 -0.81414949023E-01  0.12794564525E+00  0.20103901897E-01 0.  0.
         14    1    1    2    0    0  0.45752209715E-02 -0.75023946334E-02 -0.23256155722E-01  0.24860960382E-01  0.00000000000E+00 0.  1.
     999901    1    3    3    0    0  0.91081001895E-01  0.21192331443E-01  0.10467110474E+00  0.89112339437E+00  0.88000000000E+00 0. -1.
        -11    1    4    4    0    0 -0.88574126829E-01 -0.89238158968E-02 -0.67944332116E-01  0.11198974873E+00  0.51100000000E-03 0.  1.
         11    1    4    4    0    0 -0.70820960376E-02 -0.47661209131E-02 -0.13470616907E-01  0.15955896518E-01  0.51100000000E-03 0. -1.
</event>
<event>
 8    1  0.1042301E+005  0.1043930E+01  0.7957747E-01            NaN
         13   -1    0    0    0    0  0.00000000000E+00  0.00000000000E+00  0.74505805969E-08  0.10566000000E+00  0.10566000000E+00 0.  1.
     999900   -1    0    0    0    0 -0.00000000000E+00 -0.00000000000E+00 -0.74505805969E-08  0.93827000000E+00  0.93827000000E+00 0. -1.
     999902    2    1    2    0    0 -0.22851954290E-02  0.23010389125E-01  0.24385770967E-02  0.10206781875E+01  0.10204133063E+01 0.  0.
     999903    2    3    3    0    0 -0.11594822680E+00 -0.38059450446E-01 -0.40914496321E-01  0.13021297259E+00  0.19720779794E-01 0.  0.
         14    1    1    2    0    0  0.22851954290E-02 -0.23010389125E-01 -0.24385770967E-02  0.23251812491E-01  0.00000000000E+00 0. -1.
     999901    1    3    3    0    0  0.11366303137E+00  0.61069839571E-01  0.43353073418E-01  0.89046521492E+00  0.88000000000E+00 0.  1.
        -11    1    4    4    0    0 -0.12830920009E-01 -0.39547568410E-02  0.16932134960E-02  0.13542551565E-01  0.51100000000E-03 0.  1.
         11    1    4    4    0    0 -0.10311730679E+00 -0.34104693605E-01 -0.42607709817E-01  0.11667042103E+00  0.51100000000E-03 0. -1.
</event>
<event>
 8    1  0.1042301E+005  0.1043930E+01  0.7957747E-01            NaN
         13   -1    0    0    0    0  0.00000000000E+00  0.00000000000E+00  0.74505805969E-08  0.10566000000E+00  0.10566000000E+00 0.  1.
     999900   -1    0    0    0    0 -0.00000000000E+00 -0.00000000000E+00 -0.74505805969E-08  0.93827000000E+00  0.93827000000E+00 0.  1.
     999902    2    1    2    0    0 -0.95367199117E-02 -0.20958102636E-01 -0.53286970385E-02  0.10202955737E+01  0.10200217996E+01 0.  0.
     999903    2    3    3    0    0 -0.10920984089E+00  0.21039859185E-01 -0.66943336102E-01  0.13153524407E+00  0.21228404599E-01 0.  0.
         14    1    1    2    0    0  0.95367199117E-02  0.20958102636E-01  0.53286970385E-02  0.23634426266E-01  0.00000000000E+00 0.  1.
     999901    1    3    3    0    0  0.99673120978E-01 -0.41997961821E-01  0.61614639063E-01  0.88876032967E+00  0.88000000000E+00 0. -1.
        -11    1    4    4    0    0 -0.56259834152E-01  0.13840894018E-01 -0.46600670478E-01  0.74354709979E-01  0.51100000000E-03 0. -1.
         11    1    4    4    0    0 -0.52950006737E-01  0.71989651666E-02 -0.20342665624E-01  0.57180534088E-01  0.51100000000E-03 0.  1.
</event>
<event>
 8    1  0.1042301E+005  0.1043930E+01  0.7957747E-01            NaN
         13   -1    0    0    0    0  0.00000000000E+00  0.00000000000E+00  0.74505805969E-08  0.10566000000E+00  0.10566000000E+00 0.  1.
     999900   -1    0    0    0    0 -0.00000000000E+00 -0.00000000000E+00 -0.74505805969E-08  0.93827000000E+00  0.93827000000E+00 0.  1.
     999902    2    1    2    0    0 -0.15681907357E-03 -0.17089732743E-01 -0.84566516077E-02  0.10248617407E+01  0.10246843363E+01 0.  0.
     999903    2    3    3    0    0 -0.14969659674E-01  0.68700652017E-01 -0.11282805206E+00  0.13442768944E+00  0.19918937133E-01 0.  0.
         14    1    1    2    0    0  0.15681907357E-03  0.17089732743E-01  0.84566516077E-02  0.19068259329E-01  0.00000000000E+00 0.  1.
     999901    1    3    3    0    0  0.14812840600E-01 -0.85790384759E-01  0.10437140046E+00  0.89043405123E+00  0.88000000000E+00 0. -1.
        -11    1    4    4    0    0 -0.16936411779E-01  0.45712521245E-01 -0.87483888691E-01  0.10015072912E+00  0.51100000000E-03 0. -1.
         11    1    4    4    0    0  0.19667521055E-02  0.22988130772E-01 -0.25344163373E-01  0.34276960313E-01  0.51100000000E-03 0.  1.
</event>
<event>
 8    1  0.1042301E+005  0.1043930E+01  0.7957747E-01            NaN
         13   -1    0    0    0    0  0.00000000000E+00  0.00000000000E+00  0.74505805969E-08  0.10566000000E+00  0.10566000000E+00 0. -1.
     999900   -1    0    0    0    0 -0.00000000000E+00 -0.00000000000E+00 -0.74505805969E-08  0.93827000000E+00  0.93827000000E+00 0. -1.
     999902    2    1    2    0    0 -0.15996592888E-01 -0.10094591824E-01 -0.15256812981E-01  0.10196285163E+01  0.10193388785E+01 0.  0.
     999903    2    3    3    0    0 -0.34797094597E-01  0.10498322518E+00  0.62467660348E-01  0.12854072231E+00  0.19702622677E-01 0.  0.
         14    1    1    2    0    0  0.15996592888E-01  0.10094591824E-01  0.15256812981E-01  0.24301483709E-01  0.00000000000E+00 0. -1.
     999901    1    3    3    0    0  0.18800501709E-01 -0.11507781701E+00 -0.77724473329E-01  0.89108779398E+00  0.88000000000E+00 0. -1.
        -11    1    4    4    0    0 -0.35908097092E-01  0.95564927161E-01  0.52594603673E-01  0.11484119556E+00  0.51100000000E-03 0. -1.
         11    1    4    4    0    0  0.11110024958E-02  0.94182980200E-02  0.98730566745E-02  0.13699526752E-01  0.51100000000E-03 0.  1.
</event>
<event>
 8    1  0.1042301E+005  0.1043930E+01  0.7957747E-01            NaN
         13   -1    0    0    0    0  0.00000000000E+00  0.00000000000E+00  0.74505805969E-08  0.10566000000E+00  0.10566000000E+00 0. -1.
     999900   -1    0    0    0    0 -0.00000000000E+00 -0.00000000000E+00 -0.74505805969E-08  0.93827000000E+00  0.93827000000E+00 0.  1.
     999902    2    1    2    0    0 -0.93264922808E-02 -0.10043589568E-01  0.19718921742E-01  0.10199155663E+01  0.10196328111E+01 0.  0.
     999903    2    3    3    0    0 -0.86628176382E-01 -0.79531333310E-01  0.58775129115E-01  0.13293784157E+00  0.19704821667E-01 0.  0.
         14    1    1    2    0    0  0.93264922808E-02  0.10043589568E-01 -0.19718921742E-01  0.24014433667E-01  0.00000000000E+00 0.  1.
     999901    1    3    3    0    0  0.77301684101E-01  0.69487743742E-01 -0.39056207374E-01  0.88697772477E+00  0.88000000000E+00 0. -1.
        -11    1    4    4    0    0 -0.34198835997E-01 -0.44485254070E-01  0.25583886167E-01  0.61670856695E-01  0.51100000000E-03 0. -1.
         11    1    4    4    0    0 -0.52429340385E-01 -0.35046079240E-01  0.33191242949E-01  0.71266984873E-01  0.51100000000E-03 0.  1.
</event>
<event>
 8    1  0.1042301E+005  0.1043930E+01  0.7957747E-01            NaN
         13   -1    0    0    0    0  0.00000000000E+00  0.00000000000E+00  0.74505805969E-08  0.10566000000E+00  0.10566000000E+00 0.  1.
     999900   -1    0    0    0    0 -0.00000000000E+00 -0.00000000000E+00 -0.74505805969E-08  0.93827000000E+00  0.93827000000E+00 0. -1.
     999902    2    1    2    0    0  0.15344150521E-01 -0.18186405017E-01 -0.37058738684E-02  0.10198484348E+01  0.10195640775E+01 0.  0.
     999903    2    3    3    0    0  0.66784066313E-01  0.62612170044E-01 -0.90332576731E-01  0.13042240619E+00  0.21671046745E-01 0.  0.
         14    1    1    2    0    0 -0.15344150521E-01  0.18186405017E-01  0.37058738684E-02  0.24081565228E-01  0.00000000000E+00 0. -1.
     999901    1    3    3    0    0 -0.51439915792E-01 -0.80798575062E-01  0.86626702862E-01  0.88942602858E+00  0.88000000000E+00 0. -1.
        -11    1    4    4    0    0  0.61437334483E-01  0.62988997372E-01 -0.88329260347E-01  0.12467750083E+00  0.51100000000E-03 0. -1.
         11    1    4    4    0    0  0.53467318299E-02 -0.37682732803E-03 -0.20033163831E-02  0.57449053627E-02  0.51100000000E-03 0.  1.
</event>
<event>
 8    1  0.1069053E+005  0.1043930E+01  0.7957747E-01            NaN
         13   -1    0    0    0    0  0.00000000000E+00  0.00000000000E+00  0.74505805969E-08  0.10566000000E+00  0.10566000000E+00 0.  1.
     999900   -1    0    0    0    0 -0.00000000000E+00 -0.00000000000E+00 -0.74505805969E-08  0.93827000000E+00  0.93827000000E+00 0. -1.
     999902    2    1    2    0    0  0.18739472173E-01  0.12665003520E-02 -0.10815542086E-01  0.10222563342E+01  0.10220265481E+01 0.  0.
     999903    2    3    3    0    0 -0.76342344739E-01  0.42379591666E-01  0.94109175499E-01  0.12998953855E+00  0.20409797373E-01 0.  0.
         14    1    1    2    0    0 -0.18739472173E-01 -0.12665003520E-02  0.10815542086E-01  0.21673665843E-01  0.00000000000E+00 0.  1.
     999901    1    3    3    0    0  0.95081816912E-01 -0.41113091314E-01 -0.10492471759E+00  0.89226679561E+00  0.88000000000E+00 0.  1.
        -11    1    4    4    0    0 -0.13258443124E-01  0.16720701630E-01  0.26462635835E-01  0.33998535166E-01  0.51100000000E-03 0. -1.
         11    1    4    4    0    0 -0.63083901615E-01  0.25658890036E-01  0.67646539664E-01  0.95991003383E-01  0.51100000000E-03 0.  1.
</event>
<event>
 8    1  0.1042301E+005  0.1043930E+01  0.7957747E-01            NaN
         13   -1    0    0    0    0  0.00000000000E+00  0.00000000000E+00  0.74505805969E-08  0.10566000000E+00  0.10566000000E+00 0. -1.
     999900   -1    0    0    0    0 -0.00000000000E+00 -0.00000000000E+00 -0.74505805969E-08  0.93827000000E+00  0.93827000000E+00 0. -1.
     999902    2    1    2    0    0  0.16557654555E-01  0.96312883656E-02  0.41446866224E-02  0.10243316310E+01  0.10241441277E+01 0.  0.
     999903    2    3    3    0    0  0.19568488891E-01 -0.11482258247E+00 -0.61226871560E-01  0.13316875492E+00  0.20445935627E-01 0.  0.
         14    1    1    2    0    0 -0.16557654555E-01 -0.96312883656E-02 -0.41446866224E-02  0.19598368992E-01  0.00000000000E+00 0. -1.
     999901    1    3    3    0    0 -0.30108343361E-02  0.12445387084E+00  0.65371558182E-01  0.89116287608E+00  0.88000000000E+00 0. -1.
        -11    1    4    4    0    0  0.58790762486E-02 -0.33501790798E-01 -0.28743632062E-01  0.44535278481E-01  0.51100000000E-03 0. -1.
         11    1    4    4    0    0  0.13689412642E-01 -0.81320791676E-01 -0.32483239498E-01  0.88633476444E-01  0.51100000000E-03 0.  1.
</event>
<event>
 8    1  0.1042301E+005  0.1043930E+01  0.7957747E-01            NaN
         13   -1    0    0    0    0  0.00000000000E+00  0.00000000000E+00  0.74505805969E-08  0.10566000000E+00  0.10566000000E+00 0.  1.
     999900   -1    0    0    0    0 -0.00000000000E+00 -0.00000000000E+00 -0.74505805969E-08  0.93827000000E+00  0.93827000000E+00 0. -1.
     999902    2    1    2    0    0 -0.22709178054E-01  0.34915458811E-02 -0.10619615951E-02  0.10209294473E+01  0.10206703244E+01 0.  0.
     999903    2    3    3    0    0  0.10788096303E+00 -0.57051793283E-01 -0.34840925279E-01  0.12859526147E+00  0.20727804940E-01 0.  0.
         14    1    1    2    0    0  0.22709178054E-01 -0.34915458811E-02  0.10619615951E-02  0.23000552666E-01  0.00000000000E+00 0.  1.
     999901    1    3    3    0    0 -0.13059014109E+00  0.60543339164E-01  0.33778963684E-01  0.89233418586E+00  0.88000000000E+00 0.  1.
        -11    1    4    4    0    0  0.85763766670E-01 -0.36340332206E-01 -0.30305650801E-01  0.97952728444E-01  0.51100000000E-03 0. -1.
         11    1    4    4    0    0  0.22117196364E-01 -0.20711461077E-01 -0.45352744780E-02  0.30642533030E-01  0.51100000000E-03 0.  1.
</event>
<event>
 8    1  0.1042301E+005  0.1043930E+01  0.7957747E-01            NaN
         13   -1    0    0    0    0  0.00000000000E+00  0.00000000000E+00  0.74505805969E-08  0.10566000000E+00  0.10566000000E+00 0.  1.
     999900   -1    0    0    0    0 -0.00000000000E+00 -0.00000000000E+00 -0.74505805969E-08  0.93827000000E+00  0.93827000000E+00 0.  1.
     999902    2    1    2    0    0  0.98438292048E-03 -0.19968598391E-01  0.11974351842E-01  0.10206255147E+01  0.10203594182E+01 0.  0.
     999903    2    3    3    0    0  0.91342406150E-01 -0.16504771931E-01 -0.89255001525E-01  0.13021889277E+00  0.19356189687E-01 0.  0.
         14    1    1    2    0    0 -0.98438292048E-03  0.19968598391E-01 -0.11974351842E-01  0.23304485265E-01  0.00000000000E+00 0. -1.
     999901    1    3    3    0    0 -0.90358023230E-01 -0.34638264607E-02  0.10122935337E+00  0.89040662196E+00  0.88000000000E+00 0. -1.
        -11    1    4    4    0    0  0.49772446105E-01 -0.15612593909E-01 -0.39862316477E-01  0.65652988323E-01  0.51100000000E-03 0.  1.
         11    1    4    4    0    0  0.41569960046E-01 -0.89217802134E-03 -0.49392685048E-01  0.64565904447E-01  0.51100000000E-03 0. -1.
</event>
<event>
 8    1  0.1042301E+005  0.1043930E+01  0.7957747E-01            NaN
         13   -1    0    0    0    0  0.00000000000E+00  0.00000000000E+00  0.74505805969E-08  0.10566000000E+00  0.10566000000E+00 0. -1.
     999900   -1    0    0    0    0 -0.00000000000E+00 -0.00000000000E+00 -0.74505805969E-08  0.93827000000E+00  0.93827000000E+00 0. -1.
     999902    2    1    2    0    0 -0.57305489133E-02  0.23725039072E-01 -0.19696864687E-02  0.10194433437E+01  0.10191492211E+01 0.  0.
     999903    2    3    3    0    0  0.69284703211E-01  0.54434141446E-02 -0.10744699380E+00  0.12978781028E+00  0.21679906940E-01 0.  0.
         14    1    1    2    0    0  0.57305489133E-02 -0.23725039072E-01  0.19696864687E-02  0.24486656256E-01  0.00000000000E+00 0.  1.
     999901    1    3    3    0    0 -0.75015252124E-01  0.18281624927E-01  0.10547730733E+00  0.88965553346E+00  0.88000000000E+00 0.  1.
        -11    1    4    4    0    0  0.30857130311E-01  0.10010714288E-01 -0.62920323600E-01  0.70792691251E-01  0.51100000000E-03 0. -1.
         11    1    4    4    0    0  0.38427572899E-01 -0.45673001430E-02 -0.44526670196E-01  0.58995119029E-01  0.51100000000E-03 0.  1.
</event>
<event>
 8    1  0.1042301E+005  0.1043930E+01  0.7957747E-01            NaN
         13   -1    0    0    0    0  0.00000000000E+00  0.00000000000E+00  0.74505805969E-08  0.10566000000E+00  0.10566000000E+00 0.  1.
     999900   -1    0    0    0    0 -0.00000000000E+00 -0.00000000000E+00 -0.74505805969E-08  0.93827000000E+00  0.93827000000E+00 0. -1.
     999902    2    1    2    0    0 -0.14064180682E-01 -0.53359640300E-02 -0.19183153983E-01  0.10195524060E+01  0.10192609291E+01 0.  0.
     999903    2    3    3    0    0 -0.26645987989E-01 -0.12544894484E+00  0.13597070015E-01  0.13069922744E+00  0.21212291314E-01 0.  0.
         14    1    1    2    0    0  0.14064180682E-01  0.53359640300E-02  0.19183153983E-01  0.24377593957E-01  0.00000000000E+00 0.  1.
     999901    1    3    3    0    0  0.12581807307E-01  0.12011298081E+00 -0.32780223998E-01  0.88885317861E+00  0.88000000000E+00 0. -1.
        -11    1    4    4    0    0 -0.25032824559E-01 -0.71823507936E-01  0.37809505647E-02  0.76156518472E-01  0.51100000000E-03 0. -1.
         11    1    4    4    0    0 -0.16131634302E-02 -0.53625436902E-01  0.98161194501E-02  0.54542708965E-01  0.51100000000E-03 0.  1.
</event>
<event>
 8    1  0.1042301E+005  0.1043930E+01  0.7957747E-01            NaN
         13   -1    0    0    0    0  0.00000000000E+00  0.00000000000E+00  0.74505805969E-08  0.10566000000E+00  0.10566000000E+00 0. -1.
     999900   -1    0    0    0    0 -0.00000000000E+00 -0.00000000000E+00 -0.74505805969E-08  0.93827000000E+00  0.93827000000E+00 0. -1.
     999902    2    1    2    0    0 -0.16975036214E-01  0.22397977733E-02  0.56853622597E-02  0.10258886061E+01  0.10257299549E+01 0.  0.
     999903    2    3    3    0    0 -0.13590865806E+00  0.16719393481E-02  0.11855252492E-01  0.13786631114E+00  0.19814490138E-01 0.  0.
         14    1    1    2    0    0  0.16975036214E-01 -0.22397977733E-02 -0.56853622597E-02  0.18041393864E-01  0.00000000000E+00 0. -1.
     999901    1    3    3    0    0  0.11893362184E+00  0.56785842517E-03 -0.61698902325E-02  0.88802229500E+00  0.88000000000E+00 0. -1.
        -11    1    4    4    0    0 -0.47143920000E-01 -0.21435525436E-02 -0.49103322583E-02  0.47450147464E-01  0.51100000000E-03 0. -1.
         11    1    4    4    0    0 -0.88764738056E-01  0.38154918917E-02  0.16765584750E-01  0.90416163674E-01  0.51100000000E-03 0.  1.
</event>
<event>
 8    1  0.1042301E+005  0.1043930E+01  0.7957747E-01            NaN
         13   -1    0    0    0    0  0.00000000000E+00  0.00000000000E+00  0.74505805969E-08  0.10566000000E+00  0.10566000000E+00 0. -1.
     999900   -1    0    0    0    0 -0.00000000000E+00 -0.00000000000E+00 -0.74505805969E-08  0.93827000000E+00  0.93827000000E+00 0. -1.
     999902    2    1    2    0    0  0.65041350750E-02  0.24708536637E-02 -0.22803922189E-01  0.10200882769E+01  0.10198096219E+01 0.  0.
     999903    2    3    3    0    0 -0.58338713322E-01 -0.13481820353E-01  0.10996058292E+00  0.12762791558E+00  0.24746516648E-01 0.  0.
         14    1    1    2    0    0 -0.65041350750E-02 -0.24708536637E-02  0.22803922189E-01  0.23841723052E-01  0.00000000000E+00 0. -1.
     999901    1    3    3    0    0  0.64842848396E-01  0.15952674017E-01 -0.13276450511E+00  0.89246036137E+00  0.88000000000E+00 0. -1.
        -11    1    4    4    0    0 -0.36877965971E-01 -0.20502562190E-01  0.70818897109E-01  0.82437350389E-01  0.51100000000E-03 0. -1.
         11    1    4    4    0    0 -0.21460747351E-01  0.70207418364E-02  0.39141685815E-01  0.45190565191E-01  0.51100000000E-03 0.  1.
</event>
<event>
 8    1  0.1042301E+005  0.1043930E+01  0.7957747E-01            NaN
         13   -1    0    0    0    0  0.00000000000E+00  0.00000000000E+00  0.74505805969E-08  0.10566000000E+00  0.10566000000E+00 0.  1.
     999900   -1    0    0    0    0 -0.00000000000E+00 -0.00000000000E+00 -0.74505805969E-08  0.93827000000E+00  0.93827000000E+00 0.  1.
     999902    2    1    2    0    0 -0.63175308788E-02 -0.21336220297E-01  0.97225437458E-03  0.10216569048E+01  0.10214140885E+01 0.  0.
     999903    2    3    3    0    0 -0.14122291456E-02 -0.10565025752E+00  0.79989977404E-01  0.13408903727E+00  0.20432868747E-01 0.  0.
         14    1    1    2    0    0  0.63175308788E-02  0.21336220297E-01 -0.97225437458E-03  0.22273095239E-01  0.00000000000E+00 0.  1.
     999901    1    3    3    0    0 -0.49053017332E-02  0.84314037220E-01 -0.79017723029E-01  0.88756786750E+00  0.88000000000E+00 0.  1.
        -11    1    4    4    0    0  0.25672223251E-02 -0.89586999574E-01  0.58775899072E-01  0.10717876915E+00  0.51100000000E-03 0.  1.
         11    1    4    4    0    0 -0.39794514706E-02 -0.16063257943E-01  0.21214078332E-01  0.26910268119E-01  0.51100000000E-03 0. -1.
</event>
<event>
 8    1  0.1042301E+005  0.1043930E+01  0.7957747E-01            NaN
         13   -1    0    0    0    0  0.00000000000E+00  0.00000000000E+00  0.74505805969E-08  0.10566000000E+00  0.10566000000E+00 0.  1.
     999900   -1    0    0    0    0 -0.00000000000E+00 -0.00000000000E+00 -0.74505805969E-08  0.93827000000E+00  0.93827000000E+00 0. -1.
     999902    2    1    2    0    0 -0.71233186378E-02  0.13995852816E-01  0.19841511266E-01  0.10186256301E+01  0.10183112801E+01 0.  0.
     999903    2    3    3    0    0 -0.58947039230E-01 -0.42047501037E-01  0.10692176766E+00  0.13103928134E+00  0.22277411846E-01 0.  0.
         14    1    1    2    0    0  0.71233186378E-02 -0.13995852816E-01 -0.19841511266E-01  0.25304369856E-01  0.00000000000E+00 0. -1.
     999901    1    3    3    0    0  0.51823720593E-01  0.56043353854E-01 -0.87080256390E-01  0.88758634880E+00  0.88000000000E+00 0. -1.
        -11    1    4    4    0    0 -0.37584796172E-01 -0.13984757776E-01  0.63384704361E-01  0.75007147801E-01  0.51100000000E-03 0.  1.
         11    1    4    4    0    0 -0.21362243059E-01 -0.28062743261E-01  0.43537063295E-01  0.56032133541E-01  0.51100000000E-03 0. -1.
</event>
<event>
 8    1  0.1042301E+005  0.1043930E+01  0.7957747E-01            NaN
         13   -1    0    0    0    0  0.00000000000E+00  0.00000000000E+00  0.74505805969E-08  0.10566000000E+00  0.10566000000E+00 0. -1.
     999900   -1    0    0    0    0 -0.00000000000E+00 -0.00000000000E+00 -0.74505805969E-08  0.93827000000E+00  0.93827000000E+00 0. -1.
     999902    2    1    2    0    0  0.11260966628E-01 -0.19113311869E-01  0.92352838719E-02  0.10199004655E+01  0.10196173503E+01 0.  0.
     999903    2    3    3    0    0 -0.31339875044E-02 -0.12518106502E+00 -0.38947642560E-01  0.13210590742E+00  0.15966558730E-01 0.  0.
         14    1    1    2    0    0 -0.11260966628E-01  0.19113311869E-01 -0.92352838719E-02  0.24029534499E-01  0.00000000000E+00 0.  1.
     999901    1    3    3    0    0  0.14394954133E-01  0.10606775315E+00  0.48182926432E-01  0.88779455808E+00  0.88000000000E+00 0.  1.
        -11    1    4    4    0    0  0.48793280341E-03 -0.66405463695E-01 -0.28638060978E-01  0.72320974444E-01  0.51100000000E-03 0. -1.
         11    1    4    4    0    0 -0.36219203078E-02 -0.58775601321E-01 -0.10309581582E-01  0.59784932974E-01  0.51100000000E-03 0.  1.
</event>
<event>
 8    1  0.1042301E+005  0.1043930E+01  0.7957747E-01            NaN
         13   -1    0    0    0    0  0.00000000000E+00  0.00000000000E+00  0.74505805969E-08  0.10566000000E+00  0.10566000000E+00 0. -1.
     999900   -1    0    0    0    0 -0.00000000000E+00 -0.00000000000E+00 -0.74505805969E-08  0.93827000000E+00  0.93827000000E+00 0. -1.
     999902    2    1    2    0    0  0.11507863774E-01  0.20732561071E-01 -0.34761497039E-02  0.10199643238E+01  0.10196827292E+01 0.  0.
     999903    2    3    3    0    0  0.12782371823E+00 -0.13508351869E-01 -0.19671128855E-01  0.13150267837E+00  0.19611797359E-01 0.  0.
         14    1    1    2    0    0 -0.11507863774E-01 -0.20732561071E-01  0.34761497039E-02  0.23965676163E-01  0.00000000000E+00 0. -1.
     999901    1    3    3    0    0 -0.11631585446E+00  0.34240912940E-01  0.16194979151E-01  0.88846164547E+00  0.88000000000E+00 0.  1.
        -11    1    4    4    0    0  0.50652487242E-01 -0.14396281152E-01 -0.45498034901E-02  0.52857253122E-01  0.51100000000E-03 0. -1.
         11    1    4    4    0    0  0.77171230987E-01  0.88792928272E-03 -0.15121325365E-01  0.78645425247E-01  0.51100000000E-03 0.  1.
</event>
<event>
 8    1  0.1042301E+005  0.1043930E+01  0.7957747E-01            NaN
         13   -1    0    0    0    0  0.00000000000E+00  0.00000000000E+00  0.74505805969E-08  0.10566000000E+00  0.10566000000E+00 0.  1.
     999900   -1    0    0    0    0 -0.00000000000E+00 -0.00000000000E+00 -0.74505805969E-08  0.93827000000E+00  0.93827000000E+00 0.  1.
     999902    2    1    2    0    0  0.17160591387E-01  0.10272746876E-01 -0.11653091050E-01  0.10207824352E+01  0.10205199509E+01 0.  0.
     999903    2    3    3    0    0 -0.11367897325E+00  0.53431940164E-01 -0.24892758622E-01  0.12996427394E+00  0.22207698666E-01 0.  0.
         14    1    1    2    0    0 -0.17160591387E-01 -0.10272746876E-01  0.11653091050E-01  0.23147564800E-01  0.00000000000E+00 0.  1.
     999901    1    3    3    0    0  0.13083956463E+00 -0.43159193289E-01  0.13239667572E-01  0.89081816126E+00  0.88000000000E+00 0. -1.
        -11    1    4    4    0    0 -0.51322030446E-01  0.34168250006E-01 -0.18562311634E-01  0.64391308822E-01  0.51100000000E-03 0. -1.
         11    1    4    4    0    0 -0.62356942801E-01  0.19263690158E-01 -0.63304469887E-02  0.65572965115E-01  0.51100000000E-03 0.  1.
</event>
<event>
 8    1  0.1042301E+005  0.1043930E+01  0.7957747E-01            NaN
         13   -1    0    0    0    0  0.00000000000E+00  0.00000000000E+00  0.74505805969E-08  0.10566000000E+00  0.10566000000E+00 0.  1.
     999900   -1    0    0    0    0 -0.00000000000E+00 -0.00000000000E+00 -0.74505805969E-08  0.93827000000E+00  0.93827000000E+00 0.  1.
     999902    2    1    2    0    0 -0.23207249908E-01 -0.39522371714E-02 -0.45708001245E-02  0.10199489900E+01  0.10196670306E+01 0.  0.
     999903    2    3    3    0    0  0.25294312768E-01  0.22324003658E-01  0.12323880051E+00  0.12900671553E+00  0.17797957821E-01 0.  0.
         14    1    1    2    0    0  0.23207249908E-01  0.39522371714E-02  0.45708001245E-02  0.23981010002E-01  0.00000000000E+00 0. -1.
     999901    1    3    3    0    0 -0.48501562675E-01 -0.26276240829E-01 -0.12780960064E+00  0.89094227447E+00  0.88000000000E+00 0.  1.
        -11    1    4    4    0    0  0.17529623436E-01  0.36547750870E-02  0.58779566712E-01  0.61448707575E-01  0.51100000000E-03 0. -1.
         11    1    4    4    0    0  0.77646893313E-02  0.18669228571E-01  0.64459233802E-01  0.67558007958E-01  0.51100000000E-03 0.  1.
</event>
<event>
 8    1  0.1042301E+005  0.1043930E+01  0.7957747E-01            NaN
         13   -1    0    0    0    0  0.00000000000E+00  0.00000000000E+00  0.74505805969E-08  0.10566000000E+00  0.10566000000E+00 0.  1.
     999900   -1    0    0    0    0 -0.00000000000E+00 -0.00000000000E+00 -0.74505805969E-08  0.93827000000E+00  0.93827000000E+00 0.  1.
     999902    2    1    2    0    0 -0.19278760601E-01 -0.13310341767E-01 -0.40615982023E-02  0.10201532805E+01  0.10198761608E+01 0.  0.
     999903    2    3    3    0    0  0.74474335784E-01  0.88253994765E-01 -0.51580415448E-01  0.12809779150E+00  0.20330042964E-01 0.  0.
         14    1    1    2    0    0  0.19278760601E-01  0.13310341767E-01  0.40615982023E-02  0.23776719459E-01  0.00000000000E+00 0. -1.
     999901    1    3    3    0    0 -0.93753096385E-01 -0.10156433653E+00  0.47518817245E-01  0.89205548904E+00  0.88000000000E+00 0.  1.
        -11    1    4    4    0    0  0.41308346844E-01  0.46522788575E-01 -0.16795280272E-01  0.64444487244E-01  0.51100000000E-03 0. -1.
         11    1    4    4    0    0  0.33165988939E-01  0.41731206190E-01 -0.34785135175E-01  0.63653304255E-01  0.51100000000E-03 0.  1.
</event>
<event>
 8    1  0.1042301E+005  0.1043930E+01  0.7957747E-01            NaN
         13   -1    0    0    0    0  0.00000000000E+00  0.00000000000E+00  0.74505805969E-08  0.10566000000E+00  0.10566000000E+00 0. -1.
     999900   -1    0    0    0    0 -0.00000000000E+00 -0.00000000000E+00 -0.74505805969E-08  0.93827000000E+00  0.93827000000E+00 0. -1.
     999902    2    1    2    0    0  0.15649597150E-01  0.11279674071E-01 -0.12985451792E-01  0.10206756908E+01  0.10204107520E+01 0.  0.
     999903    2    3    3    0    0  0.12129766203E+00 -0.45657501798E-01 -0.19171826275E-01  0.13250812393E+00  0.19827095088E-01 0.  0.
         14    1    1    2    0    0 -0.15649597150E-01 -0.11279674071E-01  0.12985451792E-01  0.23254309200E-01  0.00000000000E+00 0.  1.
     999901    1    3    3    0    0 -0.10564806488E+00  0.56937175869E-01  0.61863744832E-02  0.88816756687E+00  0.88000000000E+00 0.  1.
        -11    1    4    4    0    0  0.33482340243E-01 -0.10702344830E-01  0.34405088904E-02  0.35322875243E-01  0.51100000000E-03 0. -1.
         11    1    4    4    0    0  0.87815321791E-01 -0.34955156967E-01 -0.22612335166E-01  0.97185248688E-01  0.51100000000E-03 0.  1.
</event>
<event>
 8    1  0.1042301E+005  0.1043930E+01  0.7957747E-01            NaN
         13   -1    0    0    0    0  0.00000000000E+00  0.00000000000E+00  0.74505805969E-08  0.10566000000E+00  0.10566000000E+00 0. -1.
     999900   -1    0    0    0    0 -0.00000000000E+00 -0.00000000000E+00 -0.74505805969E-08  0.93827000000E+00  0.93827000000E+00 0. -1.
     999902    2    1    2    0    0  0.23347520268E-01  0.42713228609E-02 -0.23619787772E-02  0.10200777497E+01  0.10197988456E+01 0.  0.
     999903    2    3    3    0    0 -0.52770029793E-01 -0.10964099926E-01  0.11548173067E+00  0.12883528021E+00  0.18910626013E-01 0.  0.
         14    1    1    2    0    0 -0.23347520268E-01 -0.42713228609E-02  0.23619787772E-02  0.23852250322E-01  0.00000000000E+00 0.  1.
     999901    1    3    3    0    0  0.76117550061E-01  0.15235422787E-01 -0.11784370945E+00  0.89124246947E+00  0.88000000000E+00 0. -1.
        -11    1    4    4    0    0 -0.21810816183E-01  0.39736554509E-02  0.54350542922E-01  0.58700462325E-01  0.51100000000E-03 0.  1.
         11    1    4    4    0    0 -0.30959213609E-01 -0.14937755377E-01  0.61131187746E-01  0.70134817881E-01  0.51100000000E-03 0. -1.
</event>
<event>
 8    1  0.1042301E+005  0.1043930E+01  0.7957747E-01            NaN
         13   -1    0    0    0    0  0.00000000000E+00  0.00000000000E+00  0.74505805969E-08  0.10566000000E+00  0.10566000000E+00 0.  1.
     999900   -1    0    0    0    0 -0.00000000000E+00 -0.00000000000E+00 -0.74505805969E-08  0.93827000000E+00  0.93827000000E+00 0.  1.
     999902    2    1    2    0    0  0.13115400767E-01 -0.12846010913E-01 -0.66725763865E-03  0.10255593994E+01  0.10253948521E+01 0.  0.
     999903    2    3    3    0    0  0.65305230370E-01  0.38880950973E-01  0.11038190478E+00  0.13554177408E+00  0.20270820353E-01 0.  0.
         14    1    1    2    0    0 -0.13115400767E-01  0.12846010913E-01  0.66725763865E-03  0.18370600600E-01  0.00000000000E+00 0. -1.
     999901    1    3    3    0    0 -0.52189829603E-01 -0.51726961886E-01 -0.11104916241E+00  0.89001762532E+00  0.88000000000E+00 0. -1.
        -11    1    4    4    0    0  0.19150251245E-01  0.21987962295E-01  0.35091589489E-01  0.45627660278E-01  0.51100000000E-03 0.  1.
         11    1    4    4    0    0  0.46154979125E-01  0.16892988678E-01  0.75290315287E-01  0.89914113806E-01  0.51100000000E-03 0. -1.
</event>
<event>
 8    1  0.1042301E+005  0.1043930E+01  0.7957747E-01            NaN
         13   -1    0    0    0    0  0.00000000000E+00  0.00000000000E+00  0.74505805969E-08  0.10566000000E+00  0.10566000000E+00 0.  1.
     999900   -1    0    0    0    0 -0.00000000000E+00 -0.00000000000E+00 -0.74505805969E-08  0.93827000000E+00  0.93827000000E+00 0. -1.
     999902    2    1    2    0    0  0.56034456456E-02 -0.21755892951E-01 -0.15174421169E-02  0.10214128929E+01  0.10211646673E+01 0.  0.
     999903    2    3    3    0    0  0.84199263883E-01  0.53976702541E-01 -0.82168758391E-01  0.13100997092E+00  0.20221453208E-01 0.  0.
         14    1    1    2    0    0 -0.56034456456E-02  0.21755892951E-01  0.15174421169E-02  0.22517107092E-01  0.00000000000E+00 0. -1.
     999901    1    3    3    0    0 -0.78595818238E-01 -0.75732595492E-01  0.80651316274E-01  0.89040292199E+00  0.88000000000E+00 0.  1.
        -11    1    4    4    0    0  0.52746201866E-01  0.29596933342E-01 -0.61117060117E-01  0.85986606125E-01  0.51100000000E-03 0.  1.
         11    1    4    4    0    0  0.31453062018E-01  0.24379769199E-01 -0.21051698274E-01  0.45023364798E-01  0.51100000000E-03 0. -1.
</event>
<event>
 8    1  0.1042301E+005  0.1043930E+01  0.7957747E-01            NaN
         13   -1    0    0    0    0  0.00000000000E+00  0.00000000000E+00  0.74505805969E-08  0.10566000000E+00  0.10566000000E+00 0. -1.
     999900   -1    0    0    0    0 -0.00000000000E+00 -0.00000000000E+00 -0.74505805969E-08  0.93827000000E+00  0.93827000000E+00 0.  1.
     999902    2    1    2    0    0 -0.85435577806E-02 -0.11356513313E-02  0.22518041978E-01  0.10198189175E+01  0.10195338544E+01 0.  0.
     999903    2    3    3    0    0 -0.47932652647E-01  0.82959372520E-01  0.89274154168E-01  0.13241830205E+00  0.19619771584E-01 0.  0.
         14    1    1    2    0    0  0.85435577806E-02  0.11356513313E-02 -0.22518041978E-01  0.24111082473E-01  0.00000000000E+00 0.  1.
     999901    1    3    3    0    0  0.39389094867E-01 -0.84095023852E-01 -0.66756112190E-01  0.88740061548E+00  0.88000000000E+00 0.  1.
        -11    1    4    4    0    0 -0.37397605459E-01  0.66839375678E-01  0.59642153624E-01  0.97074871337E-01  0.51100000000E-03 0. -1.
         11    1    4    4    0    0 -0.10535047188E-01  0.16119996842E-01  0.29632000544E-01  0.35343430715E-01  0.51100000000E-03 0.  1.
</event>
<event>
 8    1  0.1042301E+005  0.1043930E+01  0.7957747E-01            NaN
         13   -1    0    0    0    0  0.00000000000E+00  0.00000000000E+00  0.74505805969E-08  0.10566000000E+00  0.10566000000E+00 0.  1.
     999900   -1    0    0    0    0 -0.00000000000E+00 -0.00000000000E+00 -0.74505805969E-08  0.93827000000E+00  0.93827000000E+00 0.  1.
     999902    2    1    2    0    0  0.22476420708E-01 -0.52994859703E-02  0.38045941547E-02  0.10205259624E+01  0.10202575611E+01 0.  0.
     999903    2    3    3    0    0 -0.11274599652E+00  0.51461710177E-01 -0.24661185876E-01  0.12793577864E+00  0.19985545336E-01 0.  0.
         14    1    1    2    0    0 -0.22476420708E-01  0.52994859703E-02 -0.38045941547E-02  0.23404037602E-01  0.00000000000E+00 0. -1.
     999901    1    3    3    0    0  0.13522241723E+00 -0.56761196147E-01  0.28465780031E-01  0.89259018376E+00  0.88000000000E+00 0. -1.
        -11    1    4    4    0    0 -0.64251732956E-01  0.28530698410E-01 -0.38929479464E-02  0.70410951594E-01  0.51100000000E-03 0. -1.
         11    1    4    4    0    0 -0.48494263562E-01  0.22931011766E-01 -0.20768237929E-01  0.57524827046E-01  0.51100000000E-03 0.  1.
</event>
<event>
 8    1  0.1042301E+005  0.1043930E+01  0.7957747E-01            NaN
         13   -1    0    0    0    0  0.00000000000E+00  0.00000000000E+00  0.74505805969E-08  0.10566000000E+00  0.10566000000E+00 0.  1.
     999900   -1    0    0    0    0 -0.00000000000E+00 -0.00000000000E+00 -0.74505805969E-08  0.93827000000E+00  0.93827000000E+00 0.  1.
     999902    2    1    2    0    0  0.12233950726E-01  0.14433841048E-01  0.16215563300E-01  0.10190111354E+01  0.10187064073E+01 0.  0.
     999903    2    3    3    0    0 -0.86132270399E-01  0.42534369002E-01 -0.81727099874E-01  0.12768722215E+00  0.19919018467E-01 0.  0.
         14    1    1    2    0    0 -0.12233950726E-01 -0.14433841048E-01 -0.16215563300E-01  0.24918864559E-01  0.00000000000E+00 0. -1.
     999901    1    3    3    0    0  0.98366221125E-01 -0.28100527954E-01  0.97942663175E-01  0.89132391329E+00  0.88000000000E+00 0. -1.
        -11    1    4    4    0    0 -0.42660908543E-01  0.15168350033E-01 -0.49298075138E-01  0.66937233986E-01  0.51100000000E-03 0. -1.
         11    1    4    4    0    0 -0.43471361857E-01  0.27366018969E-01 -0.32429024736E-01  0.60749988167E-01  0.51100000000E-03 0.  1.
</event>
<event>
 8    1  0.1042301E+005  0.1043930E+01  0.7957747E-01            NaN
         13   -1    0    0    0    0  0.00000000000E+00  0.00000000000E+00  0.74505805969E-08  0.10566000000E+00  0.10566000000E+00 0. -1.
     999900   -1    0    0    0    0 -0.00000000000E+00 -0.00000000000E+00 -0.74505805969E-08  0.93827000000E+00  0.93827000000E+00 0.  1.
     999902    2    1    2    0    0 -0.21652921111E-01 -0.95760924605E-02  0.65254887259E-02  0.10193712431E+01  0.10190753645E+01 0.  0.
     999903    2    3    3    0    0 -0.34383035181E-01 -0.12058413407E+00 -0.33889543679E-01  0.13138576122E+00  0.19773481853E-01 0.  0.
         14    1    1    2    0    0  0.21652921111E-01  0.95760924605E-02 -0.65254887259E-02  0.24558756942E-01  0.00000000000E+00 0. -1.
     999901    1    3    3    0    0  0.12730114071E-01  0.11100804161E+00  0.40415032405E-01  0.88798548183E+00  0.88000000000E+00 0. -1.
        -11    1    4    4    0    0 -0.31952048176E-01 -0.85815040126E-01 -0.29748859052E-01  0.96282969576E-01  0.51100000000E-03 0. -1.
         11    1    4    4    0    0 -0.24309870054E-02 -0.34769093940E-01 -0.41406846272E-02  0.35102791647E-01  0.51100000000E-03 0.  1.
</event>
<event>
 8    1  0.1042301E+005  0.1043930E+01  0.7957747E-01            NaN
         13   -1    0    0    0    0  0.00000000000E+00  0.00000000000E+00  0.74505805969E-08  0.10566000000E+00  0.10566000000E+00 0. -1.
     999900   -1    0    0    0    0 -0.00000000000E+00 -0.00000000000E+00 -0.74505805969E-08  0.93827000000E+00  0.93827000000E+00 0. -1.
     999902    2    1    2    0    0 -0.75324560747E-02  0.18161215056E-01 -0.16320934823E-01  0.10183772988E+01  0.10180566694E+01 0.  0.
     999903    2    3    3    0    0 -0.44791762184E-01 -0.94192045554E-01 -0.72652836896E-01  0.12866678728E+00  0.19956553666E-01 0.  0.
         14    1    1    2    0    0  0.75324560747E-02 -0.18161215056E-01  0.16320934823E-01  0.25552701233E-01  0.00000000000E+00 0.  1.
     999901    1    3    3    0    0  0.37259306110E-01  0.11235326061E+00  0.56331902073E-01  0.88971051149E+00  0.88000000000E+00 0.  1.
        -11    1    4    4    0    0 -0.10899592897E-01 -0.10545362613E-01 -0.16274568391E-01  0.22251482990E-01  0.51100000000E-03 0. -1.
         11    1    4    4    0    0 -0.33892169287E-01 -0.83646682941E-01 -0.56378268505E-01  0.10641530429E+00  0.51100000000E-03 0.  1.
</event>
<event>
 8    1  0.1042301E+005  0.1043930E+01  0.7957747E-01            NaN
         13   -1    0    0    0    0  0.00000000000E+00  0.00000000000E+00  0.74505805969E-08  0.10566000000E+00  0.10566000000E+00 0. -1.
     999900   -1    0    0    0    0 -0.00000000000E+00 -0.00000000000E+00 -0.74505805969E-08  0.93827000000E+00  0.93827000000E+00 0.  1.
     999902    2    1    2    0    0 -0.27958296259E-02 -0.24846233687E-01 -0.91327700838E-02  0.10173112194E+01  0.10169629087E+01 0.  0.
     999903    2    3    3    0    0  0.10168248929E+00 -0.77033602598E-01 -0.85937343006E-02  0.12959531261E+00  0.21156280958E-01 0.  0.
         14    1    1    2    0    0  0.27958296259E-02  0.24846233687E-01  0.91327700838E-02  0.26618780610E-01  0.00000000000E+00 0.  1.
     999901    1    3    3    0    0 -0.10447831891E+00  0.52187368911E-01 -0.53903578322E-03  0.88771590678E+00  0.88000000000E+00 0. -1.
        -11    1    4    4    0    0  0.22660986063E-01 -0.25492846051E-01  0.42620269302E-02  0.34377776014E-01  0.51100000000E-03 0. -1.
         11    1    4    4    0    0  0.79021503223E-01 -0.51540756547E-01 -0.12855761231E-01  0.95217536593E-01  0.51100000000E-03 0.  1.
</event>
<event>
 8    1  0.1042301E+005  0.1043930E+01  0.7957747E-01            NaN
         13   -1    0    0    0    0  0.00000000000E+00  0.00000000000E+00  0.74505805969E-08  0.10566000000E+00  0.10566000000E+00 0. -1.
     999900   -1    0    0    0    0 -0.00000000000E+00 -0.00000000000E+00 -0.74505805969E-08  0.93827000000E+00  0.93827000000E+00 0. -1.
     999902    2    1    2    0    0 -0.13656566117E-01 -0.60360195239E-03  0.19745024943E-01  0.10199147519E+01  0.10196319772E+01 0.  0.
     999903    2    3    3    0    0 -0.32223464631E-01 -0.99175321165E-01  0.78847237635E-01  0.13224691697E+00  0.19956556917E-01 0.  0.
         14    1    1    2    0    0  0.13656566117E-01  0.60360195239E-03 -0.19745024943E-01  0.24015248144E-01  0.00000000000E+00 0.  1.
     999901    1    3    3    0    0  0.18566898513E-01  0.98571719212E-01 -0.59102212692E-01  0.88766783489E+00  0.88000000000E+00 0. -1.
        -11    1    4    4    0    0 -0.10755784740E-01 -0.20594337926E-01  0.89352914653E-02  0.24898076523E-01  0.51100000000E-03 0.  1.
         11    1    4    4    0    0 -0.21467679891E-01 -0.78580983239E-01  0.69911946170E-01  0.10734884044E+00  0.51100000000E-03 0. -1.
</event>
<event>
 8    1  0.1288617E+005  0.1043930E+01  0.7957747E-01            NaN
         13   -1    0    0    0    0  0.00000000000E+00  0.00000000000E+00  0.74505805969E-08  0.10566000000E+00  0.10566000000E+00 0.  1.
     999900   -1    0    0    0    0 -0.00000000000E+00 -0.00000000000E+00 -0.74505805969E-08  0.93827000000E+00  0.93827000000E+00 0. -1.
     999902    2    1    2    0    0  0.60302268596E-03  0.26350273533E-03 -0.24084839491E-01  0.10198361717E+01  0.10195515213E+01 0.  0.
     999903    2    3    3    0    0 -0.11182917360E+00  0.62780719571E-01  0.10189348626E-01  0.12982262058E+00  0.17404228551E-01 0.  0.
         14    1    1    2    0    0 -0.60302268596E-03 -0.26350273533E-03  0.24084839491E-01  0.24093828325E-01  0.00000000000E+00 0.  1.
     999901    1    3    3    0    0  0.11243219628E+00 -0.62517216835E-01 -0.34274188117E-01  0.89001355110E+00  0.88000000000E+00 0.  1.
        -11    1    4    4    0    0 -0.60726610207E-01  0.29881308890E-01  0.13248073422E-01  0.68966559858E-01  0.51100000000E-03 0. -1.
         11    1    4    4    0    0 -0.51102563390E-01  0.32899410681E-01 -0.30587247963E-02  0.60856060722E-01  0.51100000000E-03 0.  1.
</event>
<event>
 8    1  0.1042301E+005  0.1043930E+01  0.7957747E-01            NaN
         13   -1    0    0    0    0  0.00000000000E+00  0.00000000000E+00  0.74505805969E-08  0.10566000000E+00  0.10566000000E+00 0. -1.
     999900   -1    0    0    0    0 -0.00000000000E+00 -0.00000000000E+00 -0.74505805969E-08  0.93827000000E+00  0.93827000000E+00 0. -1.
     999902    2    1    2    0    0  0.82509773944E-02  0.14865338429E-01 -0.15110067124E-01  0.10211842082E+01  0.10209308577E+01 0.  0.
     999903    2    3    3    0    0  0.20029680308E-02 -0.27097929508E-01  0.12470768734E+00  0.12913658734E+00  0.19645387380E-01 0.  0.
         14    1    1    2    0    0 -0.82509773944E-02 -0.14865338429E-01  0.15110067124E-01  0.22745791766E-01  0.00000000000E+00 0. -1.
     999901    1    3    3    0    0  0.62480093636E-02  0.41963267937E-01 -0.13981775446E+00  0.89204762089E+00  0.88000000000E+00 0. -1.
        -11    1    4    4    0    0  0.47499581124E-02 -0.24186013762E-01  0.68804634020E-01  0.73088057488E-01  0.51100000000E-03 0.  1.
         11    1    4    4    0    0 -0.27469900815E-02 -0.29119157457E-02  0.55903053316E-01  0.56048529855E-01  0.51100000000E-03 0. -1.
</event>
<event>
 8    1  0.1042301E+005  0.1043930E+01  0.7957747E-01            NaN
         13   -1    0    0    0    0  0.00000000000E+00  0.00000000000E+00  0.74505805969E-08  0.10566000000E+00  0.10566000000E+00 0. -1.
     999900   -1    0    0    0    0 -0.00000000000E+00 -0.00000000000E+00 -0.74505805969E-08  0.93827000000E+00  0.93827000000E+00 0. -1.
     999902    2    1    2    0    0 -0.55451358628E-02 -0.11021611765E-01 -0.20510864292E-01  0.10199942524E+01  0.10197133690E+01 0.  0.
     999903    2    3    3    0    0  0.35448750572E-01 -0.10598227594E+00  0.63371065199E-01  0.12997503659E+00  0.19717035876E-01 0.  0.
         14    1    1    2    0    0  0.55451358628E-02  0.11021611765E-01  0.20510864292E-01  0.23935747568E-01  0.00000000000E+00 0. -1.
     999901    1    3    3    0    0 -0.40993886435E-01  0.94960664170E-01 -0.83881929490E-01  0.89001921584E+00  0.88000000000E+00 0. -1.
        -11    1    4    4    0    0  0.31568205319E-01 -0.64664923538E-01  0.41253364485E-01  0.82947001908E-01  0.51100000000E-03 0. -1.
         11    1    4    4    0    0  0.38805452537E-02 -0.41317352398E-01  0.22117700713E-01  0.47028034687E-01  0.51100000000E-03 0.  1.
</event>
<event>
 8    1  0.1042301E+005  0.1043930E+01  0.7957747E-01            NaN
         13   -1    0    0    0    0  0.00000000000E+00  0.00000000000E+00  0.74505805969E-08  0.10566000000E+00  0.10566000000E+00 0. -1.
     999900   -1    0    0    0    0 -0.00000000000E+00 -0.00000000000E+00 -0.74505805969E-08  0.93827000000E+00  0.93827000000E+00 0. -1.
     999902    2    1    2    0    0  0.44695570493E-02  0.16592119059E-01 -0.16524679789E-01  0.10200901091E+01  0.10198114974E+01 0.  0.
     999903    2    3    3    0    0 -0.46798520669E-01  0.10190811770E+00 -0.68263423307E-01  0.13296884740E+00  0.21105767592E-01 0.  0.
         14    1    1    2    0    0 -0.44695570493E-02 -0.16592119059E-01  0.16524679789E-01  0.23839890881E-01  0.00000000000E+00 0. -1.
     999901    1    3    3    0    0  0.51268077718E-01 -0.85315998646E-01  0.51738743518E-01  0.88712126172E+00  0.88000000000E+00 0.  1.
        -11    1    4    4    0    0 -0.37943932781E-01  0.64662512292E-01 -0.37368947271E-01  0.83771605404E-01  0.51100000000E-03 0.  1.
         11    1    4    4    0    0 -0.88545878883E-02  0.37245605413E-01 -0.30894476036E-01  0.49197241994E-01  0.51100000000E-03 0. -1.
</event>
<event>
 8    1  0.1042301E+005  0.1043930E+01  0.7957747E-01            NaN
         13   -1    0    0    0    0  0.00000000000E+00  0.00000000000E+00  0.74505805969E-08  0.10566000000E+00  0.10566000000E+00 0. -1.
     999900   -1    0    0    0    0 -0.00000000000E+00 -0.00000000000E+00 -0.74505805969E-08  0.93827000000E+00  0.93827000000E+00 0.  1.
     999902    2    1    2    0    0 -0.22317503186E-02 -0.17601701552E-01 -0.14932298790E-01  0.10207400420E+01  0.10204765843E+01 0.  0.
     999903    2    3    3    0    0 -0.11675105889E-01  0.12593987298E+00  0.11983079129E-01  0.12865383639E+00  0.20274509322E-01 0.  0.
         14    1    1    2    0    0  0.22317503186E-02  0.17601701552E-01  0.14932298790E-01  0.23189958046E-01  0.00000000000E+00 0. -1.
     999901    1    3    3    0    0  0.94433555708E-02 -0.14354157454E+00 -0.26915377919E-01  0.89208620556E+00  0.88000000000E+00 0.  1.
        -11    1    4    4    0    0 -0.12975494071E-01  0.47141206991E-01  0.94517452201E-02  0.49802143043E-01  0.51100000000E-03 0.  1.
         11    1    4    4    0    0  0.13003881813E-02  0.78798665993E-01  0.25313339092E-02  0.78851693350E-01  0.51100000000E-03 0. -1.
</event>
<event>
 8    1  0.1042301E+005  0.1043930E+01  0.7957747E-01            NaN
         13   -1    0    0    0    0  0.00000000000E+00  0.00000000000E+00  0.74505805969E-08  0.10566000000E+00  0.10566000000E+00 0. -1.
     999900   -1    0    0    0    0 -0.00000000000E+00 -0.00000000000E+00 -0.74505805969E-08  0.93827000000E+00  0.93827000000E+00 0. -1.
     999902    2    1    2    0    0 -0.27802299098E-02  0.38630330215E-02  0.24874588560E-01  0.10186041662E+01  0.10182892759E+01 0.  0.
     999903    2    3    3    0    0 -0.40084899564E-01  0.30385928945E-01  0.12139950971E+00  0.13214369736E+00  0.13928816972E-01 0.  0.
         14    1    1    2    0    0  0.27802299098E-02 -0.38630330215E-02 -0.24874588560E-01  0.25325833816E-01  0.00000000000E+00 0.  1.
     999901    1    3    3    0    0  0.37304669654E-01 -0.26522895923E-01 -0.96524921153E-01  0.88646046883E+00  0.88000000000E+00 0. -1.
        -11    1    4    4    0    0 -0.26967801337E-02  0.77581162254E-02  0.24462964631E-01  0.25810051337E-01  0.51100000000E-03 0.  1.
         11    1    4    4    0    0 -0.37388119430E-01  0.22627812719E-01  0.96936545081E-01  0.10633364602E+00  0.51100000000E-03 0. -1.
</event>
<event>
 8    1  0.1042301E+005  0.1043930E+01  0.7957747E-01            NaN
         13   -1    0    0    0    0  0.00000000000E+00  0.00000000000E+00  0.74505805969E-08  0.10566000000E+00  0.10566000000E+00 0.  1.
     999900   -1    0    0    0    0 -0.00000000000E+00 -0.00000000000E+00 -0.74505805969E-08  0.93827000000E+00  0.93827000000E+00 0.  1.
     999902    2    1    2    0    0 -0.23391462685E-01 -0.27021468950E-02  0.41029556355E-02  0.10200281932E+01  0.10197481152E+01 0.  0.
     999903    2    3    3    0    0 -0.10609144198E+00  0.53268251178E-01  0.56193720617E-01  0.13284984593E+00  0.19961129247E-01 0.  0.
         14    1    1    2    0    0  0.23391462685E-01  0.27021468950E-02 -0.41029556355E-02  0.23901806822E-01  0.00000000000E+00 0.  1.
     999901    1    3    3    0    0  0.82699979295E-01 -0.55970398073E-01 -0.52090764982E-01  0.88717834725E+00  0.88000000000E+00 0. -1.
        -11    1    4    4    0    0 -0.99711471662E-02  0.10484050133E-02  0.38732379129E-03  0.10046594926E-01  0.51100000000E-03 0.  1.
         11    1    4    4    0    0 -0.96120294814E-01  0.52219846165E-01  0.55806396826E-01  0.12280325100E+00  0.51100000000E-03 0. -1.
</event>
<event>
 8    1  0.1042301E+005  0.1043930E+01  0.7957747E-01            NaN
         13   -1    0    0    0    0  0.00000000000E+00  0.00000000000E+00  0.74505805969E-08  0.10566000000E+00  0.10566000000E+00 0.  1.
     999900   -1    0    0    0    0 -0.00000000000E+00 -0.00000000000E+00 -0.74505805969E-08  0.93827000000E+00  0.93827000000E+00 0. -1.
     999902    2    1    2    0    0 -0.20106396529E-01  0.68215760399E-03  0.10762036275E-01  0.10211143487E+01  0.10208594218E+01 0.  0.
     999903    2    3    3    0    0  0.28960691718E-01  0.11987006434E+00  0.40382850298E-01  0.13123192449E+00  0.19582885817E-01 0.  0.
         14    1    1    2    0    0  0.20106396529E-01 -0.68215760399E-03 -0.10762036275E-01  0.22815651320E-01  0.00000000000E+00 0.  1.
     999901    1    3    3    0    0 -0.49067088247E-01 -0.11918790674E+00 -0.29620814023E-01  0.88988242419E+00  0.88000000000E+00 0. -1.
        -11    1    4    4    0    0  0.10122336201E-01  0.63390259035E-01  0.29730526105E-01  0.70745684916E-01  0.51100000000E-03 0. -1.
         11    1    4    4    0    0  0.18838355517E-01  0.56479805306E-01  0.10652324192E-01  0.60486239573E-01  0.51100000000E-03 0.  1.
</event>
<event>
 8    1  0.1042301E+005  0.1043930E+01  0.7957747E-01            NaN
         13   -1    0    0    0    0  0.00000000000E+00  0.00000000000E+00  0.74505805969E-08  0.10566000000E+00  0.10566000000E+00 0. -1.
     999900   -1    0    0    0    0 -0.00000000000E+00 -0.00000000000E+00 -0.74505805969E-08  0.93827000000E+00  0.93827000000E+00 0.  1.
     999902    2    1    2    0    0  0.24648387154E-02 -0.22563747190E-01  0.50917481926E-02  0.10206679275E+01  0.10204028098E+01 0.  0.
     999903    2    3    3    0    0 -0.89849839500E-01  0.15748437738E-01  0.91917371501E-01  0.13076427418E+00  0.18151729118E-01 0.  0.
         14    1    1    2    0    0 -0.24648387154E-02  0.22563747190E-01 -0.50917481926E-02  0.23262072496E-01  0.00000000000E+00 0.  1.
     999901    1    3    3    0    0  0.92314678215E-01 -0.38312184928E-01 -0.86825623308E-01  0.88990365332E+00  0.88000000000E+00 0.  1.
        -11    1    4    4    0    0 -0.21971237361E-01 -0.31435929583E-02  0.27022220676E-01  0.34972546078E-01  0.51100000000E-03 0.  1.
         11    1    4    4    0    0 -0.67878602139E-01  0.18892030696E-01  0.64895150825E-01  0.95791728107E-01  0.51100000000E-03 0. -1.
</event>
<event>
 8    1  0.1042301E+005  0.1043930E+01  0.7957747E-01            NaN
         13   -1    0    0    0    0  0.00000000000E+00  0.00000000000E+00  0.74505805969E-08  0.10566000000E+00  0.10566000000E+00 0. -1.
     999900   -1    0    0    0    0 -0.00000000000E+00 -0.00000000000E+00 -0.74505805969E-08  0.93827000000E+00  0.93827000000E+00 0. -1.
     999902    2    1    2    0    0  0.15670141278E-01  0.11156395371E-01 -0.10955730266E-01  0.10217930058E+01  0.10215531803E+01 0.  0.
     999903    2    3    3    0    0 -0.11068148135E+00 -0.48957912505E-01  0.40713378862E-01  0.12924151746E+00  0.19963043521E-01 0.  0.
         14    1    1    2    0    0 -0.15670141278E-01 -0.11156395371E-01  0.10955730266E-01  0.22136994173E-01  0.00000000000E+00 0. -1.
     999901    1    3    3    0    0  0.12635162262E+00  0.60114307877E-01 -0.51669109128E-01  0.89255148837E+00  0.88000000000E+00 0.  1.
        -11    1    4    4    0    0 -0.25589170395E-01 -0.12256895122E-01  0.18720796891E-01  0.33996565662E-01  0.51100000000E-03 0. -1.
         11    1    4    4    0    0 -0.85092310951E-01 -0.36701017383E-01  0.21992581971E-01  0.95244951796E-01  0.51100000000E-03 0.  1.
</event>
<event>
 8    1  0.1042301E+005  0.1043930E+01  0.7957747E-01            NaN
         13   -1    0    0    0    0  0.00000000000E+00  0.00000000000E+00  0.74505805969E-08  0.10566000000E+00  0.10566000000E+00 0.  1.
     999900   -1    0    0    0    0 -0.00000000000E+00 -0.00000000000E+00 -0.74505805969E-08  0.93827000000E+00  0.93827000000E+00 0.  1.
     999902    2    1    2    0    0  0.93827836632E-02  0.21481435965E-01 -0.34774532667E-03  0.10204862450E+01  0.10202169214E+01 0.  0.
     999903    2    3    3    0    0 -0.90043632330E-01  0.33119788333E-03  0.91417022383E-01  0.12989446573E+00  0.20187491902E-01 0.  0.
         14    1    1    2    0    0 -0.93827836632E-02 -0.21481435965E-01  0.34774532667E-03  0.23443754972E-01  0.00000000000E+00 0. -1.
     999901    1    3    3    0    0  0.99426415994E-01  0.21150238082E-01 -0.91764767710E-01  0.89059177930E+00  0.88000000000E+00 0.  1.
        -11    1    4    4    0    0 -0.59257183804E-01  0.97119746910E-02  0.57645518849E-01  0.83240634603E-01  0.51100000000E-03 0.  1.
         11    1    4    4    0    0 -0.30786448527E-01 -0.93807768076E-02  0.33771503534E-01  0.46653831122E-01  0.51100000000E-03 0. -1.
</event>
<event>
 8    1  0.1042301E+005  0.1043930E+01  0.7957747E-01            NaN
         13   -1    0    0    0    0  0.00000000000E+00  0.00000000000E+00  0.74505805969E-08  0.10566000000E+00  0.10566000000E+00 0. -1.
     999900   -1    0    0    0    0 -0.00000000000E+00 -0.00000000000E+00 -0.74505805969E-08  0.93827000000E+00  0.93827000000E+00 0.  1.
     999902    2    1    2    0    0 -0.17709388532E-01  0.13195198314E-01  0.60223275326E-02  0.10210388635E+01  0.10207822278E+01 0.  0.
     999903    2    3    3    0    0  0.63018450635E-02  0.12780704648E+00 -0.28135107719E-01  0.13262502669E+00  0.20578120352E-01 0.  0.
         14    1    1    2    0    0  0.17709388532E-01 -0.13195198314E-01 -0.60223275326E-02  0.22891136487E-01  0.00000000000E+00 0.  1.
     999901    1    3    3    0    0 -0.24011233596E-01 -0.11461184816E+00  0.34157435252E-01  0.88841383682E+00  0.88000000000E+00 0. -1.
        -11    1    4    4    0    0  0.11534140440E-01  0.63341792697E-01 -0.79792265634E-02  0.64877949069E-01  0.51100000000E-03 0.  1.
         11    1    4    4    0    0 -0.52322953768E-02  0.64465253780E-01 -0.20155881156E-01  0.67747077620E-01  0.51100000000E-03 0. -1.
</event>
<event>
 8    1  0.1042301E+005  0.1043930E+01  0.7957747E-01            NaN
         13   -1    0    0    0    0  0.00000000000E+00  0.00000000000E+00  0.74505805969E-08  0.10566000000E+00  0.10566000000E+00 0.  1.
     999900   -1    0    0    0    0 -0.00000000000E+00 -0.00000000000E+00 -0.74505805969E-08  0.93827000000E+00  0.93827000000E+00 0. -1.
     999902    2    1    2    0    0  0.20471537105E-01  0.86519818438E-02  0.80099622491E-02  0.10203058573E+01  0.10200323242E+01 0.  0.
     999903    2    3    3    0    0 -0.64708188005E-01  0.10955962323E+00 -0.17442792482E-01  0.13008915317E+00  0.20699664866E-01 0.  0.
         14    1    1    2    0    0 -0.20471537105E-01 -0.86519818438E-02 -0.80099622491E-02  0.23624142662E-01  0.00000000000E+00 0.  1.
     999901    1    3    3    0    0  0.85179725110E-01 -0.10090764138E+00  0.25452754731E-01  0.89021670417E+00  0.88000000000E+00 0.  1.
        -11    1    4    4    0    0 -0.34722203398E-01  0.50901738320E-01  0.11715366395E-02  0.61629960181E-01  0.51100000000E-03 0.  1.
         11    1    4    4    0    0 -0.29985984606E-01  0.58657884909E-01 -0.18614329122E-01  0.68459192987E-01  0.51100000000E-03 0. -1.
</event>
<event>
 8    1  0.1042301E+005  0.1043930E+01  0.7957747E-01            NaN
         13   -1    0    0    0    0  0.00000000000E+00  0.00000000000E+00  0.74505805969E-08  0.10566000000E+00  0.10566000000E+00 0.  1.
     999900   -1    0    0    0    0 -0.00000000000E+00 -0.00000000000E+00 -0.74505805969E-08  0.93827000000E+00  0.93827000000E+00 0.  1.
     999902    2    1    2    0    0 -0.68634858217E-02 -0.16314266976E-01  0.17228673179E-01  0.10192300015E+01  0.10189306680E+01 0.  0.
     999903    2    3    3    0    0 -0.35583258362E-01  0.55476307778E-02 -0.12103805810E+00  0.12770296499E+00  0.18997138666E-01 0.  0.
         14    1    1    2    0    0  0.68634858217E-02  0.16314266976E-01 -0.17228673179E-01  0.24699998464E-01  0.00000000000E+00 0. -1.
     999901    1    3    3    0    0  0.28719772541E-01 -0.21861897753E-01  0.13826673128E+00  0.89152703654E+00  0.88000000000E+00 0. -1.
        -11    1    4    4    0    0 -0.90426341015E-02 -0.59471362090E-02 -0.46567673305E-01  0.47811577872E-01  0.51100000000E-03 0. -1.
         11    1    4    4    0    0 -0.26540624261E-01  0.11494766987E-01 -0.74470384792E-01  0.79891387122E-01  0.51100000000E-03 0.  1.
</event>
<event>
 8    1  0.1042301E+005  0.1043930E+01  0.7957747E-01            NaN
         13   -1    0    0    0    0  0.00000000000E+00  0.00000000000E+00  0.74505805969E-08  0.10566000000E+00  0.10566000000E+00 0.  1.
     999900   -1    0    0    0    0 -0.00000000000E+00 -0.00000000000E+00 -0.74505805969E-08  0.93827000000E+00  0.93827000000E+00 0. -1.
     999902    2    1    2    0    0 -0.15315800848E-02  0.14956480411E-01 -0.21559694504E-01  0.10176457372E+01  0.10173062390E+01 0.  0.
     999903    2    3    3    0    0 -0.99418811292E-02  0.99729001461E-01 -0.82829862232E-01  0.13141148660E+00  0.19065098988E-01 0.  0.
         14    1    1    2    0    0  0.15315800848E-02 -0.14956480411E-01  0.21559694504E-01  0.26284262800E-01  0.00000000000E+00 0.  1.
     999901    1    3    3    0    0  0.84103010443E-02 -0.84772521050E-01  0.61270167727E-01  0.88623425060E+00  0.88000000000E+00 0.  1.
        -11    1    4    4    0    0 -0.10177917260E-01  0.47857547219E-01 -0.30125786420E-01  0.57460934155E-01  0.51100000000E-03 0.  1.
         11    1    4    4    0    0  0.23603613064E-03  0.51871454242E-01 -0.52704075811E-01  0.73950552441E-01  0.51100000000E-03 0. -1.
</event>
<event>
 8    1  0.1042301E+005  0.1043930E+01  0.7957747E-01            NaN
         13   -1    0    0    0    0  0.00000000000E+00  0.00000000000E+00  0.74505805969E-08  0.10566000000E+00  0.10566000000E+00 0. -1.
     999900   -1    0    0    0    0 -0.00000000000E+00 -0.00000000000E+00 -0.74505805969E-08  0.93827000000E+00  0.93827000000E+00 0. -1.
     999902    2    1    2    0    0  0.13077148796E-01  0.39128013878E-02  0.17945318070E-01  0.10213832425E+01  0.10211343554E+01 0.  0.
     999903    2    3    3    0    0  0.19669538553E-01 -0.35636798926E-02 -0.12644422361E+00  0.12956055989E+00  0.19955110486E-01 0.  0.
         14    1    1    2    0    0 -0.13077148796E-01 -0.39128013878E-02 -0.17945318070E-01  0.22546757549E-01  0.00000000000E+00 0.  1.
     999901    1    3    3    0    0 -0.65923897577E-02  0.74764812804E-02  0.14438954168E+00  0.89182268256E+00  0.88000000000E+00 0.  1.
        -11    1    4    4    0    0  0.76984830093E-02 -0.11517186843E-01 -0.61461783617E-01  0.63005747355E-01  0.51100000000E-03 0. -1.
         11    1    4    4    0    0  0.11971055544E-01  0.79535069502E-02 -0.64982439993E-01  0.66554812539E-01  0.51100000000E-03 0.  1.
</event>
<event>
 8    1  0.1042301E+005  0.1043930E+01  0.7957747E-01            NaN
         13   -1    0    0    0    0  0.00000000000E+00  0.00000000000E+00  0.74505805969E-08  0.10566000000E+00  0.10566000000E+00 0.  1.
     999900   -1    0    0    0    0 -0.00000000000E+00 -0.00000000000E+00 -0.74505805969E-08  0.93827000000E+00  0.93827000000E+00 0.  1.
     999902    2    1    2    0    0  0.14732143638E-01  0.17122096130E-01 -0.81697000597E-02  0.10199102949E+01  0.10196274141E+01 0.  0.
     999903    2    3    3    0    0  0.67860762171E-01 -0.98809252478E-01 -0.46017475556E-01  0.12991300179E+00  0.19784553599E-01 0.  0.
         14    1    1    2    0    0 -0.14732143638E-01 -0.17122096130E-01  0.81697000597E-02  0.24019705059E-01  0.00000000000E+00 0.  1.
     999901    1    3    3    0    0 -0.53128618533E-01  0.11593134861E+00  0.37847775496E-01  0.88999729315E+00  0.88000000000E+00 0. -1.
        -11    1    4    4    0    0  0.12166606659E-01 -0.12752718137E-01 -0.14020306535E-01  0.22527499946E-01  0.51100000000E-03 0. -1.
         11    1    4    4    0    0  0.55694155513E-01 -0.86056534341E-01 -0.31997169020E-01  0.10738550185E+00  0.51100000000E-03 0.  1.
</event>
<event>
 8    1  0.1042301E+005  0.1043930E+01  0.7957747E-01            NaN
         13   -1    0    0    0    0  0.00000000000E+00  0.00000000000E+00  0.74505805969E-08  0.10566000000E+00  0.10566000000E+00 0. -1.
     999900   -1    0    0    0    0 -0.00000000000E+00 -0.00000000000E+00 -0.74505805969E-08  0.93827000000E+00  0.93827000000E+00 0. -1.
     999902    2    1    2    0    0 -0.99256820481E-02 -0.17287610444E-01  0.13845538596E-01  0.10196590384E+01  0.10193701364E+01 0.  0.
     999903    2    3    3    0    0  0.95125287874E-03  0.90464030411E-01  0.90799240211E-01  0.12968679386E+00  0.19736179945E-01 0.  0.
         14    1    1    2    0    0  0.99256820481E-02  0.17287610444E-01 -0.13845538596E-01  0.24270961621E-01  0.00000000000E+00 0.  1.
     999901    1    3    3    0    0 -0.10876934927E-01 -0.10775164086E+00 -0.76953701616E-01  0.88997224452E+00  0.88000000000E+00 0. -1.
        -11    1    4    4    0    0 -0.89644291675E-02  0.55876530725E-01  0.56782923514E-01  0.80169253458E-01  0.51100000000E-03 0. -1.
         11    1    4    4    0    0  0.99156820462E-02  0.34587499686E-01  0.34016316697E-01  0.49517540403E-01  0.51100000000E-03 0.  1.
</event>
<event>
 8    1  0.1042301E+005  0.1043930E+01  0.7957747E-01            NaN
         13   -1    0    0    0    0  0.00000000000E+00  0.00000000000E+00  0.74505805969E-08  0.10566000000E+00  0.10566000000E+00 0. -1.
     999900   -1    0    0    0    0 -0.00000000000E+00 -0.00000000000E+00 -0.74505805969E-08  0.93827000000E+00  0.93827000000E+00 0.  1.
     999902    2    1    2    0    0  0.11794725196E-01 -0.17904240449E-01  0.89866973084E-02  0.10206826755E+01  0.10204178977E+01 0.  0.
     999903    2    3    3    0    0  0.21958039820E-01 -0.81272051912E-01  0.10159318709E+00  0.13349907868E+00  0.20335348778E-01 0.  0.
         14    1    1    2    0    0 -0.11794725196E-01  0.17904240449E-01 -0.89866973084E-02  0.23247324513E-01  0.00000000000E+00 0.  1.
     999901    1    3    3    0    0 -0.10163314624E-01  0.63367811463E-01 -0.92606489784E-01  0.88718359681E+00  0.88000000000E+00 0.  1.
        -11    1    4    4    0    0  0.29263428411E-02 -0.41507929330E-02  0.15678462768E-01  0.16488416545E-01  0.51100000000E-03 0. -1.
         11    1    4    4    0    0  0.19031696979E-01 -0.77121258979E-01  0.85914724325E-01  0.11701066214E+00  0.51100000000E-03 0.  1.
</event>
<event>
 8    1  0.1042301E+005  0.1043930E+01  0.7957747E-01            NaN
         13   -1    0    0    0    0  0.00000000000E+00  0.00000000000E+00  0.74505805969E-08  0.10566000000E+00  0.10566000000E+00 0. -1.
     999900   -1    0    0    0    0 -0.00000000000E+00 -0.00000000000E+00 -0.74505805969E-08  0.93827000000E+00  0.93827000000E+00 0. -1.
     999902    2    1    2    0    0 -0.18893016954E-03 -0.22671279437E-01  0.12263940422E-02  0.10212247881E+01  0.10209723508E+01 0.  0.
     999903    2    3    3    0    0 -0.30768732322E-01 -0.12369200068E+00  0.37748605219E-01  0.13416549901E+00  0.18138302209E-01 0.  0.
         14    1    1    2    0    0  0.18893016954E-03  0.22671279437E-01 -0.12263940422E-02  0.22705211919E-01  0.00000000000E+00 0. -1.
     999901    1    3    3    0    0  0.30579802153E-01  0.10102072124E+00 -0.36522211177E-01  0.88705928907E+00  0.88000000000E+00 0. -1.
        -11    1    4    4    0    0 -0.19119907527E-01 -0.93829547633E-01  0.35133607558E-01  0.10200091359E+00  0.51100000000E-03 0. -1.
         11    1    4    4    0    0 -0.11648824795E-01 -0.29862453048E-01  0.26149976606E-02  0.32164585415E-01  0.51100000000E-03 0.  1.
</event>
<event>
 8    1  0.1042301E+005  0.1043930E+01  0.7957747E-01            NaN
         13   -1    0    0    0    0  0.00000000000E+00  0.00000000000E+00  0.74505805969E-08  0.10566000000E+00  0.10566000000E+00 0.  1.
     999900   -1    0    0    0    0 -0.00000000000E+00 -0.00000000000E+00 -0.74505805969E-08  0.93827000000E+00  0.93827000000E+00 0. -1.
     999902    2    1    2    0    0  0.12583318078E-01  0.24002285143E-01 -0.61603027717E-02  0.10161379343E+01  0.10157577972E+01 0.  0.
     999903    2    3    3    0    0  0.67385840639E-02 -0.98543336515E-01 -0.74061298783E-01  0.12503629275E+00  0.19819203838E-01 0.  0.
         14    1    1    2    0    0 -0.12583318078E-01 -0.24002285143E-01  0.61603027717E-02  0.27792065705E-01  0.00000000000E+00 0. -1.
     999901    1    3    3    0    0  0.58447340137E-02  0.12254562166E+00  0.67900996012E-01  0.89110164154E+00  0.88000000000E+00 0.  1.
        -11    1    4    4    0    0  0.20801101720E-03 -0.33696307088E-01 -0.14302252501E-01  0.36610106905E-01  0.51100000000E-03 0.  1.
         11    1    4    4    0    0  0.65305730467E-02 -0.64847029426E-01 -0.59759046282E-01  0.88426185846E-01  0.51100000000E-03 0. -1.
</event>
<event>
 8    1  0.1042301E+005  0.1043930E+01  0.7957747E-01            NaN
         13   -1    0    0    0    0  0.00000000000E+00  0.00000000000E+00  0.74505805969E-08  0.10566000000E+00  0.10566000000E+00 0.  1.
     999900   -1    0    0    0    0 -0.00000000000E+00 -0.00000000000E+00 -0.74505805969E-08  0.93827000000E+00  0.93827000000E+00 0.  1.
     999902    2    1    2    0    0  0.88889536427E-02  0.18719937213E-01  0.12919496934E-01  0.10195094565E+01  0.10192169391E+01 0.  0.
     999903    2    3    3    0    0  0.30139484855E-01 -0.11141145027E+00 -0.50210893680E-01  0.12744936358E+00  0.20032639198E-01 0.  0.
         14    1    1    2    0    0 -0.88889536427E-02 -0.18719937213E-01 -0.12919496934E-01  0.24420543547E-01  0.00000000000E+00 0.  1.
     999901    1    3    3    0    0 -0.21250531212E-01  0.13013138748E+00  0.63130390614E-01  0.89206009288E+00  0.88000000000E+00 0. -1.
        -11    1    4    4    0    0  0.26362520689E-02 -0.46302906562E-01 -0.22205381849E-01  0.51422262544E-01  0.51100000000E-03 0. -1.
         11    1    4    4    0    0  0.27503232786E-01 -0.65108543707E-01 -0.28005511831E-01  0.76027101032E-01  0.51100000000E-03 0.  1.
</event>
<event>
 8    1  0.1042301E+005  0.1043930E+01  0.7957747E-01            NaN
         13   -1    0    0    0    0  0.00000000000E+00  0.00000000000E+00  0.74505805969E-08  0.10566000000E+00  0.10566000000E+00 0. -1.
     999900   -1    0    0    0    0 -0.00000000000E+00 -0.00000000000E+00 -0.74505805969E-08  0.93827000000E+00  0.93827000000E+00 0.  1.
     999902    2    1    2    0    0 -0.95585638539E-02  0.20960928807E-01  0.26107766420E-02  0.10207450300E+01  0.10204816870E+01 0.  0.
     999903    2    3    3    0    0  0.10078782678E+00 -0.20625872950E-01 -0.75751290175E-01  0.12942780166E+00  0.20728849898E-01 0.  0.
         14    1    1    2    0    0  0.95585638539E-02 -0.20960928807E-01 -0.26107766420E-02  0.23184970004E-01  0.00000000000E+00 0. -1.
     999901    1    3    3    0    0 -0.11034639063E+00  0.41586801757E-01  0.78362066817E-01  0.89131722833E+00  0.88000000000E+00 0. -1.
        -11    1    4    4    0    0  0.76430281220E-01 -0.15869476530E-01 -0.45719628861E-01  0.90465317978E-01  0.51100000000E-03 0.  1.
         11    1    4    4    0    0  0.24357545561E-01 -0.47563964198E-02 -0.30031661314E-01  0.38962483685E-01  0.51100000000E-03 0. -1.
</event>
<event>
 8    1  0.1042301E+005  0.1043930E+01  0.7957747E-01            NaN
         13   -1    0    0    0    0  0.00000000000E+00  0.00000000000E+00  0.74505805969E-08  0.10566000000E+00  0.10566000000E+00 0.  1.
     999900   -1    0    0    0    0 -0.00000000000E+00 -0.00000000000E+00 -0.74505805969E-08  0.93827000000E+00  0.93827000000E+00 0.  1.
     999902    2    1    2    0    0  0.15469980213E-01  0.15902435011E-02 -0.19341934635E-01  0.10191114667E+01  0.10188092176E+01 0.  0.
     999903    2    3    3    0    0 -0.54579872078E-01 -0.11380668663E+00  0.12482269184E-01  0.12824884355E+00  0.19000907085E-01 0.  0.
         14    1    1    2    0    0 -0.15469980213E-01 -0.15902435011E-02  0.19341934635E-01  0.24818533349E-01  0.00000000000E+00 0.  1.
     999901    1    3    3    0    0  0.70049852291E-01  0.11539693013E+00 -0.31824203819E-01  0.89086262310E+00  0.88000000000E+00 0. -1.
        -11    1    4    4    0    0 -0.31450690864E-01 -0.74248810464E-01  0.16286067509E-01  0.82264992111E-01  0.51100000000E-03 0. -1.
         11    1    4    4    0    0 -0.23129181214E-01 -0.39557876166E-01 -0.38037983254E-02  0.45983851439E-01  0.51100000000E-03 0.  1.
</event>
<event>
 8    1  0.1042301E+005  0.1043930E+01  0.7957747E-01            NaN
         13   -1    0    0    0    0  0.00000000000E+00  0.00000000000E+00  0.74505805969E-08  0.10566000000E+00  0.10566000000E+00 0.  1.
     999900   -1    0    0    0    0 -0.00000000000E+00 -0.00000000000E+00 -0.74505805969E-08  0.93827000000E+00  0.93827000000E+00 0.  1.
     999902    2    1    2    0    0 -0.12897257412E-01 -0.13785453301E-01 -0.15794208580E-01  0.10193162844E+01  0.10190190639E+01 0.  0.
     999903    2    3    3    0    0 -0.83395605249E-01 -0.93162659652E-01  0.35670807730E-01  0.13144275407E+00  0.19253128199E-01 0.  0.
         14    1    1    2    0    0  0.12897257412E-01  0.13785453301E-01  0.15794208580E-01  0.24613715610E-01  0.00000000000E+00 0.  1.
     999901    1    3    3    0    0  0.70498347837E-01  0.79377206351E-01 -0.51465016310E-01  0.88787353032E+00  0.88000000000E+00 0. -1.
        -11    1    4    4    0    0 -0.34655459040E-01 -0.34370223036E-01  0.47207872748E-02  0.49039372206E-01  0.51100000000E-03 0.  1.
         11    1    4    4    0    0 -0.48740146209E-01 -0.58792436616E-01  0.30950020455E-01  0.82403381865E-01  0.51100000000E-03 0. -1.
</event>
<event>
 8    1  0.1042301E+005  0.1043930E+01  0.7957747E-01            NaN
         13   -1    0    0    0    0  0.00000000000E+00  0.00000000000E+00  0.74505805969E-08  0.10566000000E+00  0.10566000000E+00 0. -1.
     999900   -1    0    0    0    0 -0.00000000000E+00 -0.00000000000E+00 -0.74505805969E-08  0.93827000000E+00  0.93827000000E+00 0. -1.
     999902    2    1    2    0    0  0.18365863338E-01  0.96614145437E-02  0.10614050547E-01  0.10206210760E+01  0.10203548770E+01 0.  0.
     999903    2    3    3    0    0  0.49010386788E-01 -0.94708005877E-01 -0.71733676509E-01  0.13010818400E+00  0.20268073620E-01 0.  0.
         14    1    1    2    0    0 -0.18365863338E-01 -0.96614145437E-02 -0.10614050547E-01  0.23308923960E-01  0.00000000000E+00 0.  1.
     999901    1    3    3    0    0 -0.30644523451E-01  0.10436942042E+00  0.82347727057E-01  0.89051289204E+00  0.88000000000E+00 0.  1.
        -11    1    4    4    0    0  0.21222047323E-01 -0.26996518746E-01 -0.14881034680E-01  0.37428513611E-01  0.51100000000E-03 0. -1.
         11    1    4    4    0    0  0.27788339466E-01 -0.67711487131E-01 -0.56852641829E-01  0.92679670390E-01  0.51100000000E-03 0.  1.
</event>
<event>
 8    1  0.1042301E+005  0.1043930E+01  0.7957747E-01            NaN
         13   -1    0    0    0    0  0.00000000000E+00  0.00000000000E+00  0.74505805969E-08  0.10566000000E+00  0.10566000000E+00 0. -1.
     999900   -1    0    0    0    0 -0.00000000000E+00 -0.00000000000E+00 -0.74505805969E-08  0.93827000000E+00  0.93827000000E+00 0.  1.
     999902    2    1    2    0    0 -0.17460100488E-01  0.53861317715E-02  0.11860680474E-01  0.10221460319E+01  0.10219138757E+01 0.  0.
     999903    2    3    3    0    0 -0.10237306110E+00  0.82575157032E-01  0.20603633934E-01  0.13465248504E+00  0.20196083751E-01 0.  0.
         14    1    1    2    0    0  0.17460100488E-01 -0.53861317715E-02 -0.11860680474E-01  0.21783968092E-01  0.00000000000E+00 0.  1.
     999901    1    3    3    0    0  0.84912960608E-01 -0.77189025260E-01 -0.87429534598E-02  0.88749354687E+00  0.88000000000E+00 0.  1.
        -11    1    4    4    0    0 -0.46583580393E-01  0.45588784564E-01  0.18184735318E-01  0.67670621099E-01  0.51100000000E-03 0.  1.
         11    1    4    4    0    0 -0.55789480702E-01  0.36986372468E-01  0.24188986157E-02  0.66981863940E-01  0.51100000000E-03 0. -1.
</event>
<event>
 8    1  0.1042301E+005  0.1043930E+01  0.7957747E-01            NaN
         13   -1    0    0    0    0  0.00000000000E+00  0.00000000000E+00  0.74505805969E-08  0.10566000000E+00  0.10566000000E+00 0. -1.
     999900   -1    0    0    0    0 -0.00000000000E+00 -0.00000000000E+00 -0.74505805969E-08  0.93827000000E+00  0.93827000000E+00 0. -1.
     999902    2    1    2    0    0  0.13072884330E-01 -0.94140000248E-02 -0.17268168559E-01  0.10203140447E+01  0.10200407033E+01 0.  0.
     999903    2    3    3    0    0  0.59252817612E-01  0.65993864741E-01  0.91696161348E-01  0.12919555787E+00  0.20425953818E-01 0.  0.
         14    1    1    2    0    0 -0.13072884330E-01  0.94140000248E-02  0.17268168559E-01  0.23615955339E-01  0.00000000000E+00 0. -1.
     999901    1    3    3    0    0 -0.46179933282E-01 -0.75407864765E-01 -0.10896432991E+00  0.89111848679E+00  0.88000000000E+00 0. -1.
        -11    1    4    4    0    0  0.38498881494E-01  0.54046039769E-01  0.59961120789E-01  0.89435649594E-01  0.51100000000E-03 0.  1.
         11    1    4    4    0    0  0.20753936117E-01  0.11947824971E-01  0.31735040559E-01  0.39759908277E-01  0.51100000000E-03 0. -1.
</event>
<event>
 8    1  0.1042301E+005  0.1043930E+01  0.7957747E-01            NaN
         13   -1    0    0    0    0  0.00000000000E+00  0.00000000000E+00  0.74505805969E-08  0.10566000000E+00  0.10566000000E+00 0.  1.
     999900   -1    0    0    0    0 -0.00000000000E+00 -0.00000000000E+00 -0.74505805969E-08  0.93827000000E+00  0.93827000000E+00 0.  1.
     999902    2    1    2    0    0  0.15473567706E-01 -0.15193899499E-01 -0.18848651719E-01  0.10151974827E+01  0.10147908017E+01 0.  0.
     999903    2    3    3    0    0 -0.62121819027E-01 -0.10367674074E+00  0.29683276903E-01  0.12603742660E+00  0.19908515946E-01 0.  0.
         14    1    1    2    0    0 -0.15473567706E-01  0.15193899499E-01  0.18848651719E-01  0.28732517314E-01  0.00000000000E+00 0. -1.
     999901    1    3    3    0    0  0.77595386732E-01  0.88482841243E-01 -0.48531928622E-01  0.88916005608E+00  0.88000000000E+00 0.  1.
        -11    1    4    4    0    0 -0.22909199653E-01 -0.34448877675E-01  0.19781734968E-01  0.45859947243E-01  0.51100000000E-03 0.  1.
         11    1    4    4    0    0 -0.39212619374E-01 -0.69227863067E-01  0.99015419350E-02  0.80177479361E-01  0.51100000000E-03 0. -1.
</event>
<event>
 8    1  0.1042301E+005  0.1043930E+01  0.7957747E-01            NaN
         13   -1    0    0    0    0  0.00000000000E+00  0.00000000000E+00  0.74505805969E-08  0.10566000000E+00  0.10566000000E+00 0. -1.
     999900   -1    0    0    0    0 -0.00000000000E+00 -0.00000000000E+00 -0.74505805969E-08  0.93827000000E+00  0.93827000000E+00 0.  1.
     999902    2    1    2    0    0 -0.18450187233E-01  0.57921311322E-03 -0.14555485564E-01  0.10204224043E+01  0.10201515947E+01 0.  0.
     999903    2    3    3    0    0 -0.49897279772E-01  0.41532810623E-01 -0.11461927299E+00  0.13324774372E+00  0.20066653384E-01 0.  0.
         14    1    1    2    0    0  0.18450187233E-01 -0.57921311322E-03  0.14555485564E-01  0.23507595725E-01  0.00000000000E+00 0. -1.
     999901    1    3    3    0    0  0.31447092539E-01 -0.40953597510E-01  0.10006378743E+00  0.88717466056E+00  0.88000000000E+00 0. -1.
        -11    1    4    4    0    0 -0.21659956926E-01  0.13548064443E-01 -0.63776314486E-01  0.68705044899E-01  0.51100000000E-03 0. -1.
         11    1    4    4    0    0 -0.28237322846E-01  0.27984746181E-01 -0.50842958507E-01  0.64542698820E-01  0.51100000000E-03 0.  1.
</event>
<event>
 8    1  0.1042301E+005  0.1043930E+01  0.7957747E-01            NaN
         13   -1    0    0    0    0  0.00000000000E+00  0.00000000000E+00  0.74505805969E-08  0.10566000000E+00  0.10566000000E+00 0.  1.
     999900   -1    0    0    0    0 -0.00000000000E+00 -0.00000000000E+00 -0.74505805969E-08  0.93827000000E+00  0.93827000000E+00 0.  1.
     999902    2    1    2    0    0  0.16482422744E-01 -0.19541676419E-01  0.13964378103E-01  0.10148000973E+01  0.10143819232E+01 0.  0.
     999903    2    3    3    0    0 -0.36972427048E-01  0.11230134266E+00  0.28653450594E-01  0.12325325527E+00  0.19793756077E-01 0.  0.
         14    1    1    2    0    0 -0.16482422744E-01  0.19541676419E-01 -0.13964378103E-01  0.29129902722E-01  0.00000000000E+00 0. -1.
     999901    1    3    3    0    0  0.53454849792E-01 -0.13184301907E+00 -0.14689072492E-01  0.89154684201E+00  0.88000000000E+00 0. -1.
        -11    1    4    4    0    0 -0.67436018799E-02  0.32815202069E-01 -0.29035123570E-04  0.33504859606E-01  0.51100000000E-03 0.  1.
         11    1    4    4    0    0 -0.30228825168E-01  0.79486140586E-01  0.28682485718E-01  0.89748395664E-01  0.51100000000E-03 0. -1.
</event>
<event>
 8    1  0.1042301E+005  0.1043930E+01  0.7957747E-01            NaN
         13   -1    0    0    0    0  0.00000000000E+00  0.00000000000E+00  0.74505805969E-08  0.10566000000E+00  0.10566000000E+00 0. -1.
     999900   -1    0    0    0    0 -0.00000000000E+00 -0.00000000000E+00 -0.74505805969E-08  0.93827000000E+00  0.93827000000E+00 0. -1.
     999902    2    1    2    0    0 -0.13548983659E-01 -0.19083126318E-01 -0.19588148060E-02  0.10204443102E+01  0.10201740110E+01 0.  0.
     999903    2    3    3    0    0  0.10640997316E+00 -0.27904749174E-01 -0.65353219657E-01  0.13000238461E+00  0.22974317586E-01 0.  0.
         14    1    1    2    0    0  0.13548983659E-01  0.19083126318E-01  0.19588148060E-02  0.23485689764E-01  0.00000000000E+00 0.  1.
     999901    1    3    3    0    0 -0.11995895682E+00  0.88216228564E-02  0.63394404851E-01  0.89044192563E+00  0.88000000000E+00 0.  1.
        -11    1    4    4    0    0  0.13192179156E-01 -0.45753147221E-02 -0.33039196645E-03  0.13976314805E-01  0.51100000000E-03 0. -1.
         11    1    4    4    0    0  0.93217794008E-01 -0.23329434452E-01 -0.65022827691E-01  0.11602606980E+00  0.51100000000E-03 0.  1.
</event>
<event>
 8    1  0.1042301E+005  0.1043930E+01  0.7957747E-01            NaN
         13   -1    0    0    0    0  0.00000000000E+00  0.00000000000E+00  0.74505805969E-08  0.10566000000E+00  0.10566000000E+00 0. -1.
     999900   -1    0    0    0    0 -0.00000000000E+00 -0.00000000000E+00 -0.74505805969E-08  0.93827000000E+00  0.93827000000E+00 0.  1.
     999902    2    1    2    0    0  0.15154246757E-01  0.35571644442E-02 -0.16910391965E-01  0.10209459627E+01  0.10206872160E+01 0.  0.
     999903    2    3    3    0    0 -0.68077949658E-01 -0.19603050541E-01 -0.10914349893E+00  0.13191787536E+00  0.21705659655E-01 0.  0.
         14    1    1    2    0    0 -0.15154246757E-01 -0.35571644442E-02  0.16910391965E-01  0.22984037288E-01  0.00000000000E+00 0. -1.
     999901    1    3    3    0    0  0.83232196415E-01  0.23160214985E-01  0.92233106964E-01  0.88902808735E+00  0.88000000000E+00 0. -1.
        -11    1    4    4    0    0 -0.39992618633E-01 -0.44744574946E-02 -0.75469458075E-01  0.85529705588E-01  0.51100000000E-03 0.  1.
         11    1    4    4    0    0 -0.28085331025E-01 -0.15128593046E-01 -0.33674040855E-01  0.46388169773E-01  0.51100000000E-03 0. -1.
</event>
<event>
 8    1  0.1042301E+005  0.1043930E+01  0.7957747E-01            NaN
         13   -1    0    0    0    0  0.00000000000E+00  0.00000000000E+00  0.74505805969E-08  0.10566000000E+00  0.10566000000E+00 0. -1.
     999900   -1    0    0    0    0 -0.00000000000E+00 -0.00000000000E+00 -0.74505805969E-08  0.93827000000E+00  0.93827000000E+00 0. -1.
     999902    2    1    2    0    0  0.15925924422E-01 -0.18608586916E-01 -0.17921272505E-02  0.10193713702E+01  0.10190754948E+01 0.  0.
     999903    2    3    3    0    0 -0.27561558044E-01  0.36444077310E-01  0.11834730197E+00  0.12844183351E+00  0.20085080489E-01 0.  0.
         14    1    1    2    0    0 -0.15925924422E-01  0.18608586916E-01  0.17921272505E-02  0.24558629762E-01  0.00000000000E+00 0. -1.
     999901    1    3    3    0    0  0.43487482466E-01 -0.55052664226E-01 -0.12013942922E+00  0.89092953673E+00  0.88000000000E+00 0. -1.
        -11    1    4    4    0    0 -0.21693340631E-02  0.12136811723E-01  0.50995934886E-01  0.52467653893E-01  0.51100000000E-03 0. -1.
         11    1    4    4    0    0 -0.25392223981E-01  0.24307265587E-01  0.67351367082E-01  0.75974179613E-01  0.51100000000E-03 0.  1.
</event>
<event>
 8    1  0.1042301E+005  0.1043930E+01  0.7957747E-01            NaN
         13   -1    0    0    0    0  0.00000000000E+00  0.00000000000E+00  0.74505805969E-08  0.10566000000E+00  0.10566000000E+00 0. -1.
     999900   -1    0    0    0    0 -0.00000000000E+00 -0.00000000000E+00 -0.74505805969E-08  0.93827000000E+00  0.93827000000E+00 0.  1.
     999902    2    1    2    0    0  0.22935675869E-02 -0.32034662551E-02  0.23650550990E-01  0.10199535280E+01  0.10196716766E+01 0.  0.
     999903    2    3    3    0    0  0.55425921987E-01  0.25542251852E-01 -0.11041855953E+00  0.12775181884E+00  0.20095508748E-01 0.  0.
         14    1    1    2    0    0 -0.22935675869E-02  0.32034662551E-02 -0.23650550990E-01  0.23976472018E-01  0.00000000000E+00 0.  1.
     999901    1    3    3    0    0 -0.53132354400E-01 -0.28745718107E-01  0.13406911052E+00  0.89220170914E+00  0.88000000000E+00 0. -1.
        -11    1    4    4    0    0  0.35033411579E-01  0.25774457576E-01 -0.81203513419E-01  0.92119131036E-01  0.51100000000E-03 0. -1.
         11    1    4    4    0    0  0.20392510409E-01 -0.23220572469E-03 -0.29215046109E-01  0.35632687808E-01  0.51100000000E-03 0.  1.
</event>
<event>
 8    1  0.1042301E+005  0.1043930E+01  0.7957747E-01            NaN
         13   -1    0    0    0    0  0.00000000000E+00  0.00000000000E+00  0.74505805969E-08  0.10566000000E+00  0.10566000000E+00 0. -1.
     999900   -1    0    0    0    0 -0.00000000000E+00 -0.00000000000E+00 -0.74505805969E-08  0.93827000000E+00  0.93827000000E+00 0. -1.
     999902    2    1    2    0    0 -0.10403485210E-01 -0.23347517700E-02 -0.16067269894E-01  0.10246468277E+01  0.10244653634E+01 0.  0.
     999903    2    3    3    0    0  0.12280369654E+00  0.46698040993E-01  0.58237356629E-02  0.13300363444E+00  0.19864439606E-01 0.  0.
         14    1    1    2    0    0  0.10403485210E-01  0.23347517700E-02  0.16067269894E-01  0.19283172254E-01  0.00000000000E+00 0. -1.
     999901    1    3    3    0    0 -0.13320718175E+00 -0.49032792762E-01 -0.21891005557E-01  0.89164319330E+00  0.88000000000E+00 0. -1.
        -11    1    4    4    0    0  0.87300968760E-01  0.25593730454E-01  0.98234137642E-02  0.91505512205E-01  0.51100000000E-03 0. -1.
         11    1    4    4    0    0  0.35502727784E-01  0.21104310539E-01 -0.39996781013E-02  0.41498122239E-01  0.51100000000E-03 0.  1.
</event>
<event>
 8    1  0.1042301E+005  0.1043930E+01  0.7957747E-01            NaN
         13   -1    0    0    0    0  0.00000000000E+00  0.00000000000E+00  0.74505805969E-08  0.10566000000E+00  0.10566000000E+00 0. -1.
     999900   -1    0    0    0    0 -0.00000000000E+00 -0.00000000000E+00 -0.74505805969E-08  0.93827000000E+00  0.93827000000E+00 0. -1.
     999902    2    1    2    0    0  0.58426369725E-03 -0.25103514001E-01 -0.14016023184E-03  0.10188192966E+01  0.10185097995E+01 0.  0.
     999903    2    3    3    0    0  0.54553698838E-01 -0.67792214404E-01 -0.95391913681E-01  0.13100855012E+00  0.22175044931E-01 0.  0.
         14    1    1    2    0    0 -0.58426369725E-03  0.25103514001E-01  0.14016023184E-03  0.25110703378E-01  0.00000000000E+00 0.  1.
     999901    1    3    3    0    0 -0.53969435141E-01  0.42688700404E-01  0.95251753449E-01  0.88781074650E+00  0.88000000000E+00 0.  1.
        -11    1    4    4    0    0  0.31059136721E-01 -0.21539159848E-01 -0.43523958958E-01  0.57647215936E-01  0.51100000000E-03 0.  1.
         11    1    4    4    0    0  0.23494562117E-01 -0.46253054557E-01 -0.51867954723E-01  0.73361334182E-01  0.51100000000E-03 0. -1.
</event>
<event>
 8    1  0.1042301E+005  0.1043930E+01  0.7957747E-01            NaN
         13   -1    0    0    0    0  0.00000000000E+00  0.00000000000E+00  0.74505805969E-08  0.10566000000E+00  0.10566000000E+00 0.  1.
     999900   -1    0    0    0    0 -0.00000000000E+00 -0.00000000000E+00 -0.74505805969E-08  0.93827000000E+00  0.93827000000E+00 0.  1.
     999902    2    1    2    0    0 -0.62439790617E-02  0.21880085505E-01  0.60697985205E-02  0.10203807352E+01  0.10201089535E+01 0.  0.
     999903    2    3    3    0    0  0.86705323849E-01 -0.89139667755E-01 -0.23419741096E-01  0.12806095430E+00  0.19683246481E-01 0.  0.
         14    1    1    2    0    0  0.62439790617E-02 -0.21880085505E-01 -0.60697985205E-02  0.23549264751E-01  0.00000000000E+00 0. -1.
     999901    1    3    3    0    0 -0.92949302911E-01  0.11101975326E+00  0.29489539617E-01  0.89231978095E+00  0.88000000000E+00 0.  1.
        -11    1    4    4    0    0  0.32923173416E-01 -0.47592603011E-01 -0.12834188889E-01  0.59278737627E-01  0.51100000000E-03 0.  1.
         11    1    4    4    0    0  0.53782150433E-01 -0.41547064744E-01 -0.10585552207E-01  0.68782216674E-01  0.51100000000E-03 0. -1.
</event>
<event>
 7    1  0.1042301E+005  0.1043930E+01  0.7957747E-01            NaN
         13   -1    0    0    0    0  0.00000000000E+00  0.00000000000E+00  0.74505805969E-08  0.10566000000E+00  0.10566000000E+00 0. -1.
     999900   -1    0    0    0    0 -0.00000000000E+00 -0.00000000000E+00 -0.74505805969E-08  0.93827000000E+00  0.93827000000E+00 0. -1.
     999903    2    1    2    0    0  0.54127589377E-02  0.43121465489E-01  0.60850701089E-02  0.47360449396E-01  0.17810820967E-01 0.  0.
         14    1    1    2    0    0 -0.10211751692E-01  0.10246502468E+00  0.16624858183E-01  0.10430602602E+00  0.00000000000E+00 0.  1.
     999901    1    1    2    0    0  0.47989927547E-02 -0.14558649017E+00 -0.22709928291E-01  0.89226352458E+00  0.88000000000E+00 0.  1.
        -11    1    3    3    0    0  0.11695400348E-01  0.28688342255E-01  0.62552003246E-02  0.31609998778E-01  0.51100000000E-03 0. -1.
         11    1    3    3    0    0 -0.62826414102E-02  0.14433123234E-01 -0.17013021568E-03  0.15750450618E-01  0.51100000000E-03 0.  1.
</event>
<event>
 8    1  0.1042301E+005  0.1043930E+01  0.7957747E-01            NaN
         13   -1    0    0    0    0  0.00000000000E+00  0.00000000000E+00  0.74505805969E-08  0.10566000000E+00  0.10566000000E+00 0. -1.
     999900   -1    0    0    0    0 -0.00000000000E+00 -0.00000000000E+00 -0.74505805969E-08  0.93827000000E+00  0.93827000000E+00 0.  1.
     999902    2    1    2    0    0  0.48575371616E-03  0.59204283124E-02  0.22877764639E-01  0.10202935971E+01  0.10200197766E+01 0.  0.
     999903    2    3    3    0    0 -0.59564641740E-01 -0.10836585229E+00 -0.31717655324E-01  0.12919985128E+00  0.19886865613E-01 0.  0.
         14    1    1    2    0    0 -0.48575371616E-03 -0.59204283124E-02 -0.22877764639E-01  0.23636402919E-01  0.00000000000E+00 0.  1.
     999901    1    3    3    0    0  0.60050395456E-01  0.11428628060E+00  0.54595419963E-01  0.89109374580E+00  0.88000000000E+00 0. -1.
        -11    1    4    4    0    0 -0.46584706401E-01 -0.66182817848E-01 -0.23753878811E-01  0.84349322039E-01  0.51100000000E-03 0.  1.
         11    1    4    4    0    0 -0.12979935339E-01 -0.42183034437E-01 -0.79637765131E-02  0.44850529240E-01  0.51100000000E-03 0. -1.
</event>
<event>
 8    1  0.1042301E+005  0.1043930E+01  0.7957747E-01            NaN
         13   -1    0    0    0    0  0.00000000000E+00  0.00000000000E+00  0.74505805969E-08  0.10566000000E+00  0.10566000000E+00 0.  1.
     999900   -1    0    0    0    0 -0.00000000000E+00 -0.00000000000E+00 -0.74505805969E-08  0.93827000000E+00  0.93827000000E+00 0. -1.
     999902    2    1    2    0    0  0.34110108785E-02  0.57409697006E-02  0.21274228208E-01  0.10216323204E+01  0.10213889620E+01 0.  0.
     999903    2    3    3    0    0 -0.11514015055E+00 -0.19057347800E-01 -0.53668150674E-01  0.13018086658E+00  0.21127017122E-01 0.  0.
         14    1    1    2    0    0 -0.34110108785E-02 -0.57409697006E-02 -0.21274228208E-01  0.22297679569E-01  0.00000000000E+00 0. -1.
     999901    1    3    3    0    0  0.11855116143E+00  0.24798317501E-01  0.74942378882E-01  0.89145145385E+00  0.88000000000E+00 0. -1.
        -11    1    4    4    0    0 -0.73582062329E-01 -0.92992921675E-02 -0.23131956023E-01  0.77692633124E-01  0.51100000000E-03 0. -1.
         11    1    4    4    0    0 -0.41558088220E-01 -0.97580556326E-02 -0.30536194651E-01  0.52488233453E-01  0.51100000000E-03 0.  1.
</event>
<event>
 8    1  0.1042301E+005  0.1043930E+01  0.7957747E-01            NaN
         13   -1    0    0    0    0  0.00000000000E+00  0.00000000000E+00  0.74505805969E-08  0.10566000000E+00  0.10566000000E+00 0. -1.
     999900   -1    0    0    0    0 -0.00000000000E+00 -0.00000000000E+00 -0.74505805969E-08  0.93827000000E+00  0.93827000000E+00 0.  1.
     999902    2    1    2    0    0  0.14811810904E-02 -0.23123463688E-01  0.31993573921E-02  0.10205393104E+01  0.10202712187E+01 0.  0.
     999903    2    3    3    0    0 -0.68392984171E-01  0.20861629729E-01  0.10732504673E+00  0.13056220591E+00  0.20371943347E-01 0.  0.
         14    1    1    2    0    0 -0.14811810904E-02  0.23123463688E-01 -0.31993573921E-02  0.23390689559E-01  0.00000000000E+00 0.  1.
     999901    1    3    3    0    0  0.69874165261E-01 -0.43985093417E-01 -0.10412568934E+00  0.88997710453E+00  0.88000000000E+00 0.  1.
        -11    1    4    4    0    0 -0.23902602212E-01  0.17675887378E-01  0.43946802122E-01  0.53059908828E-01  0.51100000000E-03 0. -1.
         11    1    4    4    0    0 -0.44490381959E-01  0.31857423514E-02  0.63378244613E-01  0.77502297078E-01  0.51100000000E-03 0.  1.
</event>
<event>
 8    1  0.1042301E+005  0.1043930E+01  0.7957747E-01            NaN
         13   -1    0    0    0    0  0.00000000000E+00  0.00000000000E+00  0.74505805969E-08  0.10566000000E+00  0.10566000000E+00 0. -1.
     999900   -1    0    0    0    0 -0.00000000000E+00 -0.00000000000E+00 -0.74505805969E-08  0.93827000000E+00  0.93827000000E+00 0.  1.
     999902    2    1    2    0    0 -0.12736955557E-01 -0.74001178826E-02  0.88547192668E-02  0.10267428584E+01  0.10265989965E+01 0.  0.
     999903    2    3    3    0    0  0.17203736142E-01  0.12410885374E+00  0.47795213209E-01  0.13561580987E+00  0.20206171486E-01 0.  0.
         14    1    1    2    0    0  0.12736955557E-01  0.74001178826E-02 -0.88547192668E-02  0.17187141555E-01  0.00000000000E+00 0.  1.
     999901    1    3    3    0    0 -0.29940691699E-01 -0.13150897162E+00 -0.38940493942E-01  0.89112704858E+00  0.88000000000E+00 0.  1.
        -11    1    4    4    0    0 -0.28207274898E-03  0.64613151715E-01  0.28922973784E-01  0.70793632998E-01  0.51100000000E-03 0. -1.
         11    1    4    4    0    0  0.17485808891E-01  0.59495702027E-01  0.18872239425E-01  0.64822176870E-01  0.51100000000E-03 0.  1.
</event>
<event>
 8    1  0.1042301E+005  0.1043930E+01  0.7957747E-01            NaN
         13   -1    0    0    0    0  0.00000000000E+00  0.00000000000E+00  0.74505805969E-08  0.10566000000E+00  0.10566000000E+00 0.  1.
     999900   -1    0    0    0    0 -0.00000000000E+00 -0.00000000000E+00 -0.74505805969E-08  0.93827000000E+00  0.93827000000E+00 0.  1.
     999902    2    1    2    0    0  0.10272559326E-01  0.18135156538E-01 -0.22653492972E-02  0.10229647625E+01  0.10227499030E+01 0.  0.
     999903    2    3    3    0    0 -0.59184323391E-01 -0.19010571098E-01 -0.11447347837E+00  0.13234995915E+00  0.23412571189E-01 0.  0.
         14    1    1    2    0    0 -0.10272559326E-01 -0.18135156538E-01  0.22653492972E-02  0.20965237542E-01  0.00000000000E+00 0. -1.
     999901    1    3    3    0    0  0.69456882716E-01  0.37145727635E-01  0.11220812907E+00  0.89061480331E+00  0.88000000000E+00 0. -1.
        -11    1    4    4    0    0 -0.41723433923E-01 -0.17315877064E-01 -0.59916247961E-01  0.75039339200E-01  0.51100000000E-03 0. -1.
         11    1    4    4    0    0 -0.17460889468E-01 -0.16946940341E-02 -0.54557230405E-01  0.57310619953E-01  0.51100000000E-03 0.  1.
</event>
<event>
 8    1  0.1042301E+005  0.1043930E+01  0.7957747E-01            NaN
         13   -1    0    0    0    0  0.00000000000E+00  0.00000000000E+00  0.74505805969E-08  0.10566000000E+00  0.10566000000E+00 0. -1.
     999900   -1    0    0    0    0 -0.00000000000E+00 -0.00000000000E+00 -0.74505805969E-08  0.93827000000E+00  0.93827000000E+00 0. -1.
     999902    2    1    2    0    0  0.12043907794E-01  0.20078369491E-01  0.23515190417E-02  0.10203986108E+01  0.10201272463E+01 0.  0.
     999903    2    3    3    0    0  0.96587111469E-01 -0.63828997008E-01 -0.57168479251E-01  0.13038140329E+00  0.18107024721E-01 0.  0.
         14    1    1    2    0    0 -0.12043907794E-01 -0.20078369491E-01 -0.23515190417E-02  0.23531389211E-01  0.00000000000E+00 0. -1.
     999901    1    3    3    0    0 -0.84543203675E-01  0.83907366500E-01  0.59519998293E-01  0.89001720750E+00  0.88000000000E+00 0. -1.
        -11    1    4    4    0    0  0.23996144195E-01 -0.24408320873E-01 -0.21350523046E-01  0.40344603350E-01  0.51100000000E-03 0.  1.
         11    1    4    4    0    0  0.72590967273E-01 -0.39420676135E-01 -0.35817956205E-01  0.90036799945E-01  0.51100000000E-03 0. -1.
</event>
<event>
 8    1  0.1042301E+005  0.1043930E+01  0.7957747E-01            NaN
         13   -1    0    0    0    0  0.00000000000E+00  0.00000000000E+00  0.74505805969E-08  0.10566000000E+00  0.10566000000E+00 0.  1.
     999900   -1    0    0    0    0 -0.00000000000E+00 -0.00000000000E+00 -0.74505805969E-08  0.93827000000E+00  0.93827000000E+00 0.  1.
     999902    2    1    2    0    0  0.29957183482E-01 -0.27866975545E-02 -0.11073280805E-01  0.10118704293E+01  0.10113624225E+01 0.  0.
     999903    2    3    3    0    0  0.61082492122E-01  0.26691930435E-01  0.10199252844E+00  0.12360152207E+00  0.20768495495E-01 0.  0.
         14    1    1    2    0    0 -0.29957183482E-01  0.27866975545E-02  0.11073280805E-01  0.32059570696E-01  0.00000000000E+00 0.  1.
     999901    1    3    3    0    0 -0.31125308640E-01 -0.29478627990E-01 -0.11306580924E+00  0.88826890724E+00  0.88000000000E+00 0.  1.
        -11    1    4    4    0    0  0.61753926222E-01  0.22898412586E-01  0.94951697400E-01  0.11555938154E+00  0.51100000000E-03 0.  1.
         11    1    4    4    0    0 -0.67143410002E-03  0.37935178498E-02  0.70408310402E-02  0.80421405213E-02  0.51100000000E-03 0. -1.
</event>
<event>
 8    1  0.1042301E+005  0.1043930E+01  0.7957747E-01            NaN
         13   -1    0    0    0    0  0.00000000000E+00  0.00000000000E+00  0.74505805969E-08  0.10566000000E+00  0.10566000000E+00 0.  1.
     999900   -1    0    0    0    0 -0.00000000000E+00 -0.00000000000E+00 -0.74505805969E-08  0.93827000000E+00  0.93827000000E+00 0. -1.
     999902    2    1    2    0    0  0.23242189912E-01 -0.57909883843E-02 -0.45628627872E-02  0.10195465086E+01  0.10192548889E+01 0.  0.
     999903    2    3    3    0    0  0.37153576774E-01  0.11554234149E+00  0.41612751670E-01  0.12991316217E+00  0.20381061308E-01 0.  0.
         14    1    1    2    0    0 -0.23242189912E-01  0.57909883843E-02  0.45628627872E-02  0.24383491448E-01  0.00000000000E+00 0.  1.
     999901    1    3    3    0    0 -0.13911386861E-01 -0.12133332987E+00 -0.46175614457E-01  0.88963334638E+00  0.88000000000E+00 0. -1.
        -11    1    4    4    0    0  0.51176907298E-02  0.48388003043E-01  0.16784253121E-01  0.51473895041E-01  0.51100000000E-03 0. -1.
         11    1    4    4    0    0  0.32035886044E-01  0.67154338446E-01  0.24828498549E-01  0.78439267130E-01  0.51100000000E-03 0.  1.
</event>
<event>
 8    1  0.1042301E+005  0.1043930E+01  0.7957747E-01            NaN
         13   -1    0    0    0    0  0.00000000000E+00  0.00000000000E+00  0.74505805969E-08  0.10566000000E+00  0.10566000000E+00 0.  1.
     999900   -1    0    0    0    0 -0.00000000000E+00 -0.00000000000E+00 -0.74505805969E-08  0.93827000000E+00  0.93827000000E+00 0. -1.
     999902    2    1    2    0    0 -0.18247570150E-01 -0.80033873091E-02  0.90412563070E-02  0.10220491330E+01  0.10218148844E+01 0.  0.
     999903    2    3    3    0    0 -0.32320390947E-01 -0.12547228006E+00  0.26971930239E-01  0.13395088725E+00  0.20674971357E-01 0.  0.
         14    1    1    2    0    0  0.18247570150E-01  0.80033873091E-02 -0.90412563070E-02  0.21880866994E-01  0.00000000000E+00 0. -1.
     999901    1    3    3    0    0  0.14072820796E-01  0.11746889275E+00 -0.17930673933E-01  0.88809824576E+00  0.88000000000E+00 0. -1.
        -11    1    4    4    0    0 -0.20700731763E-01 -0.10205201323E+00  0.15055511466E-01  0.10521436806E+00  0.51100000000E-03 0. -1.
         11    1    4    4    0    0 -0.11619659184E-01 -0.23420266831E-01  0.11916418774E-01  0.28736519193E-01  0.51100000000E-03 0.  1.
</event>
<event>
 8    1  0.1042301E+005  0.1043930E+01  0.7957747E-01            NaN
         13   -1    0    0    0    0  0.00000000000E+00  0.00000000000E+00  0.74505805969E-08  0.10566000000E+00  0.10566000000E+00 0.  1.
     999900   -1    0    0    0    0 -0.00000000000E+00 -0.00000000000E+00 -0.74505805969E-08  0.93827000000E+00  0.93827000000E+00 0. -1.
     999902    2    1    2    0    0 -0.89508917794E-02  0.21954514989E-01 -0.17216621912E-02  0.10201585189E+01  0.10198815227E+01 0.  0.
     999903    2    3    3    0    0  0.89197762904E-01  0.91579806948E-01 -0.23806042137E-01  0.13169436121E+00  0.20822468263E-01 0.  0.
         14    1    1    2    0    0  0.89508917794E-02 -0.21954514989E-01  0.17216621912E-02  0.23771481080E-01  0.00000000000E+00 0.  1.
     999901    1    3    3    0    0 -0.98148654683E-01 -0.69625291959E-01  0.22084379946E-01  0.88846415771E+00  0.88000000000E+00 0. -1.
        -11    1    4    4    0    0  0.72099311478E-01  0.69247346248E-01 -0.26537023488E-01  0.10343104183E+00  0.51100000000E-03 0. -1.
         11    1    4    4    0    0  0.17098451426E-01  0.22332460701E-01  0.27309813507E-02  0.28263319378E-01  0.51100000000E-03 0.  1.
</event>
<event>
 8    1  0.1042301E+005  0.1043930E+01  0.7957747E-01            NaN
         13   -1    0    0    0    0  0.00000000000E+00  0.00000000000E+00  0.74505805969E-08  0.10566000000E+00  0.10566000000E+00 0. -1.
     999900   -1    0    0    0    0 -0.00000000000E+00 -0.00000000000E+00 -0.74505805969E-08  0.93827000000E+00  0.93827000000E+00 0.  1.
     999902    2    1    2    0    0  0.10322883237E-01  0.20790458223E-01 -0.46413701600E-02  0.10202583421E+01  0.10199836946E+01 0.  0.
     999903    2    3    3    0    0  0.53329478784E-01  0.15211063066E-01  0.11688995312E+00  0.13084811084E+00  0.19559070089E-01 0.  0.
         14    1    1    2    0    0 -0.10322883237E-01 -0.20790458223E-01  0.46413701600E-02  0.23671657914E-01  0.00000000000E+00 0.  1.
     999901    1    3    3    0    0 -0.43006595547E-01  0.55793951568E-02 -0.12153132328E+00  0.88941023125E+00  0.88000000000E+00 0.  1.
        -11    1    4    4    0    0  0.49554980532E-01  0.14118081448E-01  0.90329886524E-01  0.10399406637E+00  0.51100000000E-03 0. -1.
         11    1    4    4    0    0  0.37744982520E-02  0.10929816182E-02  0.26560066595E-01  0.26854044470E-01  0.51100000000E-03 0.  1.
</event>
<event>
 8    1  0.1042301E+005  0.1043930E+01  0.7957747E-01            NaN
         13   -1    0    0    0    0  0.00000000000E+00  0.00000000000E+00  0.74505805969E-08  0.10566000000E+00  0.10566000000E+00 0.  1.
     999900   -1    0    0    0    0 -0.00000000000E+00 -0.00000000000E+00 -0.74505805969E-08  0.93827000000E+00  0.93827000000E+00 0. -1.
     999902    2    1    2    0    0 -0.22156066325E-01  0.62090431983E-02 -0.26623225189E-02  0.10207668514E+01  0.10205040095E+01 0.  0.
     999903    2    3    3    0    0 -0.33480723583E-01  0.24247360125E-01 -0.12393946270E+00  0.13219396554E+00  0.20133573570E-01 0.  0.
         14    1    1    2    0    0  0.22156066325E-01 -0.62090431983E-02  0.26623225189E-02  0.23163148612E-01  0.00000000000E+00 0. -1.
     999901    1    3    3    0    0  0.11324657259E-01 -0.18038316927E-01  0.12127714018E+00  0.88857288585E+00  0.88000000000E+00 0.  1.
        -11    1    4    4    0    0 -0.27436852216E-01  0.25473123401E-01 -0.86635626312E-01  0.94380367359E-01  0.51100000000E-03 0. -1.
         11    1    4    4    0    0 -0.60438713671E-02 -0.12257632762E-02 -0.37303836390E-01  0.37813598178E-01  0.51100000000E-03 0.  1.
</event>
<event>
 8    1  0.1042301E+005  0.1043930E+01  0.7957747E-01            NaN
         13   -1    0    0    0    0  0.00000000000E+00  0.00000000000E+00  0.74505805969E-08  0.10566000000E+00  0.10566000000E+00 0. -1.
     999900   -1    0    0    0    0 -0.00000000000E+00 -0.00000000000E+00 -0.74505805969E-08  0.93827000000E+00  0.93827000000E+00 0. -1.
     999902    2    1    2    0    0 -0.39234422204E-02 -0.21202229827E-01  0.88694272399E-02  0.10206148828E+01  0.10203485406E+01 0.  0.
     999903    2    3    3    0    0  0.14696965426E-02 -0.10640920551E+00  0.78531464753E-01  0.13374278715E+00  0.19871163366E-01 0.  0.
         14    1    1    2    0    0  0.39234422204E-02  0.21202229827E-01 -0.88694272399E-02  0.23315117158E-01  0.00000000000E+00 0.  1.
     999901    1    3    3    0    0 -0.53931387630E-02  0.85206975680E-01 -0.69662037513E-01  0.88687209569E+00  0.88000000000E+00 0. -1.
        -11    1    4    4    0    0 -0.21693888805E-02 -0.29127918338E-01  0.11569216349E-01  0.31420530912E-01  0.51100000000E-03 0.  1.
         11    1    4    4    0    0  0.36390854231E-02 -0.77281287168E-01  0.66962248403E-01  0.10232225624E+00  0.51100000000E-03 0. -1.
</event>
<event>
 8    1  0.1042301E+005  0.1043930E+01  0.7957747E-01            NaN
         13   -1    0    0    0    0  0.00000000000E+00  0.00000000000E+00  0.74505805969E-08  0.10566000000E+00  0.10566000000E+00 0.  1.
     999900   -1    0    0    0    0 -0.00000000000E+00 -0.00000000000E+00 -0.74505805969E-08  0.93827000000E+00  0.93827000000E+00 0.  1.
     999902    2    1    2    0    0  0.12821952159E-01 -0.17697048915E-01  0.98230422245E-02  0.10199700301E+01  0.10196885712E+01 0.  0.
     999903    2    3    3    0    0 -0.12355262159E-01  0.13553219155E-01  0.12751927639E+00  0.13122773064E+00  0.24964157983E-01 0.  0.
         14    1    1    2    0    0 -0.12821952159E-01  0.17697048915E-01 -0.98230422245E-02  0.23959969866E-01  0.00000000000E+00 0. -1.
     999901    1    3    3    0    0  0.25177214318E-01 -0.31250268070E-01 -0.11769623417E+00  0.88874229950E+00  0.88000000000E+00 0.  1.
        -11    1    4    4    0    0 -0.23808016572E-03 -0.69771215580E-02  0.34308950589E-01  0.35015741017E-01  0.51100000000E-03 0.  1.
         11    1    4    4    0    0 -0.12117181993E-01  0.20530340713E-01  0.93210325805E-01  0.96211989621E-01  0.51100000000E-03 0. -1.
</event>
<event>
 8    1  0.1042301E+005  0.1043930E+01  0.7957747E-01            NaN
         13   -1    0    0    0    0  0.00000000000E+00  0.00000000000E+00  0.74505805969E-08  0.10566000000E+00  0.10566000000E+00 0. -1.
     999900   -1    0    0    0    0 -0.00000000000E+00 -0.00000000000E+00 -0.74505805969E-08  0.93827000000E+00  0.93827000000E+00 0.  1.
     999902    2    1    2    0    0  0.76938239511E-02 -0.22305424436E-01  0.20196616342E-02  0.10202486588E+01  0.10199737839E+01 0.  0.
     999903    2    3    3    0    0 -0.18523673711E-01  0.98847027297E-01  0.77316040056E-01  0.12837713314E+00  0.19724527111E-01 0.  0.
         14    1    1    2    0    0 -0.76938239511E-02  0.22305424436E-01 -0.20196616342E-02  0.23681341165E-01  0.00000000000E+00 0. -1.
     999901    1    3    3    0    0  0.26217497662E-01 -0.12115245173E+00 -0.75296378421E-01  0.89187152570E+00  0.88000000000E+00 0. -1.
        -11    1    4    4    0    0 -0.16688094001E-01  0.65994343117E-01  0.41442928851E-01  0.79696444573E-01  0.51100000000E-03 0. -1.
         11    1    4    4    0    0 -0.18355797100E-02  0.32852684180E-01  0.35873111205E-01  0.48680688565E-01  0.51100000000E-03 0.  1.
</event>
<event>
 8    1  0.1042301E+005  0.1043930E+01  0.7957747E-01            NaN
         13   -1    0    0    0    0  0.00000000000E+00  0.00000000000E+00  0.74505805969E-08  0.10566000000E+00  0.10566000000E+00 0.  1.
     999900   -1    0    0    0    0 -0.00000000000E+00 -0.00000000000E+00 -0.74505805969E-08  0.93827000000E+00  0.93827000000E+00 0. -1.
     999902    2    1    2    0    0  0.13739009357E-01  0.19174482437E-01 -0.17862364716E-02  0.10202738846E+01  0.10199996019E+01 0.  0.
     999903    2    3    3    0    0  0.39383759881E-01 -0.57525594304E-01 -0.10679003903E+00  0.13034897005E+00  0.26953052017E-01 0.  0.
         14    1    1    2    0    0 -0.13739009357E-01 -0.19174482437E-01  0.17862364716E-02  0.23656115395E-01  0.00000000000E+00 0.  1.
     999901    1    3    3    0    0 -0.25644750524E-01  0.76700076741E-01  0.10500380256E+00  0.88992491456E+00  0.88000000000E+00 0.  1.
        -11    1    4    4    0    0 -0.27101297472E-02 -0.12493196782E-02 -0.11828113862E-01  0.12209463602E-01  0.51100000000E-03 0. -1.
         11    1    4    4    0    0  0.42093889628E-01 -0.56276274626E-01 -0.94961925170E-01  0.11813950644E+00  0.51100000000E-03 0.  1.
</event>
<event>
 8    1  0.1042301E+005  0.1043930E+01  0.7957747E-01            NaN
         13   -1    0    0    0    0  0.00000000000E+00  0.00000000000E+00  0.74505805969E-08  0.10566000000E+00  0.10566000000E+00 0.  1.
     999900   -1    0    0    0    0 -0.00000000000E+00 -0.00000000000E+00 -0.74505805969E-08  0.93827000000E+00  0.93827000000E+00 0.  1.
     999902    2    1    2    0    0  0.21541803399E-01 -0.86690639098E-02  0.67838190411E-02  0.10197386345E+01  0.10194516470E+01 0.  0.
     999903    2    3    3    0    0 -0.58825489594E-01 -0.10354348128E+00 -0.46922442775E-01  0.12937667475E+00  0.18839256660E-01 0.  0.
         14    1    1    2    0    0 -0.21541803399E-01  0.86690639098E-02 -0.67838190411E-02  0.24191365475E-01  0.00000000000E+00 0. -1.
     999901    1    3    3    0    0  0.80367292993E-01  0.94874417373E-01  0.53706261816E-01  0.89036195977E+00  0.88000000000E+00 0. -1.
        -11    1    4    4    0    0 -0.20481274780E-01 -0.41929932686E-01 -0.27826180016E-01  0.54333776667E-01  0.51100000000E-03 0. -1.
         11    1    4    4    0    0 -0.38344214814E-01 -0.61613548597E-01 -0.19096262758E-01  0.75042898083E-01  0.51100000000E-03 0.  1.
</event>
<event>
 8    1  0.1042301E+005  0.1043930E+01  0.7957747E-01            NaN
         13   -1    0    0    0    0  0.00000000000E+00  0.00000000000E+00  0.74505805969E-08  0.10566000000E+00  0.10566000000E+00 0. -1.
     999900   -1    0    0    0    0 -0.00000000000E+00 -0.00000000000E+00 -0.74505805969E-08  0.93827000000E+00  0.93827000000E+00 0. -1.
     999902    2    1    2    0    0  0.18758174098E-02  0.22974393249E-01 -0.99143864056E-02  0.10188374415E+01  0.10185283971E+01 0.  0.
     999903    2    3    3    0    0 -0.59118665867E-01  0.13287892929E-01 -0.11385181037E+00  0.13057107185E+00  0.20371188655E-01 0.  0.
         14    1    1    2    0    0 -0.18758174098E-02 -0.22974393249E-01  0.99143864056E-02  0.25092558537E-01  0.00000000000E+00 0. -1.
     999901    1    3    3    0    0  0.60994483276E-01  0.96865003206E-02  0.10393742397E+00  0.88826636961E+00  0.88000000000E+00 0. -1.
        -11    1    4    4    0    0 -0.13817681995E-01  0.11521736016E-01 -0.24807381163E-01  0.30648752302E-01  0.51100000000E-03 0.  1.
         11    1    4    4    0    0 -0.45300983872E-01  0.17661569132E-02 -0.89044429211E-01  0.99922319551E-01  0.51100000000E-03 0. -1.
</event>
<event>
 8    1  0.1042301E+005  0.1043930E+01  0.7957747E-01            NaN
         13   -1    0    0    0    0  0.00000000000E+00  0.00000000000E+00  0.74505805969E-08  0.10566000000E+00  0.10566000000E+00 0.  1.
     999900   -1    0    0    0    0 -0.00000000000E+00 -0.00000000000E+00 -0.74505805969E-08  0.93827000000E+00  0.93827000000E+00 0.  1.
     999902    2    1    2    0    0  0.16191165080E-01  0.15837886425E-01 -0.75151454446E-02  0.10200664319E+01  0.10197872599E+01 0.  0.
     999903    2    3    3    0    0  0.44423013324E-01  0.70122083386E-01 -0.10201345441E+00  0.13289466626E+00  0.19071883678E-01 0.  0.
         14    1    1    2    0    0 -0.16191165080E-01 -0.15837886425E-01  0.75151454446E-02  0.23863568135E-01  0.00000000000E+00 0.  1.
     999901    1    3    3    0    0 -0.28231848243E-01 -0.54284196960E-01  0.94498308968E-01  0.88717176561E+00  0.88000000000E+00 0. -1.
        -11    1    4    4    0    0  0.19378337403E-01  0.15831611996E-01 -0.35788449561E-01  0.43671891897E-01  0.51100000000E-03 0. -1.
         11    1    4    4    0    0  0.25044675921E-01  0.54290471390E-01 -0.66225004852E-01  0.89222774359E-01  0.51100000000E-03 0.  1.
</event>
<event>
 8    1  0.1042301E+005  0.1043930E+01  0.7957747E-01            NaN
         13   -1    0    0    0    0  0.00000000000E+00  0.00000000000E+00  0.74505805969E-08  0.10566000000E+00  0.10566000000E+00 0. -1.
     999900   -1    0    0    0    0 -0.00000000000E+00 -0.00000000000E+00 -0.74505805969E-08  0.93827000000E+00  0.93827000000E+00 0.  1.
     999902    2    1    2    0    0  0.18664082808E-01 -0.11130576637E-01 -0.10242485047E-01  0.10199061322E+01  0.10196231521E+01 0.  0.
     999903    2    3    3    0    0 -0.47735182649E-01  0.86705743164E-01  0.78113699462E-01  0.12761266969E+00  0.19664939917E-01 0.  0.
         14    1    1    2    0    0 -0.18664082808E-01  0.11130576637E-01  0.10242485047E-01  0.24023867783E-01  0.00000000000E+00 0. -1.
     999901    1    3    3    0    0  0.66399265457E-01 -0.97836319801E-01 -0.88356184509E-01  0.89229346253E+00  0.88000000000E+00 0.  1.
        -11    1    4    4    0    0 -0.39875030691E-01  0.63783768802E-01  0.49204511616E-01  0.89887331252E-01  0.51100000000E-03 0.  1.
         11    1    4    4    0    0 -0.78601519581E-02  0.22921974361E-01  0.28909187846E-01  0.37725338439E-01  0.51100000000E-03 0. -1.
</event>
<event>
 8    1  0.1042301E+005  0.1043930E+01  0.7957747E-01            NaN
         13   -1    0    0    0    0  0.00000000000E+00  0.00000000000E+00  0.74505805969E-08  0.10566000000E+00  0.10566000000E+00 0.  1.
     999900   -1    0    0    0    0 -0.00000000000E+00 -0.00000000000E+00 -0.74505805969E-08  0.93827000000E+00  0.93827000000E+00 0.  1.
     999902    2    1    2    0    0 -0.12834934952E-01 -0.13150757605E-01  0.13822611953E-01  0.10209355967E+01  0.10206766139E+01 0.  0.
     999903    2    3    3    0    0  0.16784795148E-01 -0.59037534989E-01 -0.11283355356E+00  0.13019168908E+00  0.21243945229E-01 0.  0.
         14    1    1    2    0    0  0.12834934952E-01  0.13150757605E-01 -0.13822611953E-01  0.22994403276E-01  0.00000000000E+00 0. -1.
     999901    1    3    3    0    0 -0.29619730101E-01  0.45886777385E-01  0.12665616552E+00  0.89074390765E+00  0.88000000000E+00 0. -1.
        -11    1    4    4    0    0  0.78007381924E-02 -0.47245741546E-01 -0.69591638023E-01  0.84476439404E-01  0.51100000000E-03 0. -1.
         11    1    4    4    0    0  0.89840569560E-02 -0.11791793443E-01 -0.43241915540E-01  0.45715249672E-01  0.51100000000E-03 0.  1.
</event>
<event>
 8    1  0.1042301E+005  0.1043930E+01  0.7957747E-01            NaN
         13   -1    0    0    0    0  0.00000000000E+00  0.00000000000E+00  0.74505805969E-08  0.10566000000E+00  0.10566000000E+00 0. -1.
     999900   -1    0    0    0    0 -0.00000000000E+00 -0.00000000000E+00 -0.74505805969E-08  0.93827000000E+00  0.93827000000E+00 0.  1.
     999902    2    1    2    0    0  0.77644814723E-02 -0.16680092203E-01 -0.14874311285E-01  0.10202707992E+01  0.10199964440E+01 0.  0.
     999903    2    3    3    0    0  0.29871716824E-01 -0.58224352777E-01 -0.11446775176E+00  0.13340355496E+00  0.20279239618E-01 0.  0.
         14    1    1    2    0    0 -0.77644814723E-02  0.16680092203E-01  0.14874311285E-01  0.23659200845E-01  0.00000000000E+00 0.  1.
     999901    1    3    3    0    0 -0.22107235351E-01  0.41544260574E-01  0.99593440479E-01  0.88686724420E+00  0.88000000000E+00 0. -1.
        -11    1    4    4    0    0  0.14918829331E-01 -0.48246157474E-01 -0.85935878234E-01  0.99676975619E-01  0.51100000000E-03 0.  1.
         11    1    4    4    0    0  0.14952887493E-01 -0.99781953030E-02 -0.28531873529E-01  0.33726579340E-01  0.51100000000E-03 0. -1.
</event>
<event>
 8    1  0.1042301E+005  0.1043930E+01  0.7957747E-01            NaN
         13   -1    0    0    0    0  0.00000000000E+00  0.00000000000E+00  0.74505805969E-08  0.10566000000E+00  0.10566000000E+00 0. -1.
     999900   -1    0    0    0    0 -0.00000000000E+00 -0.00000000000E+00 -0.74505805969E-08  0.93827000000E+00  0.93827000000E+00 0.  1.
     999902    2    1    2    0    0 -0.26781662547E-03 -0.15473635288E-01  0.17971274167E-01  0.10202135119E+01  0.10199378108E+01 0.  0.
     999903    2    3    3    0    0  0.10747093231E+00 -0.25032516695E-01  0.69740065314E-01  0.13208119177E+00  0.20127998606E-01 0.  0.
         14    1    1    2    0    0  0.26781662547E-03  0.15473635288E-01 -0.17971274167E-01  0.23716488145E-01  0.00000000000E+00 0.  1.
     999901    1    3    3    0    0 -0.10773874893E+00  0.95588814077E-02 -0.51768791147E-01  0.88813232008E+00  0.88000000000E+00 0.  1.
        -11    1    4    4    0    0  0.50609024000E-01 -0.19914903365E-01  0.26745343222E-01  0.60609002560E-01  0.51100000000E-03 0. -1.
         11    1    4    4    0    0  0.56861908305E-01 -0.51176133304E-02  0.42994722092E-01  0.71472189214E-01  0.51100000000E-03 0.  1.
</event>
<event>
 8    1  0.1042301E+005  0.1043930E+01  0.7957747E-01            NaN
         13   -1    0    0    0    0  0.00000000000E+00  0.00000000000E+00  0.74505805969E-08  0.10566000000E+00  0.10566000000E+00 0. -1.
     999900   -1    0    0    0    0 -0.00000000000E+00 -0.00000000000E+00 -0.74505805969E-08  0.93827000000E+00  0.93827000000E+00 0. -1.
     999902    2    1    2    0    0  0.50626282272E-02  0.10330354718E-02  0.22573946825E-01  0.10207722704E+01  0.10205095529E+01 0.  0.
     999903    2    3    3    0    0 -0.85885736452E-01 -0.95973165990E-01 -0.44100171744E-02  0.13037351560E+00  0.19763527087E-01 0.  0.
         14    1    1    2    0    0 -0.50626282272E-02 -0.10330354718E-02 -0.22573946825E-01  0.23157729640E-01  0.00000000000E+00 0.  1.
     999901    1    3    3    0    0  0.90948364680E-01  0.97006201462E-01  0.26983963999E-01  0.89039875476E+00  0.88000000000E+00 0.  1.
        -11    1    4    4    0    0 -0.15470946595E-01 -0.14029281189E-01  0.62500095564E-02  0.21805840036E-01  0.51100000000E-03 0. -1.
         11    1    4    4    0    0 -0.70414789858E-01 -0.81943884801E-01 -0.10660026731E-01  0.10856767557E+00  0.51100000000E-03 0.  1.
</event>
<event>
 8    1  0.1042301E+005  0.1043930E+01  0.7957747E-01            NaN
         13   -1    0    0    0    0  0.00000000000E+00  0.00000000000E+00  0.74505805969E-08  0.10566000000E+00  0.10566000000E+00 0. -1.
     999900   -1    0    0    0    0 -0.00000000000E+00 -0.00000000000E+00 -0.74505805969E-08  0.93827000000E+00  0.93827000000E+00 0.  1.
     999902    2    1    2    0    0  0.20552447366E-01  0.80357111712E-02 -0.50462059059E-02  0.10212928637E+01  0.10210419548E+01 0.  0.
     999903    2    3    3    0    0  0.36121802548E-01 -0.12250601235E+00  0.21537012173E-01  0.13112983710E+00  0.20461759572E-01 0.  0.
         14    1    1    2    0    0 -0.20552447366E-01 -0.80357111712E-02  0.50462059059E-02  0.22637136320E-01  0.00000000000E+00 0. -1.
     999901    1    3    3    0    0 -0.15569355183E-01  0.13054172352E+00 -0.26583218079E-01  0.89016302658E+00  0.88000000000E+00 0. -1.
        -11    1    4    4    0    0  0.10238953547E-01 -0.12865499630E-01  0.54611112399E-02  0.17333265920E-01  0.51100000000E-03 0.  1.
         11    1    4    4    0    0  0.25882849002E-01 -0.10964051272E+00  0.16075900933E-01  0.11379657118E+00  0.51100000000E-03 0. -1.
</event>
<event>
 8    1  0.1042301E+005  0.1043930E+01  0.7957747E-01            NaN
         13   -1    0    0    0    0  0.00000000000E+00  0.00000000000E+00  0.74505805969E-08  0.10566000000E+00  0.10566000000E+00 0.  1.
     999900   -1    0    0    0    0 -0.00000000000E+00 -0.00000000000E+00 -0.74505805969E-08  0.93827000000E+00  0.93827000000E+00 0.  1.
     999902    2    1    2    0    0  0.72072517555E-02 -0.19778266054E-01  0.91089007962E-02  0.10209932095E+01  0.10207355375E+01 0.  0.
     999903    2    3    3    0    0  0.94375510933E-01 -0.25127866292E-01 -0.82722694181E-01  0.13191505460E+00  0.31943556003E-01 0.  0.
         14    1    1    2    0    0 -0.72072517555E-02  0.19778266054E-01 -0.91089007962E-02  0.22936790527E-01  0.00000000000E+00 0.  1.
     999901    1    3    3    0    0 -0.87168259178E-01  0.53496002387E-02  0.91831594977E-01  0.88907815487E+00  0.88000000000E+00 0. -1.
        -11    1    4    4    0    0  0.72047333214E-01 -0.12648721832E-01 -0.43566458049E-01  0.85141680599E-01  0.51100000000E-03 0.  1.
         11    1    4    4    0    0  0.22328177719E-01 -0.12479144461E-01 -0.39156236132E-01  0.46773374005E-01  0.51100000000E-03 0. -1.
</event>
<event>
 8    1  0.1042301E+005  0.1043930E+01  0.7957747E-01            NaN
         13   -1    0    0    0    0  0.00000000000E+00  0.00000000000E+00  0.74505805969E-08  0.10566000000E+00  0.10566000000E+00 0. -1.
     999900   -1    0    0    0    0 -0.00000000000E+00 -0.00000000000E+00 -0.74505805969E-08  0.93827000000E+00  0.93827000000E+00 0. -1.
     999902    2    1    2    0    0 -0.10626526599E-01 -0.17807708408E-02 -0.20714438941E-01  0.10205808631E+01  0.10203137341E+01 0.  0.
     999903    2    3    3    0    0 -0.10813395844E+00 -0.48200683981E-01 -0.57878382724E-01  0.13320063666E+00  0.19396997559E-01 0.  0.
         14    1    1    2    0    0  0.10626526599E-01  0.17807708408E-02  0.20714438941E-01  0.23349136879E-01  0.00000000000E+00 0. -1.
     999901    1    3    3    0    0  0.97507431844E-01  0.46419913141E-01  0.37163943784E-01  0.88738022646E+00  0.88000000000E+00 0.  1.
        -11    1    4    4    0    0 -0.31567537917E-01 -0.23566086019E-01 -0.22054800559E-01  0.45150251484E-01  0.51100000000E-03 0. -1.
         11    1    4    4    0    0 -0.76566420527E-01 -0.24634597962E-01 -0.35823582165E-01  0.88050385173E-01  0.51100000000E-03 0.  1.
</event>
<event>
 8    1  0.1042301E+005  0.1043930E+01  0.7957747E-01            NaN
         13   -1    0    0    0    0  0.00000000000E+00  0.00000000000E+00  0.74505805969E-08  0.10566000000E+00  0.10566000000E+00 0.  1.
     999900   -1    0    0    0    0 -0.00000000000E+00 -0.00000000000E+00 -0.74505805969E-08  0.93827000000E+00  0.93827000000E+00 0. -1.
     999902    2    1    2    0    0 -0.12695284446E-01  0.87408166460E-02  0.17981348257E-01  0.10202466513E+01  0.10199717292E+01 0.  0.
     999903    2    3    3    0    0 -0.94868602499E-01  0.87901432275E-01 -0.22489351341E-01  0.13195799614E+00  0.13432359678E-01 0.  0.
         14    1    1    2    0    0  0.12695284446E-01 -0.87408166460E-02 -0.17981348257E-01  0.23683348749E-01  0.00000000000E+00 0.  1.
     999901    1    3    3    0    0  0.82173318053E-01 -0.79160615629E-01  0.40470699598E-01  0.88828865511E+00  0.88000000000E+00 0.  1.
        -11    1    4    4    0    0 -0.78203159281E-01  0.66464427426E-01 -0.21000815170E-01  0.10475948450E+00  0.51100000000E-03 0. -1.
         11    1    4    4    0    0 -0.16665443219E-01  0.21437004848E-01 -0.14885361703E-02  0.27198511641E-01  0.51100000000E-03 0.  1.
</event>
<event>
 8    1  0.1042301E+005  0.1043930E+01  0.7957747E-01            NaN
         13   -1    0    0    0    0  0.00000000000E+00  0.00000000000E+00  0.74505805969E-08  0.10566000000E+00  0.10566000000E+00 0.  1.
     999900   -1    0    0    0    0 -0.00000000000E+00 -0.00000000000E+00 -0.74505805969E-08  0.93827000000E+00  0.93827000000E+00 0. -1.
     999902    2    1    2    0    0  0.21275379694E-01  0.78268681036E-02  0.55079601594E-02  0.10206010637E+01  0.10203344020E+01 0.  0.
     999903    2    3    3    0    0  0.25103391949E-02 -0.11791404408E+00 -0.50407342065E-01  0.12970857589E+00  0.19323326099E-01 0.  0.
         14    1    1    2    0    0 -0.21275379694E-01 -0.78268681036E-02 -0.55079601594E-02  0.23328936336E-01  0.00000000000E+00 0.  1.
     999901    1    3    3    0    0  0.18765040499E-01  0.12574091219E+00  0.55915302225E-01  0.89089248777E+00  0.88000000000E+00 0. -1.
        -11    1    4    4    0    0 -0.50235861675E-03 -0.11284535188E+00 -0.44378693473E-01  0.12126027941E+00  0.51100000000E-03 0. -1.
         11    1    4    4    0    0  0.30126978116E-02 -0.50686921982E-02 -0.60286485927E-02  0.84482964886E-02  0.51100000000E-03 0.  1.
</event>
<event>
 8    1  0.1042301E+005  0.1043930E+01  0.7957747E-01            NaN
         13   -1    0    0    0    0  0.00000000000E+00  0.00000000000E+00  0.74505805969E-08  0.10566000000E+00  0.10566000000E+00 0.  1.
     999900   -1    0    0    0    0 -0.00000000000E+00 -0.00000000000E+00 -0.74505805969E-08  0.93827000000E+00  0.93827000000E+00 0.  1.
     999902    2    1    2    0    0 -0.22190218245E-01 -0.34306884804E-02  0.81224300223E-02  0.10200522011E+01  0.10197726922E+01 0.  0.
     999903    2    3    3    0    0 -0.11955990075E+00  0.53934347175E-01  0.97301865240E-02  0.13282382734E+00  0.18547477083E-01 0.  0.
         14    1    1    2    0    0  0.22190218245E-01  0.34306884804E-02 -0.81224300223E-02  0.23877798866E-01  0.00000000000E+00 0. -1.
     999901    1    3    3    0    0  0.97369682506E-01 -0.57365035655E-01 -0.16077565016E-02  0.88722837380E+00  0.88000000000E+00 0.  1.
        -11    1    4    4    0    0 -0.71490607372E-01  0.24613518091E-01  0.11540216581E-01  0.76486403595E-01  0.51100000000E-03 0. -1.
         11    1    4    4    0    0 -0.48069293379E-01  0.29320829084E-01 -0.18100300571E-02  0.56337423743E-01  0.51100000000E-03 0.  1.
</event>
<event>
 8    1  0.1042301E+005  0.1043930E+01  0.7957747E-01            NaN
         13   -1    0    0    0    0  0.00000000000E+00  0.00000000000E+00  0.74505805969E-08  0.10566000000E+00  0.10566000000E+00 0. -1.
     999900   -1    0    0    0    0 -0.00000000000E+00 -0.00000000000E+00 -0.74505805969E-08  0.93827000000E+00  0.93827000000E+00 0. -1.
     999902    2    1    2    0    0  0.19053409571E-03  0.12655691194E-01  0.19611367086E-01  0.10205888659E+01  0.10203219221E+01 0.  0.
     999903    2    3    3    0    0 -0.66771734789E-01 -0.43867816426E-02  0.11206070026E+00  0.13305223535E+00  0.25837731508E-01 0.  0.
         14    1    1    2    0    0 -0.19053409571E-03 -0.12655691194E-01 -0.19611367086E-01  0.23341134115E-01  0.00000000000E+00 0.  1.
     999901    1    3    3    0    0  0.66962268885E-01  0.17042472836E-01 -0.92449333173E-01  0.88753663053E+00  0.88000000000E+00 0. -1.
        -11    1    4    4    0    0 -0.55794083972E-01 -0.10482386781E-01  0.75994158483E-01  0.94859018988E-01  0.51100000000E-03 0.  1.
         11    1    4    4    0    0 -0.10977650818E-01  0.60956051382E-02  0.36066541776E-01  0.38193216363E-01  0.51100000000E-03 0. -1.
</event>
<event>
 8    1  0.1042301E+005  0.1043930E+01  0.7957747E-01            NaN
         13   -1    0    0    0    0  0.00000000000E+00  0.00000000000E+00  0.74505805969E-08  0.10566000000E+00  0.10566000000E+00 0. -1.
     999900   -1    0    0    0    0 -0.00000000000E+00 -0.00000000000E+00 -0.74505805969E-08  0.93827000000E+00  0.93827000000E+00 0. -1.
     999902    2    1    2    0    0 -0.13296360659E-01  0.83272282555E-02  0.17729115424E-01  0.10202560170E+01  0.10199813149E+01 0.  0.
     999903    2    3    3    0    0 -0.89271193612E-01 -0.81555340442E-01  0.48460637249E-01  0.13188926963E+00  0.20633141268E-01 0.  0.
         14    1    1    2    0    0  0.13296360659E-01 -0.83272282555E-02 -0.17729115424E-01  0.23673982996E-01  0.00000000000E+00 0.  1.
     999901    1    3    3    0    0  0.75974832953E-01  0.89882568697E-01 -0.30731521825E-01  0.88836674737E+00  0.88000000000E+00 0.  1.
        -11    1    4    4    0    0 -0.58745825486E-01 -0.48334837426E-01  0.40118292652E-01  0.86006203540E-01  0.51100000000E-03 0. -1.
         11    1    4    4    0    0 -0.30525368126E-01 -0.33220503016E-01  0.83423445973E-02  0.45883066095E-01  0.51100000000E-03 0.  1.
</event>
<event>
 8    1  0.1042301E+005  0.1043930E+01  0.7957747E-01            NaN
         13   -1    0    0    0    0  0.00000000000E+00  0.00000000000E+00  0.74505805969E-08  0.10566000000E+00  0.10566000000E+00 0. -1.
     999900   -1    0    0    0    0 -0.00000000000E+00 -0.00000000000E+00 -0.74505805969E-08  0.93827000000E+00  0.93827000000E+00 0. -1.
     999902    2    1    2    0    0 -0.27088798401E-02  0.22886469286E-01 -0.67318728806E-02  0.10199206972E+01  0.10196380642E+01 0.  0.
     999903    2    3    3    0    0 -0.90146038014E-01 -0.25433231976E-01 -0.88501665464E-01  0.13050158954E+00  0.20614621640E-01 0.  0.
         14    1    1    2    0    0  0.27088798401E-02 -0.22886469286E-01  0.67318728806E-02  0.24009302757E-01  0.00000000000E+00 0. -1.
     999901    1    3    3    0    0  0.87437158174E-01  0.48319701263E-01  0.81769792584E-01  0.88941910770E+00  0.88000000000E+00 0.  1.
        -11    1    4    4    0    0 -0.57763366520E-01 -0.67051898373E-02 -0.48414630975E-01  0.75669040538E-01  0.51100000000E-03 0.  1.
         11    1    4    4    0    0 -0.32382671494E-01 -0.18728042139E-01 -0.40087034489E-01  0.54832549007E-01  0.51100000000E-03 0. -1.
</event>
<event>
 8    1  0.1042301E+005  0.1043930E+01  0.7957747E-01            NaN
         13   -1    0    0    0    0  0.00000000000E+00  0.00000000000E+00  0.74505805969E-08  0.10566000000E+00  0.10566000000E+00 0.  1.
     999900   -1    0    0    0    0 -0.00000000000E+00 -0.00000000000E+00 -0.74505805969E-08  0.93827000000E+00  0.93827000000E+00 0.  1.
     999902    2    1    2    0    0 -0.78391731543E-02 -0.13411311641E-01  0.18117141189E-01  0.10200648220E+01  0.10197856120E+01 0.  0.
     999903    2    3    3    0    0 -0.26084583883E-01  0.12181619219E+00  0.28560273919E-01  0.12948723874E+00  0.20776562631E-01 0.  0.
         14    1    1    2    0    0  0.78391731543E-02  0.13411311641E-01 -0.18117141189E-01  0.23865177991E-01  0.00000000000E+00 0.  1.
     999901    1    3    3    0    0  0.18245410729E-01 -0.13522750383E+00 -0.10443132730E-01  0.89057758327E+00  0.88000000000E+00 0.  1.
        -11    1    4    4    0    0 -0.25983754725E-02  0.37554556406E-01  0.60113629015E-03  0.37652606122E-01  0.51100000000E-03 0. -1.
         11    1    4    4    0    0 -0.23486208411E-01  0.84261635780E-01  0.27959137629E-01  0.91834632616E-01  0.51100000000E-03 0.  1.
</event>
<event>
 8    1  0.1042301E+005  0.1043930E+01  0.7957747E-01            NaN
         13   -1    0    0    0    0  0.00000000000E+00  0.00000000000E+00  0.74505805969E-08  0.10566000000E+00  0.10566000000E+00 0.  1.
     999900   -1    0    0    0    0 -0.00000000000E+00 -0.00000000000E+00 -0.74505805969E-08  0.93827000000E+00  0.93827000000E+00 0.  1.
     999902    2    1    2    0    0 -0.68645768747E-02 -0.10053019715E-01  0.19232575270E-01  0.10211686825E+01  0.10209149821E+01 0.  0.
     999903    2    3    3    0    0 -0.91804389097E-01  0.43715035170E-01 -0.78623053409E-01  0.13005617590E+00  0.19848783451E-01 0.  0.
         14    1    1    2    0    0  0.68645768747E-02  0.10053019715E-01 -0.19232575270E-01  0.22761317461E-01  0.00000000000E+00 0. -1.
     999901    1    3    3    0    0  0.84939812222E-01 -0.53768054885E-01  0.97855628679E-01  0.89111250664E+00  0.88000000000E+00 0. -1.
        -11    1    4    4    0    0 -0.82096370679E-01  0.41173323665E-01 -0.62620514477E-01  0.11116045437E+00  0.51100000000E-03 0.  1.
         11    1    4    4    0    0 -0.97080184180E-02  0.25417115047E-02 -0.16002538932E-01  0.18895721533E-01  0.51100000000E-03 0. -1.
</event>
<event>
 7    1  0.1042301E+005  0.1043930E+01  0.7957747E-01            NaN
         13   -1    0    0    0    0  0.00000000000E+00  0.00000000000E+00  0.74505805969E-08  0.10566000000E+00  0.10566000000E+00 0. -1.
     999900   -1    0    0    0    0 -0.00000000000E+00 -0.00000000000E+00 -0.74505805969E-08  0.93827000000E+00  0.93827000000E+00 0. -1.
     999902    2    1    2    0    0 -0.15357125321E-01 -0.23419527409E-01  0.26997552599E-02  0.10157945377E+01  0.10154048151E+01 0.  0.
         14    1    1    2    0    0  0.15357125321E-01  0.23419527409E-01 -0.26997552599E-02  0.28135462332E-01  0.00000000000E+00 0.  1.
     999901    1    3    3    0    0  0.42799370217E-02  0.95322747703E-01  0.11942120248E-01  0.88523858836E+00  0.88000000000E+00 0. -1.
        -11    1    3    3    0    0 -0.48943112178E-03 -0.31882564903E-01 -0.24622012259E-01  0.40289478730E-01  0.51100000000E-03 0. -1.
         11    1    3    3    0    0 -0.19147631220E-01 -0.86859710209E-01  0.15379647271E-01  0.90266470576E-01  0.51100000000E-03 0.  1.
</event>
<event>
 7    1  0.1042301E+005  0.1043930E+01  0.7957747E-01            NaN
         13   -1    0    0    0    0  0.00000000000E+00  0.00000000000E+00  0.74505805969E-08  0.10566000000E+00  0.10566000000E+00 0. -1.
     999900   -1    0    0    0    0 -0.00000000000E+00 -0.00000000000E+00 -0.74505805969E-08  0.93827000000E+00  0.93827000000E+00 0.  1.
     999903    2    1    2    0    0 -0.78578952188E-01 -0.40173220202E-01  0.28035331226E-01  0.95214837811E-01  0.22166330187E-01 0.  0.
         14    1    1    2    0    0  0.26361519251E-01 -0.52479429415E-01  0.17087988977E-01  0.61163874764E-01  0.00000000000E+00 0.  1.
     999901    1    1    2    0    0  0.52217432937E-01  0.92652649617E-01 -0.45123320203E-01  0.88755128742E+00  0.88000000000E+00 0.  1.
        -11    1    3    3    0    0 -0.42224319032E-01 -0.15305899283E-01  0.41506290834E-02  0.45107122646E-01  0.51100000000E-03 0.  1.
         11    1    3    3    0    0 -0.36354633156E-01 -0.24867320918E-01  0.23884702143E-01  0.50107715165E-01  0.51100000000E-03 0. -1.
</event>
<event>
 8    1  0.1042301E+005  0.1043930E+01  0.7957747E-01            NaN
         13   -1    0    0    0    0  0.00000000000E+00  0.00000000000E+00  0.74505805969E-08  0.10566000000E+00  0.10566000000E+00 0.  1.
     999900   -1    0    0    0    0 -0.00000000000E+00 -0.00000000000E+00 -0.74505805969E-08  0.93827000000E+00  0.93827000000E+00 0. -1.
     999902    2    1    2    0    0  0.73601339392E-02  0.21262768341E-01  0.50586106234E-02  0.10208677705E+01  0.10206072400E+01 0.  0.
     999903    2    3    3    0    0  0.12192759949E+00  0.34361154089E-02 -0.45695798574E-01  0.13181237076E+00  0.20205164489E-01 0.  0.
         14    1    1    2    0    0 -0.73601339392E-02 -0.21262768341E-01 -0.50586106234E-02  0.23062229522E-01  0.00000000000E+00 0. -1.
     999901    1    3    3    0    0 -0.11456746555E+00  0.17826652932E-01  0.50754409197E-01  0.88905539972E+00  0.88000000000E+00 0. -1.
        -11    1    4    4    0    0  0.36172451800E-01 -0.49185312296E-02 -0.21276354739E-01  0.42256154708E-01  0.51100000000E-03 0. -1.
         11    1    4    4    0    0  0.85755147686E-01  0.83546466385E-02 -0.24419443835E-01  0.89556216051E-01  0.51100000000E-03 0.  1.
</event>
<event>
 8    1  0.1042301E+005  0.1043930E+01  0.7957747E-01            NaN
         13   -1    0    0    0    0  0.00000000000E+00  0.00000000000E+00  0.74505805969E-08  0.10566000000E+00  0.10566000000E+00 0.  1.
     999900   -1    0    0    0    0 -0.00000000000E+00 -0.00000000000E+00 -0.74505805969E-08  0.93827000000E+00  0.93827000000E+00 0. -1.
     999902    2    1    2    0    0  0.10716482209E-01 -0.17775588755E-01 -0.67833732663E-02  0.10220935923E+01  0.10218603049E+01 0.  0.
     999903    2    3    3    0    0  0.12983027474E+00 -0.25295172368E-01  0.37332837809E-02  0.13397465899E+00  0.20964872023E-01 0.  0.
         14    1    1    2    0    0 -0.10716482209E-01  0.17775588755E-01  0.67833732663E-02  0.21836407658E-01  0.00000000000E+00 0. -1.
     999901    1    3    3    0    0 -0.11911379253E+00  0.75195836128E-02 -0.10516657047E-01  0.88811893336E+00  0.88000000000E+00 0.  1.
        -11    1    4    4    0    0  0.10908966274E+00 -0.13781678608E-01  0.61154103461E-02  0.11012787362E+00  0.51100000000E-03 0. -1.
         11    1    4    4    0    0  0.20740611997E-01 -0.11513493760E-01 -0.23821265653E-02  0.23846785371E-01  0.51100000000E-03 0.  1.
</event>
<event>
 8    1  0.1042301E+005  0.1043930E+01  0.7957747E-01            NaN
         13   -1    0    0    0    0  0.00000000000E+00  0.00000000000E+00  0.74505805969E-08  0.10566000000E+00  0.10566000000E+00 0. -1.
     999900   -1    0    0    0    0 -0.00000000000E+00 -0.00000000000E+00 -0.74505805969E-08  0.93827000000E+00  0.93827000000E+00 0. -1.
     999902    2    1    2    0    0  0.38970375406E-02  0.23263908239E-01 -0.25056257119E-02  0.10202092393E+01  0.10199334378E+01 0.  0.
     999903    2    3    3    0    0  0.12219404139E+00  0.14144359760E-01 -0.41594299243E-01  0.13138683202E+00  0.20024166232E-01 0.  0.
         14    1    1    2    0    0 -0.38970375406E-02 -0.23263908239E-01  0.25056257119E-02  0.23720760703E-01  0.00000000000E+00 0.  1.
     999901    1    3    3    0    0 -0.11829700385E+00  0.91195484792E-02  0.39088673532E-01  0.88882240728E+00  0.88000000000E+00 0.  1.
        -11    1    4    4    0    0  0.10121883684E+00  0.17907512166E-01 -0.29796161313E-01  0.10702338190E+00  0.51100000000E-03 0.  1.
         11    1    4    4    0    0  0.20975204553E-01 -0.37631524060E-02 -0.11798137931E-01  0.24363450119E-01  0.51100000000E-03 0. -1.
</event>
<event>
 8    1  0.1042301E+005  0.1043930E+01  0.7957747E-01            NaN
         13   -1    0    0    0    0  0.00000000000E+00  0.00000000000E+00  0.74505805969E-08  0.10566000000E+00  0.10566000000E+00 0. -1.
     999900   -1    0    0    0    0 -0.00000000000E+00 -0.00000000000E+00 -0.74505805969E-08  0.93827000000E+00  0.93827000000E+00 0. -1.
     999902    2    1    2    0    0  0.23130631357E-01 -0.28272336372E-02  0.44099345406E-02  0.10202136158E+01  0.10199379172E+01 0.  0.
     999903    2    3    3    0    0  0.66621932070E-01  0.57700951818E-01 -0.94749453563E-01  0.13151358839E+00  0.23462380653E-01 0.  0.
         14    1    1    2    0    0 -0.23130631357E-01  0.28272336372E-02 -0.44099345406E-02  0.23716384203E-01  0.00000000000E+00 0.  1.
     999901    1    3    3    0    0 -0.43491300714E-01 -0.60528185456E-01  0.99159388104E-01  0.88870002741E+00  0.88000000000E+00 0.  1.
        -11    1    4    4    0    0  0.47387263245E-01  0.51510276591E-01 -0.64818665073E-01  0.95396969423E-01  0.51100000000E-03 0.  1.
         11    1    4    4    0    0  0.19234668826E-01  0.61906752276E-02 -0.29930788491E-01  0.36116618962E-01  0.51100000000E-03 0. -1.
</event>
<event>
 8    1  0.1042301E+005  0.1043930E+01  0.7957747E-01            NaN
         13   -1    0    0    0    0  0.00000000000E+00  0.00000000000E+00  0.74505805969E-08  0.10566000000E+00  0.10566000000E+00 0. -1.
     999900   -1    0    0    0    0 -0.00000000000E+00 -0.00000000000E+00 -0.74505805969E-08  0.93827000000E+00  0.93827000000E+00 0. -1.
     999902    2    1    2    0    0  0.15954556334E-01 -0.16709479996E-01 -0.83457037601E-02  0.10193656893E+01  0.10190696753E+01 0.  0.
     999903    2    3    3    0    0 -0.74264557049E-01 -0.44616114796E-01  0.93193758579E-01  0.12850737783E+00  0.17979081863E-01 0.  0.
         14    1    1    2    0    0 -0.15954556334E-01  0.16709479996E-01  0.83457037601E-02  0.24564310713E-01  0.00000000000E+00 0.  1.
     999901    1    3    3    0    0  0.90219113384E-01  0.27906634800E-01 -0.10153946234E+00  0.89085831146E+00  0.88000000000E+00 0.  1.
        -11    1    4    4    0    0 -0.50290980312E-01 -0.39525671333E-01  0.67766787199E-01  0.93188303791E-01  0.51100000000E-03 0. -1.
         11    1    4    4    0    0 -0.23973576737E-01 -0.50904434628E-02  0.25426971380E-01  0.35319074036E-01  0.51100000000E-03 0.  1.
</event>
<event>
 8    1  0.1042301E+005  0.1043930E+01  0.7957747E-01            NaN
         13   -1    0    0    0    0  0.00000000000E+00  0.00000000000E+00  0.74505805969E-08  0.10566000000E+00  0.10566000000E+00 0. -1.
     999900   -1    0    0    0    0 -0.00000000000E+00 -0.00000000000E+00 -0.74505805969E-08  0.93827000000E+00  0.93827000000E+00 0. -1.
     999902    2    1    2    0    0 -0.16398000501E-01  0.11258083546E-02 -0.14656797907E-01  0.10219076570E+01  0.10216703362E+01 0.  0.
     999903    2    3    3    0    0  0.10231080765E+00  0.31098389665E-01  0.70185199858E-01  0.12938970128E+00  0.19522328615E-01 0.  0.
         14    1    1    2    0    0  0.16398000501E-01 -0.11258083546E-02  0.14656797907E-01  0.22022342967E-01  0.00000000000E+00 0. -1.
     999901    1    3    3    0    0 -0.11870880815E+00 -0.29972581310E-01 -0.84841997765E-01  0.89251795576E+00  0.88000000000E+00 0. -1.
        -11    1    4    4    0    0  0.55376679092E-01  0.79829735608E-02  0.30524049794E-01  0.63736043107E-01  0.51100000000E-03 0. -1.
         11    1    4    4    0    0  0.46934128563E-01  0.23115416104E-01  0.39661150064E-01  0.65653658169E-01  0.51100000000E-03 0.  1.
</event>
<event>
 8    1  0.1042301E+005  0.1043930E+01  0.7957747E-01            NaN
         13   -1    0    0    0    0  0.00000000000E+00  0.00000000000E+00  0.74505805969E-08  0.10566000000E+00  0.10566000000E+00 0.  1.
     999900   -1    0    0    0    0 -0.00000000000E+00 -0.00000000000E+00 -0.74505805969E-08  0.93827000000E+00  0.93827000000E+00 0.  1.
     999902    2    1    2    0    0 -0.95166283917E-02  0.18930036004E-01 -0.10741331105E-01  0.10201752389E+01  0.10198986369E+01 0.  0.
     999903    2    3    3    0    0 -0.63050891001E-02 -0.91356815554E-01 -0.89825295696E-01  0.12976646929E+00  0.19619656192E-01 0.  0.
         14    1    1    2    0    0  0.95166283917E-02 -0.18930036004E-01  0.10741331105E-01  0.23754761059E-01  0.00000000000E+00 0. -1.
     999901    1    3    3    0    0 -0.32115392916E-02  0.11028685156E+00  0.79083964591E-01  0.89040876965E+00  0.88000000000E+00 0. -1.
        -11    1    4    4    0    0 -0.86849944229E-03 -0.61870859825E-01 -0.71772216630E-01  0.94764285402E-01  0.51100000000E-03 0.  1.
         11    1    4    4    0    0 -0.54365896579E-02 -0.29485955729E-01 -0.18053079066E-01  0.35002183891E-01  0.51100000000E-03 0. -1.
</event>
<event>
 8    1  0.1042301E+005  0.1043930E+01  0.7957747E-01            NaN
         13   -1    0    0    0    0  0.00000000000E+00  0.00000000000E+00  0.74505805969E-08  0.10566000000E+00  0.10566000000E+00 0. -1.
     999900   -1    0    0    0    0 -0.00000000000E+00 -0.00000000000E+00 -0.74505805969E-08  0.93827000000E+00  0.93827000000E+00 0. -1.
     999902    2    1    2    0    0  0.73371298556E-02 -0.93252457771E-02 -0.20733988965E-01  0.10200408397E+01  0.10197610615E+01 0.  0.
     999903    2    3    3    0    0  0.11262639844E+00  0.61089762168E-01 -0.18411332562E-01  0.13096857142E+00  0.19927991996E-01 0.  0.
         14    1    1    2    0    0 -0.73371298556E-02  0.93252457771E-02  0.20733988965E-01  0.23889160340E-01  0.00000000000E+00 0. -1.
     999901    1    3    3    0    0 -0.10528926859E+00 -0.70415007945E-01 -0.23226564035E-02  0.88907226824E+00  0.88000000000E+00 0. -1.
        -11    1    4    4    0    0  0.62037930086E-01  0.44528745554E-01 -0.87419350295E-02  0.76864793625E-01  0.51100000000E-03 0. -1.
         11    1    4    4    0    0  0.50588468356E-01  0.16561016614E-01 -0.96693975324E-02  0.54103777793E-01  0.51100000000E-03 0.  1.
</event>
<event>
 8    1  0.1042301E+005  0.1043930E+01  0.7957747E-01            NaN
         13   -1    0    0    0    0  0.00000000000E+00  0.00000000000E+00  0.74505805969E-08  0.10566000000E+00  0.10566000000E+00 0. -1.
     999900   -1    0    0    0    0 -0.00000000000E+00 -0.00000000000E+00 -0.74505805969E-08  0.93827000000E+00  0.93827000000E+00 0.  1.
     999902    2    1    2    0    0 -0.18314845415E-01  0.66462597208E-02  0.12300694056E-01  0.10208884418E+01  0.10206283835E+01 0.  0.
     999903    2    3    3    0    0 -0.12334356274E+00  0.27748676210E-01  0.42390404473E-01  0.13388126362E+00  0.11984275336E-01 0.  0.
         14    1    1    2    0    0  0.18314845415E-01 -0.66462597208E-02 -0.12300694056E-01  0.23041558218E-01  0.00000000000E+00 0.  1.
     999901    1    3    3    0    0  0.10502871732E+00 -0.21102416489E-01 -0.30089710417E-01  0.88700717817E+00  0.88000000000E+00 0.  1.
        -11    1    4    4    0    0 -0.70018302563E-01  0.10283957839E-01  0.26368803504E-01  0.75524151117E-01  0.51100000000E-03 0. -1.
         11    1    4    4    0    0 -0.53325260177E-01  0.17464718370E-01  0.16021600969E-01  0.58357112500E-01  0.51100000000E-03 0.  1.
</event>
<event>
 8    1  0.1042301E+005  0.1043930E+01  0.7957747E-01            NaN
         13   -1    0    0    0    0  0.00000000000E+00  0.00000000000E+00  0.74505805969E-08  0.10566000000E+00  0.10566000000E+00 0.  1.
     999900   -1    0    0    0    0 -0.00000000000E+00 -0.00000000000E+00 -0.74505805969E-08  0.93827000000E+00  0.93827000000E+00 0. -1.
     999902    2    1    2    0    0 -0.10798886314E-02  0.20983064450E-01  0.14461315414E-01  0.10184234362E+01  0.10181039783E+01 0.  0.
     999903    2    3    3    0    0 -0.13014103136E-01 -0.81198972446E-01  0.96743081829E-01  0.12861790508E+00  0.20511012114E-01 0.  0.
         14    1    1    2    0    0  0.10798886314E-02 -0.20983064450E-01 -0.14461315414E-01  0.25506563796E-01  0.00000000000E+00 0.  1.
     999901    1    3    3    0    0  0.11934214505E-01  0.10218203690E+00 -0.82281766415E-01  0.88980553113E+00  0.88000000000E+00 0. -1.
        -11    1    4    4    0    0 -0.65702352901E-02 -0.69350027943E-01  0.70524607800E-01  0.99129086517E-01  0.51100000000E-03 0.  1.
         11    1    4    4    0    0 -0.64438678458E-02 -0.11848944504E-01  0.26218474029E-01  0.29488818560E-01  0.51100000000E-03 0. -1.
</event>
<event>
 8    1  0.1042301E+005  0.1043930E+01  0.7957747E-01            NaN
         13   -1    0    0    0    0  0.00000000000E+00  0.00000000000E+00  0.74505805969E-08  0.10566000000E+00  0.10566000000E+00 0. -1.
     999900   -1    0    0    0    0 -0.00000000000E+00 -0.00000000000E+00 -0.74505805969E-08  0.93827000000E+00  0.93827000000E+00 0.  1.
     999902    2    1    2    0    0  0.26282261500E-01  0.44488090495E-02 -0.16072234268E-01  0.10128033894E+01  0.10123249675E+01 0.  0.
     999903    2    3    3    0    0 -0.67094432289E-01  0.40114842458E-01  0.89705903298E-01  0.12085031484E+00  0.21137314870E-01 0.  0.
         14    1    1    2    0    0 -0.26282261500E-01 -0.44488090495E-02  0.16072234268E-01  0.31126610575E-01  0.00000000000E+00 0. -1.
     999901    1    3    3    0    0  0.93376693788E-01 -0.35666033409E-01 -0.10577813757E+00  0.89195307459E+00  0.88000000000E+00 0.  1.
        -11    1    4    4    0    0 -0.13539607473E-01 -0.34356824568E-03  0.19220168389E-01  0.23518397130E-01  0.51100000000E-03 0. -1.
         11    1    4    4    0    0 -0.53554824816E-01  0.40458410704E-01  0.70485734909E-01  0.97331917706E-01  0.51100000000E-03 0.  1.
</event>
<event>
 8    1  0.1042301E+005  0.1043930E+01  0.7957747E-01            NaN
         13   -1    0    0    0    0  0.00000000000E+00  0.00000000000E+00  0.74505805969E-08  0.10566000000E+00  0.10566000000E+00 0.  1.
     999900   -1    0    0    0    0 -0.00000000000E+00 -0.00000000000E+00 -0.74505805969E-08  0.93827000000E+00  0.93827000000E+00 0.  1.
     999902    2    1    2    0    0  0.19128937477E-01  0.61985802710E-02  0.12820443989E-01  0.10200825173E+01  0.10198037261E+01 0.  0.
     999903    2    3    3    0    0  0.19631736699E-01  0.99659273777E-01  0.82453195681E-01  0.13239795952E+00  0.20330132101E-01 0.  0.
         14    1    1    2    0    0 -0.19128937477E-01 -0.61985802710E-02 -0.12820443989E-01  0.23847482686E-01  0.00000000000E+00 0. -1.
     999901    1    3    3    0    0 -0.50279922195E-03 -0.93460693506E-01 -0.69632751692E-01  0.88768455779E+00  0.88000000000E+00 0.  1.
        -11    1    4    4    0    0 -0.84994222593E-03  0.87455544971E-02  0.14486547152E-02  0.89200250410E-02  0.51100000000E-03 0.  1.
         11    1    4    4    0    0  0.20481678925E-01  0.90913719280E-01  0.81004540966E-01  0.12347793448E+00  0.51100000000E-03 0. -1.
</event>
<event>
 8    1  0.1042301E+005  0.1043930E+01  0.7957747E-01            NaN
         13   -1    0    0    0    0  0.00000000000E+00  0.00000000000E+00  0.74505805969E-08  0.10566000000E+00  0.10566000000E+00 0.  1.
     999900   -1    0    0    0    0 -0.00000000000E+00 -0.00000000000E+00 -0.74505805969E-08  0.93827000000E+00  0.93827000000E+00 0. -1.
     999902    2    1    2    0    0  0.60736243810E-02 -0.21913441815E-01  0.35828663537E-02  0.10209099049E+01  0.10206503364E+01 0.  0.
     999903    2    3    3    0    0  0.11593976151E+00  0.36631569859E-01 -0.44072897941E-01  0.13087105278E+00  0.20022784853E-01 0.  0.
         14    1    1    2    0    0 -0.60736243810E-02  0.21913441815E-01 -0.35828663537E-02  0.23020095061E-01  0.00000000000E+00 0. -1.
     999901    1    3    3    0    0 -0.10986613713E+00 -0.58545011674E-01  0.47655764294E-01  0.89003885216E+00  0.88000000000E+00 0. -1.
        -11    1    4    4    0    0  0.70817067440E-01  0.29289726301E-01 -0.35043799700E-01  0.84269057939E-01  0.51100000000E-03 0. -1.
         11    1    4    4    0    0  0.45122694073E-01  0.73418435582E-02 -0.90290982408E-02  0.46601994842E-01  0.51100000000E-03 0.  1.
</event>
<event>
 8    1  0.1042301E+005  0.1043930E+01  0.7957747E-01            NaN
         13   -1    0    0    0    0  0.00000000000E+00  0.00000000000E+00  0.74505805969E-08  0.10566000000E+00  0.10566000000E+00 0. -1.
     999900   -1    0    0    0    0 -0.00000000000E+00 -0.00000000000E+00 -0.74505805969E-08  0.93827000000E+00  0.93827000000E+00 0.  1.
     999902    2    1    2    0    0 -0.39387166732E-02  0.22982923281E-01 -0.20609784587E-02  0.10205211153E+01  0.10202526015E+01 0.  0.
     999903    2    3    3    0    0 -0.10913837131E+00  0.71989408195E-01  0.31128974657E-02  0.13288640895E+00  0.23567956371E-01 0.  0.
         14    1    1    2    0    0  0.39387166732E-02 -0.22982923281E-01  0.20609784587E-02  0.23408884718E-01  0.00000000000E+00 0. -1.
     999901    1    3    3    0    0  0.10519965464E+00 -0.49006484915E-01 -0.51738759244E-02  0.88763470634E+00  0.88000000000E+00 0.  1.
        -11    1    4    4    0    0 -0.31789127839E-01  0.34128795138E-01 -0.12032376158E-02  0.46658677736E-01  0.51100000000E-03 0. -1.
         11    1    4    4    0    0 -0.77349243470E-01  0.37860613057E-01  0.43161350816E-02  0.86227731210E-01  0.51100000000E-03 0.  1.
</event>
<event>
 8    1  0.1042301E+005  0.1043930E+01  0.7957747E-01            NaN
         13   -1    0    0    0    0  0.00000000000E+00  0.00000000000E+00  0.74505805969E-08  0.10566000000E+00  0.10566000000E+00 0.  1.
     999900   -1    0    0    0    0 -0.00000000000E+00 -0.00000000000E+00 -0.74505805969E-08  0.93827000000E+00  0.93827000000E+00 0. -1.
     999902    2    1    2    0    0  0.92583022750E-02 -0.20755412714E-01 -0.19138191111E-01  0.10142184925E+01  0.10137832001E+01 0.  0.
     999903    2    3    3    0    0 -0.73604504976E-01  0.13556258978E-01 -0.99484096414E-01  0.12601862754E+00  0.19550287421E-01 0.  0.
         14    1    1    2    0    0 -0.92583022750E-02  0.20755412714E-01  0.19138191111E-01  0.29711507483E-01  0.00000000000E+00 0.  1.
     999901    1    3    3    0    0  0.82862807251E-01 -0.34311671692E-01  0.80345905304E-01  0.88819986497E+00  0.88000000000E+00 0.  1.
        -11    1    4    4    0    0 -0.37231759355E-01  0.16292303074E-01 -0.47552364723E-01  0.62555028222E-01  0.51100000000E-03 0. -1.
         11    1    4    4    0    0 -0.36372745621E-01 -0.27360440963E-02 -0.51931731692E-01  0.63463599321E-01  0.51100000000E-03 0.  1.
</event>
<event>
 8    1  0.1042301E+005  0.1043930E+01  0.7957747E-01            NaN
         13   -1    0    0    0    0  0.00000000000E+00  0.00000000000E+00  0.74505805969E-08  0.10566000000E+00  0.10566000000E+00 0. -1.
     999900   -1    0    0    0    0 -0.00000000000E+00 -0.00000000000E+00 -0.74505805969E-08  0.93827000000E+00  0.93827000000E+00 0. -1.
     999902    2    1    2    0    0  0.99366751123E-02  0.51902245092E-02  0.21214499417E-01  0.10199356063E+01  0.10196533284E+01 0.  0.
     999903    2    3    3    0    0  0.12835746776E+00 -0.23958726767E-01 -0.39194548400E-02  0.13116968598E+00  0.11851762626E-01 0.  0.
         14    1    1    2    0    0 -0.99366751123E-02 -0.51902245092E-02 -0.21214499417E-01  0.23994393684E-01  0.00000000000E+00 0.  1.
     999901    1    3    3    0    0 -0.11842079264E+00  0.29148951276E-01  0.25133954257E-01  0.88876592033E+00  0.88000000000E+00 0. -1.
        -11    1    4    4    0    0  0.92151040877E-01 -0.22481790468E-01 -0.37461296763E-02  0.94929130649E-01  0.51100000000E-03 0. -1.
         11    1    4    4    0    0  0.36206426879E-01 -0.14769362990E-02 -0.17332516374E-03  0.36240555332E-01  0.51100000000E-03 0.  1.
</event>
<event>
 8    1  0.1042301E+005  0.1043930E+01  0.7957747E-01            NaN
         13   -1    0    0    0    0  0.00000000000E+00  0.00000000000E+00  0.74505805969E-08  0.10566000000E+00  0.10566000000E+00 0. -1.
     999900   -1    0    0    0    0 -0.00000000000E+00 -0.00000000000E+00 -0.74505805969E-08  0.93827000000E+00  0.93827000000E+00 0.  1.
     999902    2    1    2    0    0  0.22762091108E-01  0.41221631988E-02 -0.73577827944E-02  0.10196556928E+01  0.10193667102E+01 0.  0.
     999903    2    3    3    0    0 -0.60581668813E-01  0.95533375277E-01  0.57860727106E-01  0.12861380490E+00  0.19921914601E-01 0.  0.
         14    1    1    2    0    0 -0.22762091108E-01 -0.41221631988E-02  0.73577827944E-02  0.24274307172E-01  0.00000000000E+00 0. -1.
     999901    1    3    3    0    0  0.83343759921E-01 -0.91411212078E-01 -0.65218509900E-01  0.89104188793E+00  0.88000000000E+00 0.  1.
        -11    1    4    4    0    0 -0.31328316530E-01  0.65979096897E-01  0.32875360258E-01  0.80098408705E-01  0.51100000000E-03 0.  1.
         11    1    4    4    0    0 -0.29253352283E-01  0.29554278380E-01  0.24985366847E-01  0.48515396194E-01  0.51100000000E-03 0. -1.
</event>
<event>
 8    1  0.1042301E+005  0.1043930E+01  0.7957747E-01            NaN
         13   -1    0    0    0    0  0.00000000000E+00  0.00000000000E+00  0.74505805969E-08  0.10566000000E+00  0.10566000000E+00 0. -1.
     999900   -1    0    0    0    0 -0.00000000000E+00 -0.00000000000E+00 -0.74505805969E-08  0.93827000000E+00  0.93827000000E+00 0. -1.
     999902    2    1    2    0    0  0.24141164925E-02 -0.20969304759E-01  0.93709988916E-02  0.10208355132E+01  0.10205742451E+01 0.  0.
     999903    2    3    3    0    0  0.61924901426E-01  0.35522314697E-01 -0.10625752645E+00  0.12948665194E+00  0.19483399190E-01 0.  0.
         14    1    1    2    0    0 -0.24141164925E-02  0.20969304759E-01 -0.93709988916E-02  0.23094486804E-01  0.00000000000E+00 0. -1.
     999901    1    3    3    0    0 -0.59510784933E-01 -0.56491619455E-01  0.11562852535E+00  0.89134886126E+00  0.88000000000E+00 0.  1.
        -11    1    4    4    0    0  0.17865321443E-01  0.10595175112E-01 -0.16889423488E-01  0.26775757555E-01  0.51100000000E-03 0.  1.
         11    1    4    4    0    0  0.44059579983E-01  0.24927139585E-01 -0.89368102966E-01  0.10271089438E+00  0.51100000000E-03 0. -1.
</event>
<event>
 8    1  0.1042301E+005  0.1043930E+01  0.7957747E-01            NaN
         13   -1    0    0    0    0  0.00000000000E+00  0.00000000000E+00  0.74505805969E-08  0.10566000000E+00  0.10566000000E+00 0. -1.
     999900   -1    0    0    0    0 -0.00000000000E+00 -0.00000000000E+00 -0.74505805969E-08  0.93827000000E+00  0.93827000000E+00 0. -1.
     999902    2    1    2    0    0  0.22278653086E-01  0.19994755901E-02  0.85993752048E-02  0.10199657445E+01  0.10196841837E+01 0.  0.
     999903    2    3    3    0    0  0.80858959963E-01  0.94151000985E-01  0.41675485147E-01  0.13260021386E+00  0.21056786567E-01 0.  0.
         14    1    1    2    0    0 -0.22278653086E-01 -0.19994755901E-02 -0.85993752048E-02  0.23964255463E-01  0.00000000000E+00 0. -1.
     999901    1    3    3    0    0 -0.58580306877E-01 -0.92151525395E-01 -0.33076109942E-01  0.88736553068E+00  0.88000000000E+00 0. -1.
        -11    1    4    4    0    0  0.48522843828E-01  0.43633734123E-01  0.28379257041E-01  0.71161875171E-01  0.51100000000E-03 0.  1.
         11    1    4    4    0    0  0.32336116135E-01  0.50517266862E-01  0.13296228106E-01  0.61438338688E-01  0.51100000000E-03 0. -1.
</event>
<event>
 8    1  0.1042301E+005  0.1043930E+01  0.7957747E-01            NaN
         13   -1    0    0    0    0  0.00000000000E+00  0.00000000000E+00  0.74505805969E-08  0.10566000000E+00  0.10566000000E+00 0.  1.
     999900   -1    0    0    0    0 -0.00000000000E+00 -0.00000000000E+00 -0.74505805969E-08  0.93827000000E+00  0.93827000000E+00 0.  1.
     999902    2    1    2    0    0 -0.13422439618E-01  0.10299366050E-01 -0.15948137386E-01  0.10206795825E+01  0.10204147335E+01 0.  0.
     999903    2    3    3    0    0  0.10099542853E+00  0.14765275887E-01  0.75380142475E-01  0.12857406882E+00  0.20761390543E-01 0.  0.
         14    1    1    2    0    0  0.13422439618E-01 -0.10299366050E-01  0.15948137386E-01  0.23250417467E-01  0.00000000000E+00 0.  1.
     999901    1    3    3    0    0 -0.11441786814E+00 -0.44659098369E-02 -0.91328279860E-01  0.89210551372E+00  0.88000000000E+00 0.  1.
        -11    1    4    4    0    0  0.65778586841E-01  0.42024920310E-03  0.52755262967E-01  0.84323057273E-01  0.51100000000E-03 0.  1.
         11    1    4    4    0    0  0.35216841685E-01  0.14345026684E-01  0.22624879507E-01  0.44251011543E-01  0.51100000000E-03 0. -1.
</event>
<event>
 8    1  0.1042301E+005  0.1043930E+01  0.7957747E-01            NaN
         13   -1    0    0    0    0  0.00000000000E+00  0.00000000000E+00  0.74505805969E-08  0.10566000000E+00  0.10566000000E+00 0.  1.
     999900   -1    0    0    0    0 -0.00000000000E+00 -0.00000000000E+00 -0.74505805969E-08  0.93827000000E+00  0.93827000000E+00 0.  1.
     999902    2    1    2    0    0  0.70785526076E-02 -0.16658337069E-01 -0.14208174662E-01  0.10209196039E+01  0.10206602566E+01 0.  0.
     999903    2    3    3    0    0 -0.91767017527E-01 -0.85476765216E-01 -0.37177790388E-01  0.13241860446E+00  0.20616396640E-01 0.  0.
         14    1    1    2    0    0 -0.70785526076E-02  0.16658337069E-01  0.14208174662E-01  0.23010396088E-01  0.00000000000E+00 0.  1.
     999901    1    3    3    0    0  0.98845570134E-01  0.68818428147E-01  0.22969615726E-01  0.88850099946E+00  0.88000000000E+00 0. -1.
        -11    1    4    4    0    0 -0.46592420376E-01 -0.55336425335E-01 -0.26682006128E-01  0.77104890749E-01  0.51100000000E-03 0.  1.
         11    1    4    4    0    0 -0.45174597151E-01 -0.30140339881E-01 -0.10495784260E-01  0.55313713707E-01  0.51100000000E-03 0. -1.
</event>
<event>
 8    1  0.1042301E+005  0.1043930E+01  0.7957747E-01            NaN
         13   -1    0    0    0    0  0.00000000000E+00  0.00000000000E+00  0.74505805969E-08  0.10566000000E+00  0.10566000000E+00 0. -1.
     999900   -1    0    0    0    0 -0.00000000000E+00 -0.00000000000E+00 -0.74505805969E-08  0.93827000000E+00  0.93827000000E+00 0.  1.
     999902    2    1    2    0    0  0.69416305404E-02 -0.38997191736E-02 -0.23294012550E-01  0.10193128299E+01  0.10190155249E+01 0.  0.
     999903    2    3    3    0    0  0.12751418363E+00 -0.16331949159E-01  0.11163332948E-01  0.13033610939E+00  0.18337988423E-01 0.  0.
         14    1    1    2    0    0 -0.69416305404E-02  0.38997191736E-02  0.23294012550E-01  0.24617170123E-01  0.00000000000E+00 0. -1.
     999901    1    3    3    0    0 -0.12057255309E+00  0.12432229986E-01 -0.34457345498E-01  0.88897672048E+00  0.88000000000E+00 0.  1.
        -11    1    4    4    0    0  0.72643758869E-01 -0.18161989706E-01  0.85894637223E-02  0.75372498836E-01  0.51100000000E-03 0.  1.
         11    1    4    4    0    0  0.54870424761E-01  0.18300405473E-02  0.25738692259E-02  0.54963610559E-01  0.51100000000E-03 0. -1.
</event>
<event>
 8    1  0.1042301E+005  0.1043930E+01  0.7957747E-01            NaN
         13   -1    0    0    0    0  0.00000000000E+00  0.00000000000E+00  0.74505805969E-08  0.10566000000E+00  0.10566000000E+00 0. -1.
     999900   -1    0    0    0    0 -0.00000000000E+00 -0.00000000000E+00 -0.74505805969E-08  0.93827000000E+00  0.93827000000E+00 0.  1.
     999902    2    1    2    0    0  0.13661349492E-01 -0.26895812742E-02 -0.19377960833E-01  0.10200684895E+01  0.10197893663E+01 0.  0.
     999903    2    3    3    0    0 -0.29379484684E-01 -0.49692498710E-01 -0.11718764272E+00  0.13235878384E+00  0.21293320674E-01 0.  0.
         14    1    1    2    0    0 -0.13661349492E-01  0.26895812742E-02  0.19377960833E-01  0.23861510502E-01  0.00000000000E+00 0.  1.
     999901    1    3    3    0    0  0.43040834177E-01  0.47002917436E-01  0.97809681882E-01  0.88770970566E+00  0.88000000000E+00 0.  1.
        -11    1    4    4    0    0 -0.24876337204E-01 -0.22518975116E-01 -0.71978137919E-01  0.79416936810E-01  0.51100000000E-03 0. -1.
         11    1    4    4    0    0 -0.45031474808E-02 -0.27173523594E-01 -0.45209504796E-01  0.52941847028E-01  0.51100000000E-03 0.  1.
</event>
<event>
 8    1  0.1042301E+005  0.1043930E+01  0.7957747E-01            NaN
         13   -1    0    0    0    0  0.00000000000E+00  0.00000000000E+00  0.74505805969E-08  0.10566000000E+00  0.10566000000E+00 0. -1.
     999900   -1    0    0    0    0 -0.00000000000E+00 -0.00000000000E+00 -0.74505805969E-08  0.93827000000E+00  0.93827000000E+00 0.  1.
     999902    2    1    2    0    0 -0.19461907246E-01 -0.69002339854E-02 -0.11368374804E-01  0.10203584280E+01  0.10200861250E+01 0.  0.
     999903    2    3    3    0    0 -0.11366098171E-01  0.82848138543E-01 -0.99401609099E-01  0.13138702075E+00  0.19719713047E-01 0.  0.
         14    1    1    2    0    0  0.19461907246E-01  0.69002339854E-02  0.11368374804E-01  0.23571572039E-01  0.00000000000E+00 0. -1.
     999901    1    3    3    0    0 -0.80958090753E-02 -0.89748372528E-01  0.88033234295E-01  0.88897140721E+00  0.88000000000E+00 0. -1.
        -11    1    4    4    0    0 -0.14448588006E-01  0.75913525800E-01 -0.95464340738E-01  0.12282233742E+00  0.51100000000E-03 0. -1.
         11    1    4    4    0    0  0.30824898354E-02  0.69346127431E-02 -0.39372683609E-02  0.85646833349E-02  0.51100000000E-03 0.  1.
</event>
<event>
 8    1  0.1042301E+005  0.1043930E+01  0.7957747E-01            NaN
         13   -1    0    0    0    0  0.00000000000E+00  0.00000000000E+00  0.74505805969E-08  0.10566000000E+00  0.10566000000E+00 0. -1.
     999900   -1    0    0    0    0 -0.00000000000E+00 -0.00000000000E+00 -0.74505805969E-08  0.93827000000E+00  0.93827000000E+00 0. -1.
     999902    2    1    2    0    0  0.16472061332E-02 -0.31200957652E-01  0.24010175169E-02  0.10125934729E+01  0.10121084741E+01 0.  0.
     999903    2    3    3    0    0  0.46418450752E-01 -0.24041681206E-01  0.11156874678E+00  0.12468958580E+00  0.19163312490E-01 0.  0.
         14    1    1    2    0    0 -0.16472061332E-02  0.31200957652E-01 -0.24010175169E-02  0.31336527114E-01  0.00000000000E+00 0. -1.
     999901    1    3    3    0    0 -0.44771244619E-01 -0.71592764457E-02 -0.10916772926E+00  0.88790388708E+00  0.88000000000E+00 0. -1.
        -11    1    4    4    0    0  0.31204315380E-01 -0.22083964833E-01  0.62397718152E-01  0.73178870944E-01  0.51100000000E-03 0.  1.
         11    1    4    4    0    0  0.15214135372E-01 -0.19577163730E-02  0.49171028623E-01  0.51510714860E-01  0.51100000000E-03 0. -1.
</event>
<event>
 8    1  0.1042301E+005  0.1043930E+01  0.7957747E-01            NaN
         13   -1    0    0    0    0  0.00000000000E+00  0.00000000000E+00  0.74505805969E-08  0.10566000000E+00  0.10566000000E+00 0.  1.
     999900   -1    0    0    0    0 -0.00000000000E+00 -0.00000000000E+00 -0.74505805969E-08  0.93827000000E+00  0.93827000000E+00 0.  1.
     999902    2    1    2    0    0  0.14468414162E-02 -0.45738524119E-02 -0.22864397533E-01  0.10205677623E+01  0.10203003299E+01 0.  0.
     999903    2    3    3    0    0  0.11413103440E+00  0.11183224787E-01  0.56391284336E-01  0.12971004305E+00  0.22220728811E-01 0.  0.
         14    1    1    2    0    0 -0.14468414162E-02  0.45738524119E-02  0.22864397533E-01  0.23362237704E-01  0.00000000000E+00 0.  1.
     999901    1    3    3    0    0 -0.11268419299E+00 -0.15757077199E-01 -0.79255681869E-01  0.89085771925E+00  0.88000000000E+00 0.  1.
        -11    1    4    4    0    0  0.45928333350E-01  0.13111180242E-02  0.34301467469E-01  0.57340933254E-01  0.51100000000E-03 0. -1.
         11    1    4    4    0    0  0.68202701051E-01  0.98721067628E-02  0.22089816867E-01  0.72369109797E-01  0.51100000000E-03 0.  1.
</event>
<event>
 8    1  0.1042301E+005  0.1043930E+01  0.7957747E-01            NaN
         13   -1    0    0    0    0  0.00000000000E+00  0.00000000000E+00  0.74505805969E-08  0.10566000000E+00  0.10566000000E+00 0. -1.
     999900   -1    0    0    0    0 -0.00000000000E+00 -0.00000000000E+00 -0.74505805969E-08  0.93827000000E+00  0.93827000000E+00 0.  1.
     999902    2    1    2    0    0 -0.88662753219E-02 -0.11315257305E-01  0.17298035393E-01  0.10214384924E+01  0.10211908371E+01 0.  0.
     999903    2    3    3    0    0 -0.20851586424E-01  0.17629917613E-01 -0.12501649274E+00  0.12945480658E+00  0.19591346033E-01 0.  0.
         14    1    1    2    0    0  0.88662753219E-02  0.11315257305E-01 -0.17298035393E-01  0.22491507607E-01  0.00000000000E+00 0.  1.
     999901    1    3    3    0    0  0.11985311102E-01 -0.28945174918E-01  0.14231452813E+00  0.89198368581E+00  0.88000000000E+00 0. -1.
        -11    1    4    4    0    0 -0.13909993576E-01  0.36950776409E-02 -0.31319874966E-01  0.34472267244E-01  0.51100000000E-03 0.  1.
         11    1    4    4    0    0 -0.69415928484E-02  0.13934839972E-01 -0.93696617773E-01  0.94982539339E-01  0.51100000000E-03 0. -1.
</event>
<event>
 8    1  0.1042301E+005  0.1043930E+01  0.7957747E-01            NaN
         13   -1    0    0    0    0  0.00000000000E+00  0.00000000000E+00  0.74505805969E-08  0.10566000000E+00  0.10566000000E+00 0. -1.
     999900   -1    0    0    0    0 -0.00000000000E+00 -0.00000000000E+00 -0.74505805969E-08  0.93827000000E+00  0.93827000000E+00 0. -1.
     999902    2    1    2    0    0  0.29547337339E-02  0.21568597761E-01 -0.80096663150E-03  0.10221452253E+01  0.10219130517E+01 0.  0.
     999903    2    3    3    0    0 -0.12391800636E+00 -0.24066480107E-01  0.30139774370E-01  0.13133852239E+00  0.20162680869E-01 0.  0.
         14    1    1    2    0    0 -0.29547337339E-02 -0.21568597761E-01  0.80096663150E-03  0.21784774691E-01  0.00000000000E+00 0. -1.
     999901    1    3    3    0    0  0.12687274009E+00  0.45635077867E-01 -0.30940741001E-01  0.89080670292E+00  0.88000000000E+00 0. -1.
        -11    1    4    4    0    0 -0.52511579565E-01 -0.15298905600E-01  0.21920098346E-01  0.58926007276E-01  0.51100000000E-03 0.  1.
         11    1    4    4    0    0 -0.71406426794E-01 -0.87675745070E-02  0.82196760232E-02  0.72412515114E-01  0.51100000000E-03 0. -1.
</event>
<event>
 8    1  0.1042301E+005  0.1043930E+01  0.7957747E-01            NaN
         13   -1    0    0    0    0  0.00000000000E+00  0.00000000000E+00  0.74505805969E-08  0.10566000000E+00  0.10566000000E+00 0.  1.
     999900   -1    0    0    0    0 -0.00000000000E+00 -0.00000000000E+00 -0.74505805969E-08  0.93827000000E+00  0.93827000000E+00 0. -1.
     999902    2    1    2    0    0  0.45976344559E-02 -0.11635687515E-01  0.18411710458E-01  0.10216697541E+01  0.10214272210E+01 0.  0.
     999903    2    3    3    0    0 -0.99814291974E-01 -0.66930708051E-01 -0.48583169433E-01  0.13124979495E+00  0.20580859082E-01 0.  0.
         14    1    1    2    0    0 -0.45976344559E-02  0.11635687515E-01 -0.18411710458E-01  0.22260245922E-01  0.00000000000E+00 0. -1.
     999901    1    3    3    0    0  0.10441192643E+00  0.55295020536E-01  0.66994879890E-01  0.89041995913E+00  0.88000000000E+00 0.  1.
        -11    1    4    4    0    0 -0.57912243973E-01 -0.30637255128E-01 -0.34521828754E-01  0.74057323644E-01  0.51100000000E-03 0. -1.
         11    1    4    4    0    0 -0.41902048001E-01 -0.36293452923E-01 -0.14061340679E-01  0.57192471309E-01  0.51100000000E-03 0.  1.
</event>
<event>
 8    1  0.1042301E+005  0.1043930E+01  0.7957747E-01            NaN
         13   -1    0    0    0    0  0.00000000000E+00  0.00000000000E+00  0.74505805969E-08  0.10566000000E+00  0.10566000000E+00 0.  1.
     999900   -1    0    0    0    0 -0.00000000000E+00 -0.00000000000E+00 -0.74505805969E-08  0.93827000000E+00  0.93827000000E+00 0. -1.
     999902    2    1    2    0    0  0.36030920295E-03 -0.19018182258E-01 -0.14472353659E-01  0.10200287427E+01  0.10197486778E+01 0.  0.
     999903    2    3    3    0    0 -0.36096508305E-01  0.10934129949E+00  0.51273820312E-01  0.12754467256E+00  0.19497722006E-01 0.  0.
         14    1    1    2    0    0 -0.36030920295E-03  0.19018182258E-01  0.14472353659E-01  0.23901257280E-01  0.00000000000E+00 0. -1.
     999901    1    3    3    0    0  0.36456817508E-01 -0.12835948175E+00 -0.65746173971E-01  0.89248407016E+00  0.88000000000E+00 0. -1.
        -11    1    4    4    0    0 -0.17439181627E-01  0.71234451330E-01  0.40443839271E-01  0.83752237989E-01  0.51100000000E-03 0.  1.
         11    1    4    4    0    0 -0.18657326678E-01  0.38106848159E-01  0.10829981040E-01  0.43792434572E-01  0.51100000000E-03 0. -1.
</event>
<event>
 8    1  0.1042301E+005  0.1043930E+01  0.7957747E-01            NaN
         13   -1    0    0    0    0  0.00000000000E+00  0.00000000000E+00  0.74505805969E-08  0.10566000000E+00  0.10566000000E+00 0. -1.
     999900   -1    0    0    0    0 -0.00000000000E+00 -0.00000000000E+00 -0.74505805969E-08  0.93827000000E+00  0.93827000000E+00 0. -1.
     999902    2    1    2    0    0  0.16461356592E-01  0.14941470332E-01 -0.74821602532E-02  0.10204735186E+01  0.10202038991E+01 0.  0.
     999903    2    3    3    0    0  0.37872891482E-01 -0.29843440324E-01 -0.12111050512E+00  0.13178035290E+00  0.19321493728E-01 0.  0.
         14    1    1    2    0    0 -0.16461356592E-01 -0.14941470332E-01  0.74821602532E-02  0.23456481377E-01  0.00000000000E+00 0.  1.
     999901    1    3    3    0    0 -0.21411534890E-01  0.44784910656E-01  0.11362834487E+00  0.88869316572E+00  0.88000000000E+00 0.  1.
        -11    1    4    4    0    0  0.43243287012E-02  0.23786592231E-02 -0.17816625623E-01  0.18494623760E-01  0.51100000000E-03 0. -1.
         11    1    4    4    0    0  0.33548562781E-01 -0.32222099547E-01 -0.10329387950E+00  0.11328572914E+00  0.51100000000E-03 0.  1.
</event>
<event>
 8    1  0.1042301E+005  0.1043930E+01  0.7957747E-01            NaN
         13   -1    0    0    0    0  0.00000000000E+00  0.00000000000E+00  0.74505805969E-08  0.10566000000E+00  0.10566000000E+00 0. -1.
     999900   -1    0    0    0    0 -0.00000000000E+00 -0.00000000000E+00 -0.74505805969E-08  0.93827000000E+00  0.93827000000E+00 0.  1.
     999902    2    1    2    0    0 -0.14805542318E-01  0.88286985667E-02  0.14225425712E-01  0.10215802184E+01  0.10213357087E+01 0.  0.
     999903    2    3    3    0    0  0.94150336468E-01  0.54394434029E-01 -0.65005381599E-01  0.13016272888E+00  0.29893076806E-01 0.  0.
         14    1    1    2    0    0  0.14805542318E-01 -0.88286985667E-02 -0.14225425712E-01  0.22349781619E-01  0.00000000000E+00 0.  1.
     999901    1    3    3    0    0 -0.10895587879E+00 -0.45565735462E-01  0.79230807311E-01  0.89141748951E+00  0.88000000000E+00 0. -1.
        -11    1    4    4    0    0  0.25668581291E-01  0.23541206662E-01 -0.34698559541E-01  0.49166204163E-01  0.51100000000E-03 0. -1.
         11    1    4    4    0    0  0.68481755178E-01  0.30853227367E-01 -0.30306822059E-01  0.80996524712E-01  0.51100000000E-03 0.  1.
</event>
<event>
 8    1  0.1042301E+005  0.1043930E+01  0.7957747E-01            NaN
         13   -1    0    0    0    0  0.00000000000E+00  0.00000000000E+00  0.74505805969E-08  0.10566000000E+00  0.10566000000E+00 0.  1.
     999900   -1    0    0    0    0 -0.00000000000E+00 -0.00000000000E+00 -0.74505805969E-08  0.93827000000E+00  0.93827000000E+00 0.  1.
     999902    2    1    2    0    0 -0.14874429774E-01  0.16377942251E-01  0.85470465500E-02  0.10202121237E+01  0.10199363900E+01 0.  0.
     999903    2    3    3    0    0  0.91007467345E-01 -0.56389375514E-01 -0.66755644337E-01  0.12770074898E+00  0.19724209895E-01 0.  0.
         14    1    1    2    0    0  0.14874429774E-01 -0.16377942251E-01 -0.85470465500E-02  0.23717876343E-01  0.00000000000E+00 0. -1.
     999901    1    3    3    0    0 -0.10588189712E+00  0.72767317765E-01  0.75302690887E-01  0.89251137468E+00  0.88000000000E+00 0. -1.
        -11    1    4    4    0    0  0.29106409046E-01 -0.80972480641E-02 -0.21437632291E-01  0.37048369371E-01  0.51100000000E-03 0. -1.
         11    1    4    4    0    0  0.61901058299E-01 -0.48292127450E-01 -0.45318012045E-01  0.90652379610E-01  0.51100000000E-03 0.  1.
</event>
<event>
 8    1  0.1042301E+005  0.1043930E+01  0.7957747E-01            NaN
         13   -1    0    0    0    0  0.00000000000E+00  0.00000000000E+00  0.74505805969E-08  0.10566000000E+00  0.10566000000E+00 0. -1.
     999900   -1    0    0    0    0 -0.00000000000E+00 -0.00000000000E+00 -0.74505805969E-08  0.93827000000E+00  0.93827000000E+00 0.  1.
     999902    2    1    2    0    0 -0.52385681916E-03 -0.97151937225E-02 -0.21590358010E-01  0.10202487210E+01  0.10199738476E+01 0.  0.
     999903    2    3    3    0    0 -0.21733362951E-01  0.12196051178E+00 -0.34515406609E-01  0.13010525424E+00  0.19732166380E-01 0.  0.
         14    1    1    2    0    0  0.52385681916E-03  0.97151937225E-02  0.21590358010E-01  0.23681278978E-01  0.00000000000E+00 0. -1.
     999901    1    3    3    0    0  0.21209506131E-01 -0.13167570550E+00  0.12925048600E-01  0.89014346678E+00  0.88000000000E+00 0. -1.
        -11    1    4    4    0    0 -0.11011151839E-01  0.52363271597E-01 -0.24938516373E-01  0.59036839321E-01  0.51100000000E-03 0. -1.
         11    1    4    4    0    0 -0.10722211112E-01  0.69597240180E-01 -0.95768902360E-02  0.71068414921E-01  0.51100000000E-03 0.  1.
</event>
<event>
 8    1  0.1042301E+005  0.1043930E+01  0.7957747E-01            NaN
         13   -1    0    0    0    0  0.00000000000E+00  0.00000000000E+00  0.74505805969E-08  0.10566000000E+00  0.10566000000E+00 0. -1.
     999900   -1    0    0    0    0 -0.00000000000E+00 -0.00000000000E+00 -0.74505805969E-08  0.93827000000E+00  0.93827000000E+00 0.  1.
     999902    2    1    2    0    0 -0.65935819313E-02  0.11696685859E-01  0.20011393384E-01  0.10198313766E+01  0.10195466116E+01 0.  0.
     999903    2    3    3    0    0 -0.79460954781E-01 -0.29862038358E-01  0.99460850437E-01  0.13227912589E+00  0.19988039088E-01 0.  0.
         14    1    1    2    0    0  0.65935819313E-02 -0.11696685859E-01 -0.20011393384E-01  0.24098623362E-01  0.00000000000E+00 0.  1.
     999901    1    3    3    0    0  0.72867372849E-01  0.41558724217E-01 -0.79449457054E-01  0.88755225075E+00  0.88000000000E+00 0.  1.
        -11    1    4    4    0    0 -0.73205039495E-03  0.11456913987E-02  0.61330958180E-02  0.63027368559E-02  0.51100000000E-03 0.  1.
         11    1    4    4    0    0 -0.78728904386E-01 -0.31007729757E-01  0.93327754619E-01  0.12597638903E+00  0.51100000000E-03 0. -1.
</event>
<event>
 8    1  0.1042301E+005  0.1043930E+01  0.7957747E-01            NaN
         13   -1    0    0    0    0  0.00000000000E+00  0.00000000000E+00  0.74505805969E-08  0.10566000000E+00  0.10566000000E+00 0. -1.
     999900   -1    0    0    0    0 -0.00000000000E+00 -0.00000000000E+00 -0.74505805969E-08  0.93827000000E+00  0.93827000000E+00 0. -1.
     999902    2    1    2    0    0  0.87707031745E-02  0.18958908470E-01 -0.91987888972E-02  0.10211049444E+01  0.10208498050E+01 0.  0.
     999903    2    3    3    0    0  0.10959953598E+00 -0.57079934441E-01 -0.40346645612E-01  0.13154407067E+00  0.20144813535E-01 0.  0.
         14    1    1    2    0    0 -0.87707031745E-02 -0.18958908470E-01  0.91987888972E-02  0.22825055569E-01  0.00000000000E+00 0. -1.
     999901    1    3    3    0    0 -0.10082883281E+00  0.76038842911E-01  0.31147856715E-01  0.88956087377E+00  0.88000000000E+00 0.  1.
        -11    1    4    4    0    0  0.66350157899E-01 -0.45346366526E-01 -0.27051067285E-01  0.84797746271E-01  0.51100000000E-03 0.  1.
         11    1    4    4    0    0  0.43249378081E-01 -0.11733567915E-01 -0.13295578327E-01  0.46746324395E-01  0.51100000000E-03 0. -1.
</event>
<event>
 8    1  0.1042301E+005  0.1043930E+01  0.7957747E-01            NaN
         13   -1    0    0    0    0  0.00000000000E+00  0.00000000000E+00  0.74505805969E-08  0.10566000000E+00  0.10566000000E+00 0. -1.
     999900   -1    0    0    0    0 -0.00000000000E+00 -0.00000000000E+00 -0.74505805969E-08  0.93827000000E+00  0.93827000000E+00 0.  1.
     999902    2    1    2    0    0 -0.17672378053E-01  0.12700973983E-01 -0.13066155358E-02  0.10221278228E+01  0.10218952741E+01 0.  0.
     999903    2    3    3    0    0  0.99923478015E-01  0.76437122896E-01  0.32066360796E-01  0.13139506963E+00  0.20225667158E-01 0.  0.
         14    1    1    2    0    0  0.17672378053E-01 -0.12700973983E-01  0.13066155358E-02  0.21802177192E-01  0.00000000000E+00 0.  1.
     999901    1    3    3    0    0 -0.11759585607E+00 -0.63736148914E-01 -0.33372976332E-01  0.89073275318E+00  0.88000000000E+00 0.  1.
        -11    1    4    4    0    0  0.50399308848E-01  0.26795260329E-01  0.18211424626E-01  0.59916553776E-01  0.51100000000E-03 0. -1.
         11    1    4    4    0    0  0.49524169166E-01  0.49641862568E-01  0.13854936170E-01  0.71478515850E-01  0.51100000000E-03 0.  1.
</event>
<event>
 8    1  0.1042301E+005  0.1043930E+01  0.7957747E-01            NaN
         13   -1    0    0    0    0  0.00000000000E+00  0.00000000000E+00  0.74505805969E-08  0.10566000000E+00  0.10566000000E+00 0.  1.
     999900   -1    0    0    0    0 -0.00000000000E+00 -0.00000000000E+00 -0.74505805969E-08  0.93827000000E+00  0.93827000000E+00 0. -1.
     999902    2    1    2    0    0  0.13082855361E-01  0.16668772579E-01  0.11040186810E-01  0.10200365949E+01  0.10197567161E+01 0.  0.
     999903    2    3    3    0    0  0.80413859480E-01  0.77224413516E-01 -0.67632191646E-01  0.13189820876E+00  0.19824865372E-01 0.  0.
         14    1    1    2    0    0 -0.13082855361E-01 -0.16668772579E-01 -0.11040186810E-01  0.23893405125E-01  0.00000000000E+00 0. -1.
     999901    1    3    3    0    0 -0.67331004118E-01 -0.60555640937E-01  0.78672378456E-01  0.88813838612E+00  0.88000000000E+00 0.  1.
        -11    1    4    4    0    0  0.19696704094E-01  0.10039365407E-01 -0.82250863721E-02  0.23593689342E-01  0.51100000000E-03 0. -1.
         11    1    4    4    0    0  0.60717155385E-01  0.67185048109E-01 -0.59407105274E-01  0.10830451941E+00  0.51100000000E-03 0.  1.
</event>
<event>
 8    1  0.1042301E+005  0.1043930E+01  0.7957747E-01            NaN
         13   -1    0    0    0    0  0.00000000000E+00  0.00000000000E+00  0.74505805969E-08  0.10566000000E+00  0.10566000000E+00 0. -1.
     999900   -1    0    0    0    0 -0.00000000000E+00 -0.00000000000E+00 -0.74505805969E-08  0.93827000000E+00  0.93827000000E+00 0. -1.
     999902    2    1    2    0    0 -0.76009818709E-02  0.15980377667E-01  0.16139356327E-01  0.10199795048E+01  0.10196982711E+01 0.  0.
     999903    2    3    3    0    0 -0.43321185326E-01  0.74015800791E-01 -0.95975827337E-01  0.13025266042E+00  0.19983299244E-01 0.  0.
         14    1    1    2    0    0  0.76009818709E-02 -0.15980377667E-01 -0.16139356327E-01  0.23950495161E-01  0.00000000000E+00 0.  1.
     999901    1    3    3    0    0  0.35720203455E-01 -0.58035423124E-01  0.11211518366E+00  0.88972684442E+00  0.88000000000E+00 0.  1.
        -11    1    4    4    0    0 -0.35346243040E-01  0.55373802310E-01 -0.60091779946E-01  0.89033128763E-01  0.51100000000E-03 0.  1.
         11    1    4    4    0    0 -0.79749422858E-02  0.18641998481E-01 -0.35884047391E-01  0.41219531657E-01  0.51100000000E-03 0. -1.
</event>
<event>
 8    1  0.1054906E+005  0.1043930E+01  0.7957747E-01            NaN
         13   -1    0    0    0    0  0.00000000000E+00  0.00000000000E+00  0.74505805969E-08  0.10566000000E+00  0.10566000000E+00 0. -1.
     999900   -1    0    0    0    0 -0.00000000000E+00 -0.00000000000E+00 -0.74505805969E-08  0.93827000000E+00  0.93827000000E+00 0.  1.
     999902    2    1    2    0    0 -0.15533115879E-01  0.17922417133E-01  0.50364930673E-02  0.10196842377E+01  0.10193959426E+01 0.  0.
     999903    2    3    3    0    0  0.83169905122E-02  0.53142700444E-01 -0.11752100980E+00  0.13017333987E+00  0.15511019528E-01 0.  0.
         14    1    1    2    0    0  0.15533115879E-01 -0.17922417133E-01 -0.50364930673E-02  0.24245762253E-01  0.00000000000E+00 0.  1.
     999901    1    3    3    0    0 -0.23850106391E-01 -0.35220283311E-01  0.12255750287E+00  0.88951089788E+00  0.88000000000E+00 0. -1.
        -11    1    4    4    0    0  0.10099106629E-02  0.13613106336E-01 -0.47571242396E-01  0.49493644114E-01  0.51100000000E-03 0.  1.
         11    1    4    4    0    0  0.73070798493E-02  0.39529594108E-01 -0.69949767405E-01  0.80679695756E-01  0.51100000000E-03 0. -1.
</event>
<event>
 8    1  0.1042301E+005  0.1043930E+01  0.7957747E-01            NaN
         13   -1    0    0    0    0  0.00000000000E+00  0.00000000000E+00  0.74505805969E-08  0.10566000000E+00  0.10566000000E+00 0. -1.
     999900   -1    0    0    0    0 -0.00000000000E+00 -0.00000000000E+00 -0.74505805969E-08  0.93827000000E+00  0.93827000000E+00 0.  1.
     999902    2    1    2    0    0  0.47627134454E-02  0.19690436039E-01 -0.12192730248E-01  0.10202855634E+01  0.10200115546E+01 0.  0.
     999903    2    3    3    0    0 -0.25120245139E-01  0.56150619712E-03  0.12497551971E+00  0.12895283319E+00  0.19457920099E-01 0.  0.
         14    1    1    2    0    0 -0.47627134454E-02 -0.19690436039E-01  0.12192730248E-01  0.23644436591E-01  0.00000000000E+00 0. -1.
     999901    1    3    3    0    0  0.29882958585E-01  0.19128929842E-01 -0.13716824996E+00  0.89133273022E+00  0.88000000000E+00 0.  1.
        -11    1    4    4    0    0 -0.52906482330E-02 -0.77112139487E-02  0.25083934227E-01  0.26775336723E-01  0.51100000000E-03 0. -1.
         11    1    4    4    0    0 -0.19829596906E-01  0.82727201459E-02  0.99891585484E-01  0.10217749646E+00  0.51100000000E-03 0.  1.
</event>
<event>
 8    1  0.1042301E+005  0.1043930E+01  0.7957747E-01            NaN
         13   -1    0    0    0    0  0.00000000000E+00  0.00000000000E+00  0.74505805969E-08  0.10566000000E+00  0.10566000000E+00 0. -1.
     999900   -1    0    0    0    0 -0.00000000000E+00 -0.00000000000E+00 -0.74505805969E-08  0.93827000000E+00  0.93827000000E+00 0.  1.
     999902    2    1    2    0    0 -0.22592357278E-01 -0.63886890670E-02 -0.52644532523E-02  0.10198687360E+01  0.10195848637E+01 0.  0.
     999903    2    3    3    0    0 -0.12708983589E+00  0.45160105664E-02  0.30978012520E-01  0.13287823336E+00  0.22907791327E-01 0.  0.
         14    1    1    2    0    0  0.22592357278E-01  0.63886890670E-02  0.52644532523E-02  0.24061263961E-01  0.00000000000E+00 0. -1.
     999901    1    3    3    0    0  0.10449747862E+00 -0.10904699633E-01 -0.36242465772E-01  0.88699050268E+00  0.88000000000E+00 0. -1.
        -11    1    4    4    0    0 -0.81829888350E-01 -0.79645928645E-02  0.21432478535E-01  0.84965743827E-01  0.51100000000E-03 0.  1.
         11    1    4    4    0    0 -0.45259947543E-01  0.12480603431E-01  0.95455339851E-02  0.47912489537E-01  0.51100000000E-03 0. -1.
</event>
<event>
 8    1  0.1042301E+005  0.1043930E+01  0.7957747E-01            NaN
         13   -1    0    0    0    0  0.00000000000E+00  0.00000000000E+00  0.74505805969E-08  0.10566000000E+00  0.10566000000E+00 0.  1.
     999900   -1    0    0    0    0 -0.00000000000E+00 -0.00000000000E+00 -0.74505805969E-08  0.93827000000E+00  0.93827000000E+00 0.  1.
     999902    2    1    2    0    0 -0.22553495825E-01  0.21287319638E-02 -0.83024793401E-02  0.10198027781E+01  0.10195173286E+01 0.  0.
     999903    2    3    3    0    0  0.63314970923E-01  0.32297923478E-01 -0.10660690057E+00  0.12966383785E+00  0.19893169520E-01 0.  0.
         14    1    1    2    0    0  0.22553495825E-01 -0.21287319638E-02  0.83024793401E-02  0.24127221906E-01  0.00000000000E+00 0.  1.
     999901    1    3    3    0    0 -0.85868466748E-01 -0.30169191515E-01  0.98304421231E-01  0.89013894024E+00  0.88000000000E+00 0. -1.
        -11    1    4    4    0    0  0.95025883531E-02  0.72314922313E-02 -0.74203164108E-02  0.14068257957E-01  0.51100000000E-03 0.  1.
         11    1    4    4    0    0  0.53812382570E-01  0.25066431247E-01 -0.99186584160E-01  0.11559557990E+00  0.51100000000E-03 0. -1.
</event>
<event>
 8    1  0.1042301E+005  0.1043930E+01  0.7957747E-01            NaN
         13   -1    0    0    0    0  0.00000000000E+00  0.00000000000E+00  0.74505805969E-08  0.10566000000E+00  0.10566000000E+00 0.  1.
     999900   -1    0    0    0    0 -0.00000000000E+00 -0.00000000000E+00 -0.74505805969E-08  0.93827000000E+00  0.93827000000E+00 0. -1.
     999902    2    1    2    0    0  0.22460517635E-01  0.26099231597E-03 -0.70881943988E-02  0.10203761156E+01  0.10201042260E+01 0.  0.
     999903    2    3    3    0    0  0.25569862339E-01 -0.74912318220E-01 -0.10349936270E+00  0.13191913410E+00  0.20612292000E-01 0.  0.
         14    1    1    2    0    0 -0.22460517635E-01 -0.26099231597E-03  0.70881943988E-02  0.23553884377E-01  0.00000000000E+00 0.  1.
     999901    1    3    3    0    0 -0.31093447042E-02  0.75173310536E-01  0.96411168301E-01  0.88845698152E+00  0.88000000000E+00 0.  1.
        -11    1    4    4    0    0  0.24576579425E-01 -0.50841167944E-01 -0.61474477880E-01  0.83475775922E-01  0.51100000000E-03 0. -1.
         11    1    4    4    0    0  0.99328291481E-03 -0.24071150276E-01 -0.42024884820E-01  0.48443358179E-01  0.51100000000E-03 0.  1.
</event>
<event>
 7    1  0.1042301E+005  0.1043930E+01  0.7957747E-01            NaN
         13   -1    0    0    0    0  0.00000000000E+00  0.00000000000E+00  0.74505805969E-08  0.10566000000E+00  0.10566000000E+00 0.  1.
     999900   -1    0    0    0    0 -0.00000000000E+00 -0.00000000000E+00 -0.74505805969E-08  0.93827000000E+00  0.93827000000E+00 0.  1.
     999903    2    1    2    0    0 -0.33747439015E-01 -0.66204463479E-01  0.27704825513E-01  0.81901008995E-01  0.20452317548E-01 0.  0.
         14    1    1    2    0    0  0.19367160747E-01 -0.42063114377E-01 -0.58662018773E-01  0.74737038696E-01  0.00000000000E+00 0. -1.
     999901    1    1    2    0    0  0.14380278268E-01  0.10826757786E+00  0.30957193260E-01  0.88729195231E+00  0.88000000000E+00 0. -1.
        -11    1    3    3    0    0 -0.10833426989E-01 -0.12492989552E-01 -0.14933684982E-02  0.16611116722E-01  0.51100000000E-03 0.  1.
         11    1    3    3    0    0 -0.22914012026E-01 -0.53711473927E-01  0.29198194012E-01  0.65289892273E-01  0.51100000000E-03 0. -1.
</event>
<event>
 8    1  0.1042301E+005  0.1043930E+01  0.7957747E-01            NaN
         13   -1    0    0    0    0  0.00000000000E+00  0.00000000000E+00  0.74505805969E-08  0.10566000000E+00  0.10566000000E+00 0. -1.
     999900   -1    0    0    0    0 -0.00000000000E+00 -0.00000000000E+00 -0.74505805969E-08  0.93827000000E+00  0.93827000000E+00 0. -1.
     999902    2    1    2    0    0 -0.79822554870E-02 -0.19957159514E-01 -0.77744605898E-02  0.10210729036E+01  0.10208170392E+01 0.  0.
     999903    2    3    3    0    0 -0.28462729976E-01 -0.29491093696E-01 -0.12496156008E+00  0.13301707088E+00  0.19957405720E-01 0.  0.
         14    1    1    2    0    0  0.79822554870E-02  0.19957159514E-01  0.77744605898E-02  0.22857096403E-01  0.00000000000E+00 0. -1.
     999901    1    3    3    0    0  0.20480474489E-01  0.95339341817E-02  0.11718709949E+00  0.88805583272E+00  0.88000000000E+00 0.  1.
        -11    1    4    4    0    0 -0.22991714421E-01 -0.21937519492E-01 -0.65245166058E-01  0.72574558272E-01  0.51100000000E-03 0. -1.
         11    1    4    4    0    0 -0.54710155545E-02 -0.75535742038E-02 -0.59716394021E-01  0.60442512607E-01  0.51100000000E-03 0.  1.
</event>
<event>
 8    1  0.1042301E+005  0.1043930E+01  0.7957747E-01            NaN
         13   -1    0    0    0    0  0.00000000000E+00  0.00000000000E+00  0.74505805969E-08  0.10566000000E+00  0.10566000000E+00 0. -1.
     999900   -1    0    0    0    0 -0.00000000000E+00 -0.00000000000E+00 -0.74505805969E-08  0.93827000000E+00  0.93827000000E+00 0. -1.
     999902    2    1    2    0    0 -0.31942564042E-02 -0.19414574630E-01  0.13225736687E-01  0.10202224254E+01  0.10199469340E+01 0.  0.
     999903    2    3    3    0    0  0.82098765115E-01 -0.89700976077E-01 -0.44765195522E-01  0.13141534512E+00  0.21899722860E-01 0.  0.
         14    1    1    2    0    0  0.31942564042E-02  0.19414574630E-01 -0.13225736687E-01  0.23707574590E-01  0.00000000000E+00 0. -1.
     999901    1    3    3    0    0 -0.85293021519E-01  0.70286401447E-01  0.57990932209E-01  0.88880708029E+00  0.88000000000E+00 0.  1.
        -11    1    4    4    0    0  0.49154180929E-01 -0.41731188421E-01 -0.31326268848E-01  0.71688366077E-01  0.51100000000E-03 0.  1.
         11    1    4    4    0    0  0.32944584187E-01 -0.47969787655E-01 -0.13438926674E-01  0.59726979047E-01  0.51100000000E-03 0. -1.
</event>
<event>
 8    1  0.1042301E+005  0.1043930E+01  0.7957747E-01            NaN
         13   -1    0    0    0    0  0.00000000000E+00  0.00000000000E+00  0.74505805969E-08  0.10566000000E+00  0.10566000000E+00 0.  1.
     999900   -1    0    0    0    0 -0.00000000000E+00 -0.00000000000E+00 -0.74505805969E-08  0.93827000000E+00  0.93827000000E+00 0.  1.
     999902    2    1    2    0    0 -0.65335470071E-02  0.18595896333E-01  0.12931979686E-01  0.10203560590E+01  0.10200837007E+01 0.  0.
     999903    2    3    3    0    0 -0.56364563868E-01 -0.97700077039E-01 -0.59241683462E-01  0.12838244876E+00  0.15817932130E-01 0.  0.
         14    1    1    2    0    0  0.65335470071E-02 -0.18595896333E-01 -0.12931979686E-01  0.23573941027E-01  0.00000000000E+00 0.  1.
     999901    1    3    3    0    0  0.49831016861E-01  0.11629597337E+00  0.72173663148E-01  0.89197361021E+00  0.88000000000E+00 0. -1.
        -11    1    4    4    0    0 -0.38632643558E-01 -0.53132426162E-01 -0.38281832834E-01  0.76034832178E-01  0.51100000000E-03 0.  1.
         11    1    4    4    0    0 -0.17731920311E-01 -0.44567650877E-01 -0.20959850627E-01  0.52347616583E-01  0.51100000000E-03 0. -1.
</event>
<event>
 8    1  0.1042301E+005  0.1043930E+01  0.7957747E-01            NaN
         13   -1    0    0    0    0  0.00000000000E+00  0.00000000000E+00  0.74505805969E-08  0.10566000000E+00  0.10566000000E+00 0. -1.
     999900   -1    0    0    0    0 -0.00000000000E+00 -0.00000000000E+00 -0.74505805969E-08  0.93827000000E+00  0.93827000000E+00 0. -1.
     999902    2    1    2    0    0 -0.80454971490E-02 -0.17857779682E-01 -0.11754735928E-01  0.10210869674E+01  0.10208314214E+01 0.  0.
     999903    2    3    3    0    0  0.22540419449E-01 -0.77432515090E-01 -0.10476095596E+00  0.13365539016E+00  0.19622449482E-01 0.  0.
         14    1    1    2    0    0  0.80454971490E-02  0.17857779682E-01  0.11754735928E-01  0.22843032554E-01  0.00000000000E+00 0.  1.
     999901    1    3    3    0    0 -0.30585916598E-01  0.59574735408E-01  0.93006220033E-01  0.88743157728E+00  0.88000000000E+00 0.  1.
        -11    1    4    4    0    0  0.46676238669E-02 -0.13483569189E-01 -0.81945544707E-02  0.16462235407E-01  0.51100000000E-03 0.  1.
         11    1    4    4    0    0  0.17872795582E-01 -0.63948945901E-01 -0.96566401490E-01  0.11719315476E+00  0.51100000000E-03 0. -1.
</event>
<event>
 8    1  0.1042301E+005  0.1043930E+01  0.7957747E-01            NaN
         13   -1    0    0    0    0  0.00000000000E+00  0.00000000000E+00  0.74505805969E-08  0.10566000000E+00  0.10566000000E+00 0.  1.
     999900   -1    0    0    0    0 -0.00000000000E+00 -0.00000000000E+00 -0.74505805969E-08  0.93827000000E+00  0.93827000000E+00 0. -1.
     999902    2    1    2    0    0 -0.18248842071E-01  0.14879584856E-01 -0.14375454030E-02  0.10203399848E+01  0.10200672506E+01 0.  0.
     999903    2    3    3    0    0  0.45265085968E-01 -0.11285164149E+00 -0.34447700513E-01  0.12824192088E+00  0.21792778732E-01 0.  0.
         14    1    1    2    0    0  0.18248842071E-01 -0.14879584856E-01  0.14375454030E-02  0.23590015243E-01  0.00000000000E+00 0.  1.
     999901    1    3    3    0    0 -0.63513928038E-01  0.12773122635E+00  0.33010155109E-01  0.89209806388E+00  0.88000000000E+00 0. -1.
        -11    1    4    4    0    0  0.17214613763E-01 -0.70982171091E-01 -0.22748239311E-01  0.76501993782E-01  0.51100000000E-03 0. -1.
         11    1    4    4    0    0  0.28050472204E-01 -0.41869470399E-01 -0.11699461202E-01  0.51739927095E-01  0.51100000000E-03 0.  1.
</event>
<event>
 8    1  0.1042301E+005  0.1043930E+01  0.7957747E-01            NaN
         13   -1    0    0    0    0  0.00000000000E+00  0.00000000000E+00  0.74505805969E-08  0.10566000000E+00  0.10566000000E+00 0. -1.
     999900   -1    0    0    0    0 -0.00000000000E+00 -0.00000000000E+00 -0.74505805969E-08  0.93827000000E+00  0.93827000000E+00 0.  1.
     999902    2    1    2    0    0  0.15991350030E-01 -0.16180660423E-01 -0.24191654411E-02  0.10210522945E+01  0.10207959633E+01 0.  0.
     999903    2    3    3    0    0  0.13143328786E+00 -0.12173548585E-01  0.54359488259E-03  0.13349853506E+00  0.19966444937E-01 0.  0.
         14    1    1    2    0    0 -0.15991350030E-01  0.16180660423E-01  0.24191654411E-02  0.22877705500E-01  0.00000000000E+00 0. -1.
     999901    1    3    3    0    0 -0.11544193783E+00 -0.40071118382E-02 -0.29627603237E-02  0.88755375944E+00  0.88000000000E+00 0.  1.
        -11    1    4    4    0    0  0.11032361641E+00 -0.38122398908E-02 -0.34230606002E-02  0.11044370501E+00  0.51100000000E-03 0. -1.
         11    1    4    4    0    0  0.21109671452E-01 -0.83613086944E-02  0.39666554828E-02  0.23054830050E-01  0.51100000000E-03 0.  1.
</event>
<event>
 8    1  0.1042301E+005  0.1043930E+01  0.7957747E-01            NaN
         13   -1    0    0    0    0  0.00000000000E+00  0.00000000000E+00  0.74505805969E-08  0.10566000000E+00  0.10566000000E+00 0.  1.
     999900   -1    0    0    0    0 -0.00000000000E+00 -0.00000000000E+00 -0.74505805969E-08  0.93827000000E+00  0.93827000000E+00 0.  1.
     999902    2    1    2    0    0 -0.21326275870E-01 -0.81899315653E-02  0.64895059414E-02  0.10201813430E+01  0.10199048847E+01 0.  0.
     999903    2    3    3    0    0 -0.61412342415E-01  0.98218191862E-01 -0.56865330457E-01  0.13060649132E+00  0.20151941680E-01 0.  0.
         14    1    1    2    0    0  0.21326275870E-01  0.81899315653E-02 -0.64895059414E-02  0.23748656991E-01  0.00000000000E+00 0. -1.
     999901    1    3    3    0    0  0.40086066545E-01 -0.10640812343E+00  0.63354836398E-01  0.88957485169E+00  0.88000000000E+00 0. -1.
        -11    1    4    4    0    0 -0.17835862077E-01  0.34168233334E-01 -0.29151975830E-01  0.48328924683E-01  0.51100000000E-03 0.  1.
         11    1    4    4    0    0 -0.43576480338E-01  0.64049958528E-01 -0.27713354626E-01  0.82277566637E-01  0.51100000000E-03 0. -1.
</event>
<event>
 8    1  0.1042301E+005  0.1043930E+01  0.7957747E-01            NaN
         13   -1    0    0    0    0  0.00000000000E+00  0.00000000000E+00  0.74505805969E-08  0.10566000000E+00  0.10566000000E+00 0. -1.
     999900   -1    0    0    0    0 -0.00000000000E+00 -0.00000000000E+00 -0.74505805969E-08  0.93827000000E+00  0.93827000000E+00 0. -1.
     999902    2    1    2    0    0  0.83340951015E-02 -0.22003555486E-02  0.22234851642E-01  0.10200828339E+01  0.10198040501E+01 0.  0.
     999903    2    3    3    0    0  0.13525747907E-01 -0.81555779654E-01  0.10217010571E+00  0.13288844623E+00  0.19654963430E-01 0.  0.
         14    1    1    2    0    0 -0.83340951015E-02  0.22003555486E-02 -0.22234851642E-01  0.23847166147E-01  0.00000000000E+00 0.  1.
     999901    1    3    3    0    0 -0.51916528051E-02  0.79355424105E-01 -0.79935254072E-01  0.88719438763E+00  0.88000000000E+00 0. -1.
        -11    1    4    4    0    0 -0.34458506428E-02 -0.38670987798E-01  0.48234259326E-01  0.61920304244E-01  0.51100000000E-03 0. -1.
         11    1    4    4    0    0  0.16971598549E-01 -0.42884791856E-01  0.53935846387E-01  0.70968141982E-01  0.51100000000E-03 0.  1.
</event>
<event>
 8    1  0.1042301E+005  0.1043930E+01  0.7957747E-01            NaN
         13   -1    0    0    0    0  0.00000000000E+00  0.00000000000E+00  0.74505805969E-08  0.10566000000E+00  0.10566000000E+00 0.  1.
     999900   -1    0    0    0    0 -0.00000000000E+00 -0.00000000000E+00 -0.74505805969E-08  0.93827000000E+00  0.93827000000E+00 0. -1.
     999902    2    1    2    0    0  0.20028648156E-01 -0.10397414719E-01  0.65452388199E-02  0.10204333379E+01  0.10201627830E+01 0.  0.
     999903    2    3    3    0    0 -0.77169920247E-01 -0.70865740887E-01  0.75122615859E-01  0.13037331922E+00  0.19407347278E-01 0.  0.
         14    1    1    2    0    0 -0.20028648156E-01  0.10397414719E-01 -0.65452388199E-02  0.23496662125E-01  0.00000000000E+00 0. -1.
     999901    1    3    3    0    0  0.97198568402E-01  0.60468326168E-01 -0.68577377040E-01  0.89006001866E+00  0.88000000000E+00 0. -1.
        -11    1    4    4    0    0 -0.19157018581E-01 -0.11900210067E-01  0.24907211392E-01  0.33604116725E-01  0.51100000000E-03 0. -1.
         11    1    4    4    0    0 -0.58012901665E-01 -0.58965530820E-01  0.50215404468E-01  0.96769202494E-01  0.51100000000E-03 0.  1.
</event>
<event>
 8    1  0.1042301E+005  0.1043930E+01  0.7957747E-01            NaN
         13   -1    0    0    0    0  0.00000000000E+00  0.00000000000E+00  0.74505805969E-08  0.10566000000E+00  0.10566000000E+00 0. -1.
     999900   -1    0    0    0    0 -0.00000000000E+00 -0.00000000000E+00 -0.74505805969E-08  0.93827000000E+00  0.93827000000E+00 0.  1.
     999902    2    1    2    0    0  0.78911424419E-02 -0.19859604624E-01  0.76693062628E-02  0.10212255449E+01  0.10209731246E+01 0.  0.
     999903    2    3    3    0    0 -0.23561398938E-01 -0.10735403325E+00  0.73618536898E-01  0.13387339468E+00  0.20551614351E-01 0.  0.
         14    1    1    2    0    0 -0.78911424419E-02  0.19859604624E-01 -0.76693062628E-02  0.22704455144E-01  0.00000000000E+00 0. -1.
     999901    1    3    3    0    0  0.31452541380E-01  0.87494428629E-01 -0.65949230635E-01  0.88735215018E+00  0.88000000000E+00 0. -1.
        -11    1    4    4    0    0 -0.18927971327E-01 -0.39577281388E-01  0.29418030137E-01  0.52823393669E-01  0.51100000000E-03 0.  1.
         11    1    4    4    0    0 -0.46334276105E-02 -0.67776751865E-01  0.44200506761E-01  0.81050001010E-01  0.51100000000E-03 0. -1.
</event>
<event>
 8    1  0.1042301E+005  0.1043930E+01  0.7957747E-01            NaN
         13   -1    0    0    0    0  0.00000000000E+00  0.00000000000E+00  0.74505805969E-08  0.10566000000E+00  0.10566000000E+00 0.  1.
     999900   -1    0    0    0    0 -0.00000000000E+00 -0.00000000000E+00 -0.74505805969E-08  0.93827000000E+00  0.93827000000E+00 0. -1.
     999902    2    1    2    0    0 -0.22225796307E-01 -0.74346225951E-02 -0.27199040341E-02  0.10203364095E+01  0.10200635917E+01 0.  0.
     999903    2    3    3    0    0  0.47706003163E-01 -0.99419177567E-01  0.66210793035E-01  0.13011000239E+00  0.19613974624E-01 0.  0.
         14    1    1    2    0    0  0.22225796307E-01  0.74346225951E-02  0.27199040341E-02  0.23593590497E-01  0.00000000000E+00 0. -1.
     999901    1    3    3    0    0 -0.69931799470E-01  0.91984554971E-01 -0.68930697069E-01  0.89022640712E+00  0.88000000000E+00 0. -1.
        -11    1    4    4    0    0  0.16309161190E-01 -0.50045407745E-01  0.39379179548E-01  0.65738211703E-01  0.51100000000E-03 0.  1.
         11    1    4    4    0    0  0.31396841973E-01 -0.49373769822E-01  0.26831613488E-01  0.64371790682E-01  0.51100000000E-03 0. -1.
</event>
<event>
 8    1  0.1042301E+005  0.1043930E+01  0.7957747E-01            NaN
         13   -1    0    0    0    0  0.00000000000E+00  0.00000000000E+00  0.74505805969E-08  0.10566000000E+00  0.10566000000E+00 0.  1.
     999900   -1    0    0    0    0 -0.00000000000E+00 -0.00000000000E+00 -0.74505805969E-08  0.93827000000E+00  0.93827000000E+00 0.  1.
     999902    2    1    2    0    0 -0.50826851984E-02  0.24483172976E-01  0.41176608814E-02  0.10185880471E+01  0.10182727508E+01 0.  0.
     999903    2    3    3    0    0  0.10157915792E+00  0.75204201168E-01  0.21684156292E-01  0.13052388652E+00  0.24336908598E-01 0.  0.
         14    1    1    2    0    0  0.50826851984E-02 -0.24483172976E-01 -0.41176608814E-02  0.25341952942E-01  0.00000000000E+00 0.  1.
     999901    1    3    3    0    0 -0.10666184312E+00 -0.50721028192E-01 -0.17566495411E-01  0.88806416054E+00  0.88000000000E+00 0.  1.
        -11    1    4    4    0    0  0.77208782175E-01  0.68108782574E-01  0.13438171712E-01  0.10383086193E+00  0.51100000000E-03 0.  1.
         11    1    4    4    0    0  0.24370375745E-01  0.70954185935E-02  0.82459845802E-02  0.26693024588E-01  0.51100000000E-03 0. -1.
</event>
<event>
 8    1  0.1042301E+005  0.1043930E+01  0.7957747E-01            NaN
         13   -1    0    0    0    0  0.00000000000E+00  0.00000000000E+00  0.74505805969E-08  0.10566000000E+00  0.10566000000E+00 0.  1.
     999900   -1    0    0    0    0 -0.00000000000E+00 -0.00000000000E+00 -0.74505805969E-08  0.93827000000E+00  0.93827000000E+00 0.  1.
     999902    2    1    2    0    0 -0.14096023761E-01  0.10133223864E-01 -0.14833712630E-01  0.10210953960E+01  0.10208400406E+01 0.  0.
     999903    2    3    3    0    0  0.34975654593E-01 -0.10503227502E+00  0.62526961266E-01  0.12887580660E+00  0.21077889646E-01 0.  0.
         14    1    1    2    0    0  0.14096023761E-01 -0.10133223864E-01  0.14833712630E-01  0.22834604050E-01  0.00000000000E+00 0.  1.
     999901    1    3    3    0    0 -0.49071678354E-01  0.11516549889E+00 -0.77360673896E-01  0.89221958935E+00  0.88000000000E+00 0.  1.
        -11    1    4    4    0    0  0.46440732439E-02 -0.20189498353E-02  0.46046521743E-02  0.68634916317E-02  0.51100000000E-03 0.  1.
         11    1    4    4    0    0  0.30331581349E-01 -0.10301332519E+00  0.57922309092E-01  0.12201231497E+00  0.51100000000E-03 0. -1.
</event>
<event>
 8    1  0.1042301E+005  0.1043930E+01  0.7957747E-01            NaN
         13   -1    0    0    0    0  0.00000000000E+00  0.00000000000E+00  0.74505805969E-08  0.10566000000E+00  0.10566000000E+00 0.  1.
     999900   -1    0    0    0    0 -0.00000000000E+00 -0.00000000000E+00 -0.74505805969E-08  0.93827000000E+00  0.93827000000E+00 0. -1.
     999902    2    1    2    0    0  0.19931476613E-01 -0.13080262975E-02 -0.13405431226E-01  0.10198742257E+01  0.10195904844E+01 0.  0.
     999903    2    3    3    0    0  0.80583929962E-01 -0.38407734906E-01 -0.96651221797E-01  0.13309072890E+00  0.20068870811E-01 0.  0.
         14    1    1    2    0    0 -0.19931476613E-01  0.13080262975E-02  0.13405431226E-01  0.24055774340E-01  0.00000000000E+00 0.  1.
     999901    1    3    3    0    0 -0.60652453349E-01  0.37099708609E-01  0.83245790571E-01  0.88678349676E+00  0.88000000000E+00 0.  1.
        -11    1    4    4    0    0  0.42788167305E-01 -0.31192667356E-01 -0.53549993739E-01  0.75310508620E-01  0.51100000000E-03 0. -1.
         11    1    4    4    0    0  0.37795762657E-01 -0.72150675503E-02 -0.43101228058E-01  0.57780220281E-01  0.51100000000E-03 0.  1.
</event>
<event>
 8    1  0.1042301E+005  0.1043930E+01  0.7957747E-01            NaN
         13   -1    0    0    0    0  0.00000000000E+00  0.00000000000E+00  0.74505805969E-08  0.10566000000E+00  0.10566000000E+00 0.  1.
     999900   -1    0    0    0    0 -0.00000000000E+00 -0.00000000000E+00 -0.74505805969E-08  0.93827000000E+00  0.93827000000E+00 0.  1.
     999902    2    1    2    0    0 -0.22276198268E-01 -0.90859614305E-02 -0.25440616947E-02  0.10197379361E+01  0.10194509318E+01 0.  0.
     999903    2    3    3    0    0  0.49951702472E-01 -0.43452828152E-01  0.10909843227E+00  0.12908536771E+00  0.19422754149E-01 0.  0.
         14    1    1    2    0    0  0.22276198268E-01  0.90859614305E-02  0.25440616947E-02  0.24192063870E-01  0.00000000000E+00 0.  1.
     999901    1    3    3    0    0 -0.72227900740E-01  0.34366866722E-01 -0.11164249397E+00  0.89065256842E+00  0.88000000000E+00 0.  1.
        -11    1    4    4    0    0  0.18721718122E-01 -0.18175502425E-01  0.26295327779E-01  0.37048036410E-01  0.51100000000E-03 0.  1.
         11    1    4    4    0    0  0.31229984350E-01 -0.25277325727E-01  0.82803104492E-01  0.92037331301E-01  0.51100000000E-03 0. -1.
</event>
<event>
 8    1  0.1042301E+005  0.1043930E+01  0.7957747E-01            NaN
         13   -1    0    0    0    0  0.00000000000E+00  0.00000000000E+00  0.74505805969E-08  0.10566000000E+00  0.10566000000E+00 0.  1.
     999900   -1    0    0    0    0 -0.00000000000E+00 -0.00000000000E+00 -0.74505805969E-08  0.93827000000E+00  0.93827000000E+00 0.  1.
     999902    2    1    2    0    0  0.61407048738E-02 -0.33679002504E-02  0.22698423626E-01  0.10201756437E+01  0.10198990512E+01 0.  0.
     999903    2    3    3    0    0 -0.76454616513E-01  0.39853829914E-01 -0.92401164315E-01  0.12779790965E+00  0.18991956166E-01 0.  0.
         14    1    1    2    0    0 -0.61407048738E-02  0.33679002504E-02 -0.22698423626E-01  0.23754356307E-01  0.00000000000E+00 0. -1.
     999901    1    3    3    0    0  0.82595321387E-01 -0.43221730164E-01  0.11509958794E+00  0.89237773404E+00  0.88000000000E+00 0. -1.
        -11    1    4    4    0    0 -0.75350535592E-01  0.38566420489E-01 -0.84150646681E-01  0.11935939201E+00  0.51100000000E-03 0.  1.
         11    1    4    4    0    0 -0.11040809210E-02  0.12874094251E-02 -0.82505176341E-02  0.84385176387E-02  0.51100000000E-03 0. -1.
</event>
<event>
 8    1  0.1042301E+005  0.1043930E+01  0.7957747E-01            NaN
         13   -1    0    0    0    0  0.00000000000E+00  0.00000000000E+00  0.74505805969E-08  0.10566000000E+00  0.10566000000E+00 0. -1.
     999900   -1    0    0    0    0 -0.00000000000E+00 -0.00000000000E+00 -0.74505805969E-08  0.93827000000E+00  0.93827000000E+00 0. -1.
     999902    2    1    2    0    0 -0.18927032012E-01  0.86287129239E-02 -0.78513530771E-02  0.10216964449E+01  0.10214544995E+01 0.  0.
     999903    2    3    3    0    0 -0.85544063665E-01 -0.96714405149E-01 -0.17190811236E-01  0.13286449964E+00  0.26191377992E-01 0.  0.
         14    1    1    2    0    0  0.18927032012E-01 -0.86287129239E-02  0.78513530771E-02  0.22233555106E-01  0.00000000000E+00 0.  1.
     999901    1    3    3    0    0  0.66617031653E-01  0.10534311807E+00  0.93394581594E-02  0.88883194526E+00  0.88000000000E+00 0.  1.
        -11    1    4    4    0    0 -0.13798010546E-01 -0.12917714254E-01 -0.12064959656E-01  0.22429373800E-01  0.51100000000E-03 0. -1.
         11    1    4    4    0    0 -0.71746053119E-01 -0.83796690895E-01 -0.51258515809E-02  0.11043512584E+00  0.51100000000E-03 0.  1.
</event>
<event>
 8    1  0.1042301E+005  0.1043930E+01  0.7957747E-01            NaN
         13   -1    0    0    0    0  0.00000000000E+00  0.00000000000E+00  0.74505805969E-08  0.10566000000E+00  0.10566000000E+00 0. -1.
     999900   -1    0    0    0    0 -0.00000000000E+00 -0.00000000000E+00 -0.74505805969E-08  0.93827000000E+00  0.93827000000E+00 0.  1.
     999902    2    1    2    0    0 -0.19811890251E-01  0.38885785910E-02  0.27868221243E-01  0.10095167788E+01  0.10089300555E+01 0.  0.
     999903    2    3    3    0    0 -0.91084263242E-01 -0.38275802536E-01 -0.66149247600E-01  0.12064284474E+00  0.20435091354E-01 0.  0.
         14    1    1    2    0    0  0.19811890251E-01 -0.38885785910E-02 -0.27868221243E-01  0.34413221209E-01  0.00000000000E+00 0.  1.
     999901    1    3    3    0    0  0.71272372991E-01  0.42164381127E-01  0.94017468843E-01  0.88887393405E+00  0.88000000000E+00 0. -1.
        -11    1    4    4    0    0 -0.31720438461E-01 -0.23790909782E-01 -0.23069560462E-01  0.45876566407E-01  0.51100000000E-03 0. -1.
         11    1    4    4    0    0 -0.59363824781E-01 -0.14484892754E-01 -0.43079687138E-01  0.74766278333E-01  0.51100000000E-03 0.  1.
</event>
<event>
 8    1  0.1042301E+005  0.1043930E+01  0.7957747E-01            NaN
         13   -1    0    0    0    0  0.00000000000E+00  0.00000000000E+00  0.74505805969E-08  0.10566000000E+00  0.10566000000E+00 0. -1.
     999900   -1    0    0    0    0 -0.00000000000E+00 -0.00000000000E+00 -0.74505805969E-08  0.93827000000E+00  0.93827000000E+00 0.  1.
     999902    2    1    2    0    0  0.99769424896E-02 -0.12358951206E-02 -0.21545902051E-01  0.10201541149E+01  0.10198770148E+01 0.  0.
     999903    2    3    3    0    0  0.71512960914E-01 -0.78857912494E-01 -0.77022581425E-01  0.13286074676E+00  0.19667893625E-01 0.  0.
         14    1    1    2    0    0 -0.99769424896E-02  0.12358951206E-02  0.21545902051E-01  0.23775885123E-01  0.00000000000E+00 0. -1.
     999901    1    3    3    0    0 -0.61536018425E-01  0.77622017373E-01  0.55476679374E-01  0.88729336811E+00  0.88000000000E+00 0. -1.
        -11    1    4    4    0    0  0.62830689519E-01 -0.63062497875E-01 -0.56026935712E-01  0.10518485076E+00  0.51100000000E-03 0.  1.
         11    1    4    4    0    0  0.86822713948E-02 -0.15795414618E-01 -0.20995645712E-01  0.27675896000E-01  0.51100000000E-03 0. -1.
</event>
<event>
 8    1  0.1042301E+005  0.1043930E+01  0.7957747E-01            NaN
         13   -1    0    0    0    0  0.00000000000E+00  0.00000000000E+00  0.74505805969E-08  0.10566000000E+00  0.10566000000E+00 0. -1.
     999900   -1    0    0    0    0 -0.00000000000E+00 -0.00000000000E+00 -0.74505805969E-08  0.93827000000E+00  0.93827000000E+00 0.  1.
     999902    2    1    2    0    0 -0.56596368664E-02  0.20095837415E-01 -0.13943281304E-01  0.10188244376E+01  0.10185150688E+01 0.  0.
     999903    2    3    3    0    0  0.21902363258E-01 -0.40784458720E-01 -0.11981210373E+00  0.12996321001E+00  0.19809345440E-01 0.  0.
         14    1    1    2    0    0  0.56596368664E-02 -0.20095837415E-01  0.13943281304E-01  0.25105562420E-01  0.00000000000E+00 0. -1.
     999901    1    3    3    0    0 -0.27562000124E-01  0.60880296136E-01  0.10586882243E+00  0.88886122757E+00  0.88000000000E+00 0. -1.
        -11    1    4    4    0    0 -0.18767810602E-03 -0.16312101819E-01 -0.53036631660E-01  0.55491128189E-01  0.51100000000E-03 0.  1.
         11    1    4    4    0    0  0.22090041364E-01 -0.24472356902E-01 -0.66775472073E-01  0.74472081825E-01  0.51100000000E-03 0. -1.
</event>
<event>
 8    1  0.1042301E+005  0.1043930E+01  0.7957747E-01            NaN
         13   -1    0    0    0    0  0.00000000000E+00  0.00000000000E+00  0.74505805969E-08  0.10566000000E+00  0.10566000000E+00 0.  1.
     999900   -1    0    0    0    0 -0.00000000000E+00 -0.00000000000E+00 -0.74505805969E-08  0.93827000000E+00  0.93827000000E+00 0.  1.
     999902    2    1    2    0    0  0.61609865226E-02 -0.19423205693E-01  0.19880944183E-01  0.10154612344E+01  0.10150620907E+01 0.  0.
     999903    2    3    3    0    0  0.88329229463E-01 -0.40678737713E-01  0.82613367302E-01  0.12915498105E+00  0.19980695498E-01 0.  0.
         14    1    1    2    0    0 -0.61609865226E-02  0.19423205693E-01 -0.19880944183E-01  0.28468765620E-01  0.00000000000E+00 0. -1.
     999901    1    3    3    0    0 -0.82168242940E-01  0.21255532020E-01 -0.62732423119E-01  0.88630625333E+00  0.88000000000E+00 0.  1.
        -11    1    4    4    0    0  0.44831862833E-01 -0.24778140857E-01  0.55323692402E-01  0.75397773517E-01  0.51100000000E-03 0. -1.
         11    1    4    4    0    0  0.43497366630E-01 -0.15900596856E-01  0.27289674900E-01  0.53757207529E-01  0.51100000000E-03 0.  1.
</event>
<event>
 8    1  0.1042301E+005  0.1043930E+01  0.7957747E-01            NaN
         13   -1    0    0    0    0  0.00000000000E+00  0.00000000000E+00  0.74505805969E-08  0.10566000000E+00  0.10566000000E+00 0.  1.
     999900   -1    0    0    0    0 -0.00000000000E+00 -0.00000000000E+00 -0.74505805969E-08  0.93827000000E+00  0.93827000000E+00 0. -1.
     999902    2    1    2    0    0  0.10461272154E-01 -0.20267791203E-01 -0.14152972258E-01  0.10170873437E+01  0.10167330704E+01 0.  0.
     999903    2    3    3    0    0 -0.11490152405E+00  0.10123480162E-01 -0.49092420446E-01  0.12699733412E+00  0.20332536705E-01 0.  0.
         14    1    1    2    0    0 -0.10461272154E-01  0.20267791203E-01  0.14152972258E-01  0.26842656334E-01  0.00000000000E+00 0.  1.
     999901    1    3    3    0    0  0.12536279621E+00 -0.30391271365E-01  0.34939448188E-01  0.89009000954E+00  0.88000000000E+00 0.  1.
        -11    1    4    4    0    0 -0.81829853935E-01  0.72749813052E-02 -0.24652432638E-01  0.85773270335E-01  0.51100000000E-03 0. -1.
         11    1    4    4    0    0 -0.33071670118E-01  0.28484988570E-02 -0.24439987809E-01  0.41224063788E-01  0.51100000000E-03 0.  1.
</event>
<event>
 8    1  0.1042301E+005  0.1043930E+01  0.7957747E-01            NaN
         13   -1    0    0    0    0  0.00000000000E+00  0.00000000000E+00  0.74505805969E-08  0.10566000000E+00  0.10566000000E+00 0. -1.
     999900   -1    0    0    0    0 -0.00000000000E+00 -0.00000000000E+00 -0.74505805969E-08  0.93827000000E+00  0.93827000000E+00 0. -1.
     999902    2    1    2    0    0  0.14594869828E-02  0.23196379706E-01 -0.35507832776E-02  0.10204180840E+01  0.10201471736E+01 0.  0.
     999903    2    3    3    0    0  0.23661216734E-01 -0.73911512564E-01 -0.10175319196E+00  0.12937006471E+00  0.18977268064E-01 0.  0.
         14    1    1    2    0    0 -0.14594869828E-02 -0.23196379706E-01  0.35507832776E-02  0.23511916034E-01  0.00000000000E+00 0.  1.
     999901    1    3    3    0    0 -0.22201729751E-01  0.97107892270E-01  0.98202408681E-01  0.89104801925E+00  0.88000000000E+00 0.  1.
        -11    1    4    4    0    0  0.20041893765E-01 -0.59365862519E-01 -0.68184369281E-01  0.92603199046E-01  0.51100000000E-03 0.  1.
         11    1    4    4    0    0  0.36193229692E-02 -0.14545650045E-01 -0.33568822678E-01  0.36766865666E-01  0.51100000000E-03 0. -1.
</event>
<event>
 8    1  0.1042301E+005  0.1043930E+01  0.7957747E-01            NaN
         13   -1    0    0    0    0  0.00000000000E+00  0.00000000000E+00  0.74505805969E-08  0.10566000000E+00  0.10566000000E+00 0. -1.
     999900   -1    0    0    0    0 -0.00000000000E+00 -0.00000000000E+00 -0.74505805969E-08  0.93827000000E+00  0.93827000000E+00 0.  1.
     999902    2    1    2    0    0 -0.94215589106E-02  0.13992780716E-01  0.15996899009E-01  0.10206821084E+01  0.10204173176E+01 0.  0.
     999903    2    3    3    0    0 -0.30617516135E-01 -0.42378536821E-01 -0.11598513085E+00  0.12880417382E+00  0.20114470822E-01 0.  0.
         14    1    1    2    0    0  0.94215589106E-02 -0.13992780716E-01 -0.15996899009E-01  0.23247891569E-01  0.00000000000E+00 0.  1.
     999901    1    3    3    0    0  0.21195957224E-01  0.56371317536E-01  0.13198202986E+00  0.89187793461E+00  0.88000000000E+00 0. -1.
        -11    1    4    4    0    0 -0.28683761698E-01 -0.37626878527E-01 -0.84028718859E-01  0.96434573089E-01  0.51100000000E-03 0.  1.
         11    1    4    4    0    0 -0.19337544369E-02 -0.47516582939E-02 -0.31956411995E-01  0.32369600729E-01  0.51100000000E-03 0. -1.
</event>
<event>
 8    1  0.1042301E+005  0.1043930E+01  0.7957747E-01            NaN
         13   -1    0    0    0    0  0.00000000000E+00  0.00000000000E+00  0.74505805969E-08  0.10566000000E+00  0.10566000000E+00 0. -1.
     999900   -1    0    0    0    0 -0.00000000000E+00 -0.00000000000E+00 -0.74505805969E-08  0.93827000000E+00  0.93827000000E+00 0.  1.
     999902    2    1    2    0    0  0.79914349708E-02 -0.21487415760E-01 -0.67959716078E-02  0.10200185530E+01  0.10197382464E+01 0.  0.
     999903    2    3    3    0    0  0.11202360150E+00 -0.23593038819E-02 -0.66262845404E-01  0.13169153806E+00  0.19925935596E-01 0.  0.
         14    1    1    2    0    0 -0.79914349708E-02  0.21487415760E-01  0.67959716078E-02  0.23911447029E-01  0.00000000000E+00 0.  1.
     999901    1    3    3    0    0 -0.10403216652E+00 -0.19128111878E-01  0.59466873797E-01  0.88832701491E+00  0.88000000000E+00 0. -1.
        -11    1    4    4    0    0  0.60026783986E-01 -0.10974153193E-01 -0.33175753433E-01  0.69458898428E-01  0.51100000000E-03 0.  1.
         11    1    4    4    0    0  0.51996817510E-01  0.86148493108E-02 -0.33087091971E-01  0.62232639635E-01  0.51100000000E-03 0. -1.
</event>
<event>
 8    1  0.1042301E+005  0.1043930E+01  0.7957747E-01            NaN
         13   -1    0    0    0    0  0.00000000000E+00  0.00000000000E+00  0.74505805969E-08  0.10566000000E+00  0.10566000000E+00 0. -1.
     999900   -1    0    0    0    0 -0.00000000000E+00 -0.00000000000E+00 -0.74505805969E-08  0.93827000000E+00  0.93827000000E+00 0. -1.
     999902    2    1    2    0    0  0.19781720077E-01  0.26336406792E-02 -0.10978977286E-01  0.10211530280E+01  0.10208989745E+01 0.  0.
     999903    2    3    3    0    0 -0.11775266549E+00 -0.25658988914E-01 -0.42978560868E-01  0.12944671228E+00  0.19627039560E-01 0.  0.
         14    1    1    2    0    0 -0.19781720077E-01 -0.26336406792E-02  0.10978977286E-01  0.22776972026E-01  0.00000000000E+00 0. -1.
     999901    1    3    3    0    0  0.13753438557E+00  0.28292629593E-01  0.31999583582E-01  0.89170631570E+00  0.88000000000E+00 0.  1.
        -11    1    4    4    0    0 -0.97714718063E-01 -0.13593206976E-01 -0.36199549639E-01  0.10508858129E+00  0.51100000000E-03 0. -1.
         11    1    4    4    0    0 -0.20037947432E-01 -0.12065781938E-01 -0.67790112295E-02  0.24358130989E-01  0.51100000000E-03 0.  1.
</event>
<event>
 8    1  0.1042301E+005  0.1043930E+01  0.7957747E-01            NaN
         13   -1    0    0    0    0  0.00000000000E+00  0.00000000000E+00  0.74505805969E-08  0.10566000000E+00  0.10566000000E+00 0.  1.
     999900   -1    0    0    0    0 -0.00000000000E+00 -0.00000000000E+00 -0.74505805969E-08  0.93827000000E+00  0.93827000000E+00 0.  1.
     999902    2    1    2    0    0 -0.21862317789E-01  0.59112632037E-02 -0.67419192945E-02  0.10203004116E+01  0.10200267509E+01 0.  0.
     999903    2    3    3    0    0 -0.53604159941E-01  0.59948425590E-01 -0.10369850187E+00  0.13275991204E+00  0.20114553520E-01 0.  0.
         14    1    1    2    0    0  0.21862317789E-01 -0.59112632037E-02  0.67419192945E-02  0.23629588392E-01  0.00000000000E+00 0.  1.
     999901    1    3    3    0    0  0.31741842152E-01 -0.54037162386E-01  0.96956582571E-01  0.88754049956E+00  0.88000000000E+00 0. -1.
        -11    1    4    4    0    0 -0.16156366973E-01  0.32706047772E-01 -0.42432705547E-01  0.55959890776E-01  0.51100000000E-03 0. -1.
         11    1    4    4    0    0 -0.37447792968E-01  0.27242377818E-01 -0.61265796318E-01  0.76800021269E-01  0.51100000000E-03 0.  1.
</event>
<event>
 8    1  0.1042301E+005  0.1043930E+01  0.7957747E-01            NaN
         13   -1    0    0    0    0  0.00000000000E+00  0.00000000000E+00  0.74505805969E-08  0.10566000000E+00  0.10566000000E+00 0. -1.
     999900   -1    0    0    0    0 -0.00000000000E+00 -0.00000000000E+00 -0.74505805969E-08  0.93827000000E+00  0.93827000000E+00 0. -1.
     999902    2    1    2    0    0  0.16860141375E-01  0.11767487009E-01  0.10964027298E-01  0.10206287551E+01  0.10203627334E+01 0.  0.
     999903    2    3    3    0    0 -0.84240506328E-01  0.67726693748E-01 -0.68478977155E-01  0.12952608723E+00  0.20106441985E-01 0.  0.
         14    1    1    2    0    0 -0.16860141375E-01 -0.11767487009E-01 -0.10964027298E-01  0.23301244865E-01  0.00000000000E+00 0.  1.
     999901    1    3    3    0    0  0.10110064770E+00 -0.55959206739E-01  0.79443004453E-01  0.89110266790E+00  0.88000000000E+00 0.  1.
        -11    1    4    4    0    0 -0.68032915662E-03  0.37891552902E-02 -0.60298733282E-02  0.71722408583E-02  0.51100000000E-03 0.  1.
         11    1    4    4    0    0 -0.83560177171E-01  0.63937538457E-01 -0.62449103827E-01  0.12235384637E+00  0.51100000000E-03 0. -1.
</event>
<event>
 8    1  0.1042301E+005  0.1043930E+01  0.7957747E-01            NaN
         13   -1    0    0    0    0  0.00000000000E+00  0.00000000000E+00  0.74505805969E-08  0.10566000000E+00  0.10566000000E+00 0.  1.
     999900   -1    0    0    0    0 -0.00000000000E+00 -0.00000000000E+00 -0.74505805969E-08  0.93827000000E+00  0.93827000000E+00 0. -1.
     999902    2    1    2    0    0 -0.59922239503E-02 -0.17599741398E-01  0.16107631800E-01  0.10193309462E+01  0.10190340840E+01 0.  0.
     999903    2    3    3    0    0 -0.76432829362E-01 -0.10495303363E+00  0.14332206771E-01  0.13220320530E+00  0.20375442793E-01 0.  0.
         14    1    1    2    0    0  0.59922239503E-02  0.17599741398E-01 -0.16107631800E-01  0.24599053789E-01  0.00000000000E+00 0. -1.
     999901    1    3    3    0    0  0.70440605412E-01  0.87353292232E-01  0.17754250292E-02  0.88712774091E+00  0.88000000000E+00 0. -1.
        -11    1    4    4    0    0 -0.61896322238E-01 -0.69683125982E-01  0.82412688839E-02  0.93568543790E-01  0.51100000000E-03 0.  1.
         11    1    4    4    0    0 -0.14536507124E-01 -0.35269907647E-01  0.60909378866E-02  0.38634661512E-01  0.51100000000E-03 0. -1.
</event>
<event>
 8    1  0.1042301E+005  0.1043930E+01  0.7957747E-01            NaN
         13   -1    0    0    0    0  0.00000000000E+00  0.00000000000E+00  0.74505805969E-08  0.10566000000E+00  0.10566000000E+00 0. -1.
     999900   -1    0    0    0    0 -0.00000000000E+00 -0.00000000000E+00 -0.74505805969E-08  0.93827000000E+00  0.93827000000E+00 0. -1.
     999902    2    1    2    0    0 -0.20004636582E-01 -0.41082122558E-02 -0.12428164712E-01  0.10200234701E+01  0.10197432802E+01 0.  0.
     999903    2    3    3    0    0 -0.28937903297E-01  0.41708676268E-01 -0.12034216926E+00  0.13220343041E+00  0.20457110928E-01 0.  0.
         14    1    1    2    0    0  0.20004636582E-01  0.41082122558E-02  0.12428164712E-01  0.23906529879E-01  0.00000000000E+00 0.  1.
     999901    1    3    3    0    0  0.89332667148E-02 -0.45816888524E-01  0.10791400455E+00  0.88782003971E+00  0.88000000000E+00 0.  1.
        -11    1    4    4    0    0 -0.29486473537E-01  0.28201082546E-01 -0.96841126260E-01  0.10508671674E+00  0.51100000000E-03 0.  1.
         11    1    4    4    0    0  0.54857024024E-03  0.13507593721E-01 -0.23501043001E-01  0.27116713676E-01  0.51100000000E-03 0. -1.
</event>
<event>
 8    1  0.1042301E+005  0.1043930E+01  0.7957747E-01            NaN
         13   -1    0    0    0    0  0.00000000000E+00  0.00000000000E+00  0.74505805969E-08  0.10566000000E+00  0.10566000000E+00 0.  1.
     999900   -1    0    0    0    0 -0.00000000000E+00 -0.00000000000E+00 -0.74505805969E-08  0.93827000000E+00  0.93827000000E+00 0.  1.
     999902    2    1    2    0    0 -0.22944237553E-01  0.87689519274E-02  0.54763343846E-02  0.10187640946E+01  0.10184532182E+01 0.  0.
     999903    2    3    3    0    0 -0.47379221394E-01  0.74390816544E-01 -0.94205980639E-01  0.13037236714E+00  0.18531139157E-01 0.  0.
         14    1    1    2    0    0  0.22944237553E-01 -0.87689519274E-02 -0.54763343846E-02  0.25165905370E-01  0.00000000000E+00 0.  1.
     999901    1    3    3    0    0  0.24434983841E-01 -0.65621864617E-01  0.99682315023E-01  0.88839172749E+00  0.88000000000E+00 0. -1.
        -11    1    4    4    0    0 -0.32148909172E-01  0.53915459989E-01 -0.54295110128E-01  0.82997887272E-01  0.51100000000E-03 0. -1.
         11    1    4    4    0    0 -0.15230312222E-01  0.20475356555E-01 -0.39910870511E-01  0.47374479864E-01  0.51100000000E-03 0.  1.
</event>
<event>
 8    1  0.1042301E+005  0.1043930E+01  0.7957747E-01            NaN
         13   -1    0    0    0    0  0.00000000000E+00  0.00000000000E+00  0.74505805969E-08  0.10566000000E+00  0.10566000000E+00 0.  1.
     999900   -1    0    0    0    0 -0.00000000000E+00 -0.00000000000E+00 -0.74505805969E-08  0.93827000000E+00  0.93827000000E+00 0.  1.
     999902    2    1    2    0    0  0.37837802755E-02 -0.13183661793E-01  0.16163825353E-01  0.10227310571E+01  0.10225113300E+01 0.  0.
     999903    2    3    3    0    0 -0.10562880850E-01  0.12155356636E+00  0.46638755923E-01  0.13183899361E+00  0.17874639479E-01 0.  0.
         14    1    1    2    0    0 -0.37837802755E-02  0.13183661793E-01 -0.16163825353E-01  0.21198942933E-01  0.00000000000E+00 0. -1.
     999901    1    3    3    0    0  0.14346661126E-01 -0.13473722815E+00 -0.30474930570E-01  0.89089206346E+00  0.88000000000E+00 0. -1.
        -11    1    4    4    0    0  0.22239972724E-02  0.40574693793E-01  0.89773755493E-02  0.41618581584E-01  0.51100000000E-03 0.  1.
         11    1    4    4    0    0 -0.12786878123E-01  0.80978872564E-01  0.37661380373E-01  0.90220412028E-01  0.51100000000E-03 0. -1.
</event>
<event>
 8    1  0.1042301E+005  0.1043930E+01  0.7957747E-01            NaN
         13   -1    0    0    0    0  0.00000000000E+00  0.00000000000E+00  0.74505805969E-08  0.10566000000E+00  0.10566000000E+00 0.  1.
     999900   -1    0    0    0    0 -0.00000000000E+00 -0.00000000000E+00 -0.74505805969E-08  0.93827000000E+00  0.93827000000E+00 0. -1.
     999902    2    1    2    0    0  0.74607691971E-02  0.18836746129E-01  0.12275273799E-01  0.10202410062E+01  0.10199659515E+01 0.  0.
     999903    2    3    3    0    0  0.64809525969E-01 -0.28237751578E-01 -0.10641476606E+00  0.12917859882E+00  0.19114462776E-01 0.  0.
         14    1    1    2    0    0 -0.74607691971E-02 -0.18836746129E-01 -0.12275273799E-01  0.23688993828E-01  0.00000000000E+00 0.  1.
     999901    1    3    3    0    0 -0.57348756772E-01  0.47074497707E-01  0.11869003986E+00  0.89106240735E+00  0.88000000000E+00 0.  1.
        -11    1    4    4    0    0  0.51192406814E-01 -0.13634478488E-01 -0.72063276033E-01  0.89442374704E-01  0.51100000000E-03 0.  1.
         11    1    4    4    0    0  0.13617119155E-01 -0.14603273090E-01 -0.34351490023E-01  0.39736224114E-01  0.51100000000E-03 0. -1.
</event>
<event>
 8    1  0.1042301E+005  0.1043930E+01  0.7957747E-01            NaN
         13   -1    0    0    0    0  0.00000000000E+00  0.00000000000E+00  0.74505805969E-08  0.10566000000E+00  0.10566000000E+00 0. -1.
     999900   -1    0    0    0    0 -0.00000000000E+00 -0.00000000000E+00 -0.74505805969E-08  0.93827000000E+00  0.93827000000E+00 0.  1.
     999902    2    1    2    0    0  0.86555634793E-02  0.16501141641E-01  0.14427948840E-01  0.10203636646E+01  0.10200914841E+01 0.  0.
     999903    2    3    3    0    0 -0.61160398808E-01 -0.10620191648E+00  0.33637871932E-01  0.12890456283E+00  0.21574022428E-01 0.  0.
         14    1    1    2    0    0 -0.86555634793E-02 -0.16501141641E-01 -0.14427948840E-01  0.23566335360E-01  0.00000000000E+00 0. -1.
     999901    1    3    3    0    0  0.69815962287E-01  0.12270305812E+00 -0.19209923092E-01  0.89145910181E+00  0.88000000000E+00 0.  1.
        -11    1    4    4    0    0 -0.55595742867E-01 -0.79187160737E-01  0.28258680762E-01  0.10079834924E+00  0.51100000000E-03 0.  1.
         11    1    4    4    0    0 -0.55646559410E-02 -0.27014755739E-01  0.53791911703E-02  0.28106213584E-01  0.51100000000E-03 0. -1.
</event>
<event>
 8    1  0.1042301E+005  0.1043930E+01  0.7957747E-01            NaN
         13   -1    0    0    0    0  0.00000000000E+00  0.00000000000E+00  0.74505805969E-08  0.10566000000E+00  0.10566000000E+00 0. -1.
     999900   -1    0    0    0    0 -0.00000000000E+00 -0.00000000000E+00 -0.74505805969E-08  0.93827000000E+00  0.93827000000E+00 0. -1.
     999902    2    1    2    0    0 -0.90052870949E-02 -0.19318448746E-01  0.54119849316E-02  0.10219393829E+01  0.10217027528E+01 0.  0.
     999903    2    3    3    0    0 -0.74363357886E-01  0.49823944870E-01  0.95258217294E-01  0.13226264756E+00  0.20172890209E-01 0.  0.
         14    1    1    2    0    0  0.90052870949E-02  0.19318448746E-01 -0.54119849316E-02  0.21990617056E-01  0.00000000000E+00 0.  1.
     999901    1    3    3    0    0  0.65358070791E-01 -0.69142393615E-01 -0.89846232362E-01  0.88967673538E+00  0.88000000000E+00 0. -1.
        -11    1    4    4    0    0 -0.23742935645E-01  0.10074110187E-01  0.16815509034E-01  0.30793459601E-01  0.51100000000E-03 0.  1.
         11    1    4    4    0    0 -0.50620422240E-01  0.39749834682E-01  0.78442708260E-01  0.10146918796E+00  0.51100000000E-03 0. -1.
</event>
<event>
 8    1  0.1042301E+005  0.1043930E+01  0.7957747E-01            NaN
         13   -1    0    0    0    0  0.00000000000E+00  0.00000000000E+00  0.74505805969E-08  0.10566000000E+00  0.10566000000E+00 0. -1.
     999900   -1    0    0    0    0 -0.00000000000E+00 -0.00000000000E+00 -0.74505805969E-08  0.93827000000E+00  0.93827000000E+00 0. -1.
     999902    2    1    2    0    0  0.33652623824E-03  0.23345987699E-01  0.26294681667E-03  0.10205801064E+01  0.10203129598E+01 0.  0.
     999903    2    3    3    0    0  0.11448670572E+00 -0.42687201515E-01  0.39905005494E-01  0.12987132210E+00  0.18567387582E-01 0.  0.
         14    1    1    2    0    0 -0.33652623824E-03 -0.23345987699E-01 -0.26294681667E-03  0.23349893631E-01  0.00000000000E+00 0. -1.
     999901    1    3    3    0    0 -0.11415017948E+00  0.66033189214E-01 -0.39642058677E-01  0.89070878427E+00  0.88000000000E+00 0.  1.
        -11    1    4    4    0    0  0.11509928434E+00 -0.42368400548E-01  0.39208182644E-01  0.12876517125E+00  0.51100000000E-03 0.  1.
         11    1    4    4    0    0 -0.61257861915E-03 -0.31880096755E-03  0.69682285014E-03  0.11061508514E-02  0.51100000000E-03 0. -1.
</event>
<event>
 8    1  0.1042301E+005  0.1043930E+01  0.7957747E-01            NaN
         13   -1    0    0    0    0  0.00000000000E+00  0.00000000000E+00  0.74505805969E-08  0.10566000000E+00  0.10566000000E+00 0. -1.
     999900   -1    0    0    0    0 -0.00000000000E+00 -0.00000000000E+00 -0.74505805969E-08  0.93827000000E+00  0.93827000000E+00 0.  1.
     999902    2    1    2    0    0  0.25586276802E-02 -0.53634816519E-02  0.23712890644E-01  0.10194838409E+01  0.10191907021E+01 0.  0.
     999903    2    3    3    0    0  0.83328847947E-01 -0.65549213617E-01  0.76504380542E-01  0.13216592032E+00  0.19352362795E-01 0.  0.
         14    1    1    2    0    0 -0.25586276802E-02  0.53634816519E-02 -0.23712890644E-01  0.24446159080E-01  0.00000000000E+00 0.  1.
     999901    1    3    3    0    0 -0.80770220266E-01  0.60185731965E-01 -0.52791489898E-01  0.88731792060E+00  0.88000000000E+00 0.  1.
        -11    1    4    4    0    0  0.35820267021E-01 -0.20466634464E-01  0.20901073741E-01  0.46250304434E-01  0.51100000000E-03 0. -1.
         11    1    4    4    0    0  0.47508580926E-01 -0.45082579153E-01  0.55603306801E-01  0.85915615885E-01  0.51100000000E-03 0.  1.
</event>
<event>
 8    1  0.1042301E+005  0.1043930E+01  0.7957747E-01            NaN
         13   -1    0    0    0    0  0.00000000000E+00  0.00000000000E+00  0.74505805969E-08  0.10566000000E+00  0.10566000000E+00 0.  1.
     999900   -1    0    0    0    0 -0.00000000000E+00 -0.00000000000E+00 -0.74505805969E-08  0.93827000000E+00  0.93827000000E+00 0.  1.
     999902    2    1    2    0    0  0.99058145342E-02  0.15932920433E-01 -0.27148572813E-02  0.10249733767E+01  0.10247980628E+01 0.  0.
     999903    2    3    3    0    0  0.19069686555E-01  0.61075993981E-01  0.11776490291E+00  0.13557062981E+00  0.20417965727E-01 0.  0.
         14    1    1    2    0    0 -0.99058145342E-02 -0.15932920433E-01  0.27148572813E-02  0.18956623253E-01  0.00000000000E+00 0. -1.
     999901    1    3    3    0    0 -0.91638720203E-02 -0.45143073548E-01 -0.12047976019E+00  0.88940274693E+00  0.88000000000E+00 0.  1.
        -11    1    4    4    0    0 -0.29136759845E-02  0.20888493110E-01  0.31804256743E-01  0.38165305189E-01  0.51100000000E-03 0. -1.
         11    1    4    4    0    0  0.21983362539E-01  0.40187500871E-01  0.85960646166E-01  0.97405324623E-01  0.51100000000E-03 0.  1.
</event>
<event>
 8    1  0.1042301E+005  0.1043930E+01  0.7957747E-01            NaN
         13   -1    0    0    0    0  0.00000000000E+00  0.00000000000E+00  0.74505805969E-08  0.10566000000E+00  0.10566000000E+00 0. -1.
     999900   -1    0    0    0    0 -0.00000000000E+00 -0.00000000000E+00 -0.74505805969E-08  0.93827000000E+00  0.93827000000E+00 0. -1.
     999902    2    1    2    0    0  0.22202929563E-01 -0.69338181265E-02  0.68310766455E-02  0.10196872377E+01  0.10193990147E+01 0.  0.
     999903    2    3    3    0    0 -0.69681590090E-01 -0.10339156517E+00 -0.27043950094E-01  0.12901649083E+00  0.19197393663E-01 0.  0.
         14    1    1    2    0    0 -0.22202929563E-01  0.69338181265E-02 -0.68310766455E-02  0.24242762284E-01  0.00000000000E+00 0.  1.
     999901    1    3    3    0    0  0.91884519653E-01  0.96457747048E-01  0.33875026740E-01  0.89067074688E+00  0.88000000000E+00 0.  1.
        -11    1    4    4    0    0 -0.58242238802E-01 -0.96547380108E-01 -0.25339722582E-01  0.11556780541E+00  0.51100000000E-03 0.  1.
         11    1    4    4    0    0 -0.11439351288E-01 -0.68441850661E-02 -0.17042275124E-02  0.13448685420E-01  0.51100000000E-03 0. -1.
</event>
<event>
 8    1  0.1042301E+005  0.1043930E+01  0.7957747E-01            NaN
         13   -1    0    0    0    0  0.00000000000E+00  0.00000000000E+00  0.74505805969E-08  0.10566000000E+00  0.10566000000E+00 0.  1.
     999900   -1    0    0    0    0 -0.00000000000E+00 -0.00000000000E+00 -0.74505805969E-08  0.93827000000E+00  0.93827000000E+00 0. -1.
     999902    2    1    2    0    0 -0.94771616584E-02 -0.20404931055E-02  0.21058758999E-01  0.10207469990E+01  0.10204837012E+01 0.  0.
     999903    2    3    3    0    0 -0.39853048451E-01 -0.81701649767E-01  0.96268565252E-01  0.13343357672E+00  0.16536556353E-01 0.  0.
         14    1    1    2    0    0  0.94771616584E-02  0.20404931055E-02 -0.21058758999E-01  0.23183001009E-01  0.00000000000E+00 0. -1.
     999901    1    3    3    0    0  0.30375886792E-01  0.79661156662E-01 -0.75209806253E-01  0.88731342227E+00  0.88000000000E+00 0. -1.
        -11    1    4    4    0    0 -0.21732056488E-02 -0.17326982916E-01  0.22923476461E-01  0.28821763545E-01  0.51100000000E-03 0. -1.
         11    1    4    4    0    0 -0.37679842802E-01 -0.64374666851E-01  0.73345088791E-01  0.10461181318E+00  0.51100000000E-03 0.  1.
</event>
<event>
 8    1  0.1042301E+005  0.1043930E+01  0.7957747E-01            NaN
         13   -1    0    0    0    0  0.00000000000E+00  0.00000000000E+00  0.74505805969E-08  0.10566000000E+00  0.10566000000E+00 0. -1.
     999900   -1    0    0    0    0 -0.00000000000E+00 -0.00000000000E+00 -0.74505805969E-08  0.93827000000E+00  0.93827000000E+00 0.  1.
     999902    2    1    2    0    0 -0.29046852461E-02  0.17957070718E-01 -0.14347030580E-01  0.10207625471E+01  0.10204996065E+01 0.  0.
     999903    2    3    3    0    0  0.68681495746E-01  0.84654740510E-01 -0.73821842063E-01  0.13334471227E+00  0.21155967841E-01 0.  0.
         14    1    1    2    0    0  0.29046852461E-02 -0.17957070718E-01  0.14347030580E-01  0.23167452851E-01  0.00000000000E+00 0. -1.
     999901    1    3    3    0    0 -0.71586180993E-01 -0.66697669792E-01  0.59474811483E-01  0.88741783488E+00  0.88000000000E+00 0.  1.
        -11    1    4    4    0    0  0.11421714099E-01  0.20385932742E-01 -0.70759969607E-02  0.24420742428E-01  0.51100000000E-03 0. -1.
         11    1    4    4    0    0  0.57259781648E-01  0.64268807768E-01 -0.66745845102E-01  0.10892396984E+00  0.51100000000E-03 0.  1.
</event>
<event>
 8    1  0.1042301E+005  0.1043930E+01  0.7957747E-01            NaN
         13   -1    0    0    0    0  0.00000000000E+00  0.00000000000E+00  0.74505805969E-08  0.10566000000E+00  0.10566000000E+00 0.  1.
     999900   -1    0    0    0    0 -0.00000000000E+00 -0.00000000000E+00 -0.74505805969E-08  0.93827000000E+00  0.93827000000E+00 0.  1.
     999902    2    1    2    0    0  0.18390833415E-01 -0.15219726117E-01  0.29600545824E-02  0.10198753801E+01  0.10195916664E+01 0.  0.
     999903    2    3    3    0    0  0.52317880701E-02 -0.13020684875E+00 -0.98112449877E-02  0.13220522459E+00  0.20019136128E-01 0.  0.
         14    1    1    2    0    0 -0.18390833415E-01  0.15219726117E-01 -0.29600545824E-02  0.24054619928E-01  0.00000000000E+00 0. -1.
     999901    1    3    3    0    0  0.13159045345E-01  0.11498712264E+00  0.12771299570E-01  0.88767015549E+00  0.88000000000E+00 0.  1.
        -11    1    4    4    0    0  0.85355026250E-02 -0.94294227274E-01 -0.14672312643E-01  0.95811241416E-01  0.51100000000E-03 0.  1.
         11    1    4    4    0    0 -0.33037145549E-02 -0.35912621478E-01  0.48610676555E-02  0.36393983171E-01  0.51100000000E-03 0. -1.
</event>
<event>
 8    1  0.1042301E+005  0.1043930E+01  0.7957747E-01            NaN
         13   -1    0    0    0    0  0.00000000000E+00  0.00000000000E+00  0.74505805969E-08  0.10566000000E+00  0.10566000000E+00 0. -1.
     999900   -1    0    0    0    0 -0.00000000000E+00 -0.00000000000E+00 -0.74505805969E-08  0.93827000000E+00  0.93827000000E+00 0.  1.
     999902    2    1    2    0    0  0.13054532117E-01 -0.40873878168E-02  0.18699305314E-01  0.10207612373E+01  0.10204982665E+01 0.  0.
     999903    2    3    3    0    0 -0.12243629567E+00 -0.10152630313E-01 -0.33889401623E-01  0.12881946579E+00  0.18768079961E-01 0.  0.
         14    1    1    2    0    0 -0.13054532117E-01  0.40873878168E-02 -0.18699305314E-01  0.23168762746E-01  0.00000000000E+00 0.  1.
     999901    1    3    3    0    0  0.13549082779E+00  0.60652424965E-02  0.52588706937E-01  0.89194177146E+00  0.88000000000E+00 0. -1.
        -11    1    4    4    0    0 -0.91821625096E-01 -0.10460014709E-01 -0.17397414641E-01  0.94040171736E-01  0.51100000000E-03 0.  1.
         11    1    4    4    0    0 -0.30614670573E-01  0.30738439616E-03 -0.16491986983E-01  0.34779294057E-01  0.51100000000E-03 0. -1.
</event>
<event>
 8    1  0.1042301E+005  0.1043930E+01  0.7957747E-01            NaN
         13   -1    0    0    0    0  0.00000000000E+00  0.00000000000E+00  0.74505805969E-08  0.10566000000E+00  0.10566000000E+00 0.  1.
     999900   -1    0    0    0    0 -0.00000000000E+00 -0.00000000000E+00 -0.74505805969E-08  0.93827000000E+00  0.93827000000E+00 0. -1.
     999902    2    1    2    0    0  0.66294015745E-02  0.21223839746E-01 -0.20075755804E-02  0.10216044385E+01  0.10213604643E+01 0.  0.
     999903    2    3    3    0    0  0.87026415251E-01 -0.10616765359E-01  0.96387788338E-01  0.13190833776E+00  0.20564317935E-01 0.  0.
         14    1    1    2    0    0 -0.66294015745E-02 -0.21223839746E-01  0.20075755804E-02  0.22325561549E-01  0.00000000000E+00 0. -1.
     999901    1    3    3    0    0 -0.80397013676E-01  0.31840605105E-01 -0.98395363918E-01  0.88969610069E+00  0.88000000000E+00 0. -1.
        -11    1    4    4    0    0  0.10320897763E-01 -0.16542319057E-02  0.23458003775E-01  0.25686503770E-01  0.51100000000E-03 0.  1.
         11    1    4    4    0    0  0.76705517488E-01 -0.89625334533E-02  0.72929784563E-01  0.10622183399E+00  0.51100000000E-03 0. -1.
</event>
<event>
 8    1  0.1042301E+005  0.1043930E+01  0.7957747E-01            NaN
         13   -1    0    0    0    0  0.00000000000E+00  0.00000000000E+00  0.74505805969E-08  0.10566000000E+00  0.10566000000E+00 0. -1.
     999900   -1    0    0    0    0 -0.00000000000E+00 -0.00000000000E+00 -0.74505805969E-08  0.93827000000E+00  0.93827000000E+00 0.  1.
     999902    2    1    2    0    0 -0.15776412684E-01  0.17496984024E-01  0.33528378898E-02  0.10201333370E+01  0.10198557467E+01 0.  0.
     999903    2    3    3    0    0 -0.10899698145E-01  0.11228110087E+00 -0.66225303703E-01  0.13229949618E+00  0.19786783650E-01 0.  0.
         14    1    1    2    0    0  0.15776412684E-01 -0.17496984024E-01 -0.33528378898E-02  0.23796662981E-01  0.00000000000E+00 0.  1.
     999901    1    3    3    0    0 -0.48767145393E-02 -0.94784116844E-01  0.69578141593E-01  0.88783384084E+00  0.88000000000E+00 0. -1.
        -11    1    4    4    0    0 -0.69535618544E-02  0.78056826155E-01 -0.35105391708E-01  0.85871239538E-01  0.51100000000E-03 0.  1.
         11    1    4    4    0    0 -0.39461362903E-02  0.34224274713E-01 -0.31119911995E-01  0.46428256642E-01  0.51100000000E-03 0. -1.
</event>
<event>
 8    1  0.1042301E+005  0.1043930E+01  0.7957747E-01            NaN
         13   -1    0    0    0    0  0.00000000000E+00  0.00000000000E+00  0.74505805969E-08  0.10566000000E+00  0.10566000000E+00 0. -1.
     999900   -1    0    0    0    0 -0.00000000000E+00 -0.00000000000E+00 -0.74505805969E-08  0.93827000000E+00  0.93827000000E+00 0.  1.
     999902    2    1    2    0    0 -0.21332485455E-01  0.98745966130E-02 -0.29515094875E-02  0.10202383559E+01  0.10199632389E+01 0.  0.
     999903    2    3    3    0    0  0.35142200535E-01  0.94671794496E-01 -0.81020339647E-01  0.13092699465E+00  0.19489986156E-01 0.  0.
         14    1    1    2    0    0  0.21332485455E-01 -0.98745966130E-02  0.29515094875E-02  0.23691644143E-01  0.00000000000E+00 0. -1.
     999901    1    3    3    0    0 -0.56474685990E-01 -0.84797197883E-01  0.78068830159E-01  0.88931136121E+00  0.88000000000E+00 0.  1.
        -11    1    4    4    0    0  0.30018167080E-01  0.72919869687E-01 -0.72129524477E-01  0.10687060949E+00  0.51100000000E-03 0.  1.
         11    1    4    4    0    0  0.51240334552E-02  0.21751924809E-01 -0.88908151697E-02  0.24056385163E-01  0.51100000000E-03 0. -1.
</event>
<event>
 8    1  0.1042301E+005  0.1043930E+01  0.7957747E-01            NaN
         13   -1    0    0    0    0  0.00000000000E+00  0.00000000000E+00  0.74505805969E-08  0.10566000000E+00  0.10566000000E+00 0.  1.
     999900   -1    0    0    0    0 -0.00000000000E+00 -0.00000000000E+00 -0.74505805969E-08  0.93827000000E+00  0.93827000000E+00 0.  1.
     999902    2    1    2    0    0  0.19452077160E-01  0.16931153110E-02  0.13215341566E-01  0.10203525702E+01  0.10200801303E+01 0.  0.
     999903    2    3    3    0    0  0.47587195335E-01  0.59356991539E-01 -0.10390445323E+00  0.13027743073E+00  0.19704820528E-01 0.  0.
         14    1    1    2    0    0 -0.19452077160E-01 -0.16931153110E-02 -0.13215341566E-01  0.23577429843E-01  0.00000000000E+00 0. -1.
     999901    1    3    3    0    0 -0.28135118175E-01 -0.57663876228E-01  0.11711979479E+00  0.89007513943E+00  0.88000000000E+00 0. -1.
        -11    1    4    4    0    0  0.26967605093E-01  0.21253955105E-01 -0.36205626312E-01  0.49900809910E-01  0.51100000000E-03 0. -1.
         11    1    4    4    0    0  0.20619590242E-01  0.38103036435E-01 -0.67698826917E-01  0.80376620818E-01  0.51100000000E-03 0.  1.
</event>
<event>
 8    1  0.1042301E+005  0.1043930E+01  0.7957747E-01            NaN
         13   -1    0    0    0    0  0.00000000000E+00  0.00000000000E+00  0.74505805969E-08  0.10566000000E+00  0.10566000000E+00 0. -1.
     999900   -1    0    0    0    0 -0.00000000000E+00 -0.00000000000E+00 -0.74505805969E-08  0.93827000000E+00  0.93827000000E+00 0.  1.
     999902    2    1    2    0    0 -0.48254396656E-02  0.22356627300E-01  0.44150677842E-02  0.10206362997E+01  0.10203704522E+01 0.  0.
     999903    2    3    3    0    0  0.67625559238E-01 -0.10707950421E+00 -0.11450513365E-02  0.12820491613E+00  0.19898565073E-01 0.  0.
         14    1    1    2    0    0  0.48254396656E-02 -0.22356627300E-01 -0.44150677842E-02  0.23293700344E-01  0.00000000000E+00 0. -1.
     999901    1    3    3    0    0 -0.72450998904E-01  0.12943613151E+00  0.55601191207E-02  0.89243138353E+00  0.88000000000E+00 0.  1.
        -11    1    4    4    0    0  0.33352918196E-01 -0.36323062767E-01 -0.44333737323E-02  0.49514623745E-01  0.51100000000E-03 0. -1.
         11    1    4    4    0    0  0.34272641042E-01 -0.70756441445E-01  0.32883223957E-02  0.78690292382E-01  0.51100000000E-03 0.  1.
</event>
<event>
 8    1  0.1042301E+005  0.1043930E+01  0.7957747E-01            NaN
         13   -1    0    0    0    0  0.00000000000E+00  0.00000000000E+00  0.74505805969E-08  0.10566000000E+00  0.10566000000E+00 0.  1.
     999900   -1    0    0    0    0 -0.00000000000E+00 -0.00000000000E+00 -0.74505805969E-08  0.93827000000E+00  0.93827000000E+00 0. -1.
     999902    2    1    2    0    0 -0.10388636530E-01 -0.99789351905E-02  0.19306384616E-01  0.10198418410E+01  0.10195573261E+01 0.  0.
     999903    2    3    3    0    0  0.87019533131E-01 -0.82493103439E-01 -0.43138999088E-01  0.12931049285E+00  0.21970868385E-01 0.  0.
         14    1    1    2    0    0  0.10388636530E-01  0.99789351905E-02 -0.19306384616E-01  0.24088158988E-01  0.00000000000E+00 0.  1.
     999901    1    3    3    0    0 -0.97408169661E-01  0.72514168248E-01  0.62445383704E-01  0.89053134816E+00  0.88000000000E+00 0.  1.
        -11    1    4    4    0    0  0.69559517861E-02 -0.78164746070E-02  0.23749693439E-02  0.10741701025E-01  0.51100000000E-03 0.  1.
         11    1    4    4    0    0  0.80063581345E-01 -0.74676628832E-01 -0.45513968432E-01  0.11856879182E+00  0.51100000000E-03 0. -1.
</event>
<event>
 8    1  0.1042301E+005  0.1043930E+01  0.7957747E-01            NaN
         13   -1    0    0    0    0  0.00000000000E+00  0.00000000000E+00  0.74505805969E-08  0.10566000000E+00  0.10566000000E+00 0. -1.
     999900   -1    0    0    0    0 -0.00000000000E+00 -0.00000000000E+00 -0.74505805969E-08  0.93827000000E+00  0.93827000000E+00 0. -1.
     999902    2    1    2    0    0 -0.14032011845E-01  0.42258852824E-03 -0.19159278682E-01  0.10201780759E+01  0.10199015407E+01 0.  0.
     999903    2    3    3    0    0  0.11021580826E+00 -0.49784166891E-01  0.37519382536E-01  0.12823037022E+00  0.20232056673E-01 0.  0.
         14    1    1    2    0    0  0.14032011845E-01 -0.42258852824E-03  0.19159278682E-01  0.23751924072E-01  0.00000000000E+00 0. -1.
     999901    1    3    3    0    0 -0.12424782010E+00  0.50206755419E-01 -0.56678661219E-01  0.89194770571E+00  0.88000000000E+00 0. -1.
        -11    1    4    4    0    0  0.86881128715E-01 -0.47285567780E-01  0.27197813260E-01  0.10258770694E+00  0.51100000000E-03 0. -1.
         11    1    4    4    0    0  0.23334679540E-01 -0.24985991107E-02  0.10321569276E-01  0.25642663280E-01  0.51100000000E-03 0.  1.
</event>
<event>
 8    1  0.1042301E+005  0.1043930E+01  0.7957747E-01            NaN
         13   -1    0    0    0    0  0.00000000000E+00  0.00000000000E+00  0.74505805969E-08  0.10566000000E+00  0.10566000000E+00 0. -1.
     999900   -1    0    0    0    0 -0.00000000000E+00 -0.00000000000E+00 -0.74505805969E-08  0.93827000000E+00  0.93827000000E+00 0.  1.
     999902    2    1    2    0    0  0.36160670664E-02 -0.22567823236E-01 -0.59954544142E-02  0.10203010334E+01  0.10200273873E+01 0.  0.
     999903    2    3    3    0    0  0.93873830661E-01  0.68613282479E-01 -0.49591501209E-01  0.12992972145E+00  0.30038923236E-01 0.  0.
         14    1    1    2    0    0 -0.36160670664E-02  0.22567823236E-01  0.59954544142E-02  0.23628966551E-01  0.00000000000E+00 0.  1.
     999901    1    3    3    0    0 -0.90257763595E-01 -0.91181105715E-01  0.43596046795E-01  0.89037131200E+00  0.88000000000E+00 0. -1.
        -11    1    4    4    0    0  0.23764299103E-01  0.36904740670E-02 -0.54078504740E-02  0.24654968636E-01  0.51100000000E-03 0. -1.
         11    1    4    4    0    0  0.70109531558E-01  0.64922808412E-01 -0.44183650735E-01  0.10527475282E+00  0.51100000000E-03 0.  1.
</event>
<event>
 8    1  0.1042301E+005  0.1043930E+01  0.7957747E-01            NaN
         13   -1    0    0    0    0  0.00000000000E+00  0.00000000000E+00  0.74505805969E-08  0.10566000000E+00  0.10566000000E+00 0. -1.
     999900   -1    0    0    0    0 -0.00000000000E+00 -0.00000000000E+00 -0.74505805969E-08  0.93827000000E+00  0.93827000000E+00 0. -1.
     999902    2    1    2    0    0 -0.80701297939E-02  0.77711934448E-02 -0.23822401515E-01  0.10176046271E+01  0.10172640522E+01 0.  0.
     999903    2    3    3    0    0  0.73899038792E-01 -0.10110523680E+00  0.59992629843E-03  0.12677946373E+00  0.19731590632E-01 0.  0.
         14    1    1    2    0    0  0.80701297939E-02 -0.77711934448E-02  0.23822401515E-01  0.26325372864E-01  0.00000000000E+00 0. -1.
     999901    1    3    3    0    0 -0.81969168585E-01  0.10887643025E+00 -0.24422327814E-01  0.89082516341E+00  0.88000000000E+00 0. -1.
        -11    1    4    4    0    0  0.33020872712E-01 -0.47518862077E-01 -0.94493809460E-02  0.58634223872E-01  0.51100000000E-03 0.  1.
         11    1    4    4    0    0  0.40878166079E-01 -0.53586374725E-01  0.10049307244E-01  0.68145239858E-01  0.51100000000E-03 0. -1.
</event>
<event>
 8    1  0.1042301E+005  0.1043930E+01  0.7957747E-01            NaN
         13   -1    0    0    0    0  0.00000000000E+00  0.00000000000E+00  0.74505805969E-08  0.10566000000E+00  0.10566000000E+00 0.  1.
     999900   -1    0    0    0    0 -0.00000000000E+00 -0.00000000000E+00 -0.74505805969E-08  0.93827000000E+00  0.93827000000E+00 0. -1.
     999902    2    1    2    0    0  0.16715633567E-01 -0.14047374970E-01 -0.71191774714E-02  0.10209642900E+01  0.10207059604E+01 0.  0.
     999903    2    3    3    0    0  0.54537040826E-01 -0.10315782169E+00  0.57566017007E-01  0.13329582430E+00  0.28950051194E-01 0.  0.
         14    1    1    2    0    0 -0.16715633567E-01  0.14047374970E-01  0.71191774714E-02  0.22965710025E-01  0.00000000000E+00 0.  1.
     999901    1    3    3    0    0 -0.37821407258E-01  0.89110446724E-01 -0.64685194478E-01  0.88766846567E+00  0.88000000000E+00 0.  1.
        -11    1    4    4    0    0  0.52544936845E-01 -0.74423511896E-01  0.47761910281E-01  0.10286540092E+00  0.51100000000E-03 0.  1.
         11    1    4    4    0    0  0.19921039803E-02 -0.28734309798E-01  0.98041067250E-02  0.30430423387E-01  0.51100000000E-03 0. -1.
</event>
<event>
 8    1  0.1042301E+005  0.1043930E+01  0.7957747E-01            NaN
         13   -1    0    0    0    0  0.00000000000E+00  0.00000000000E+00  0.74505805969E-08  0.10566000000E+00  0.10566000000E+00 0. -1.
     999900   -1    0    0    0    0 -0.00000000000E+00 -0.00000000000E+00 -0.74505805969E-08  0.93827000000E+00  0.93827000000E+00 0.  1.
     999902    2    1    2    0    0 -0.53172229003E-02  0.10413105910E-01  0.35199494075E-01  0.10068394349E+01  0.10061560206E+01 0.  0.
     999903    2    3    3    0    0  0.45699983442E-01  0.98002629914E-01  0.50130652213E-01  0.12089495612E+00  0.20236209289E-01 0.  0.
         14    1    1    2    0    0  0.53172229003E-02 -0.10413105910E-01 -0.35199494075E-01  0.37090565069E-01  0.00000000000E+00 0.  1.
     999901    1    3    3    0    0 -0.51017206342E-01 -0.87589524004E-01 -0.14931158139E-01  0.88594447881E+00  0.88000000000E+00 0. -1.
        -11    1    4    4    0    0  0.39183335005E-01  0.82284518588E-01  0.33512409491E-01  0.97105192715E-01  0.51100000000E-03 0. -1.
         11    1    4    4    0    0  0.65166484365E-02  0.15718111326E-01  0.16618242722E-01  0.23789763401E-01  0.51100000000E-03 0.  1.
</event>
<event>
 8    1  0.1042301E+005  0.1043930E+01  0.7957747E-01            NaN
         13   -1    0    0    0    0  0.00000000000E+00  0.00000000000E+00  0.74505805969E-08  0.10566000000E+00  0.10566000000E+00 0.  1.
     999900   -1    0    0    0    0 -0.00000000000E+00 -0.00000000000E+00 -0.74505805969E-08  0.93827000000E+00  0.93827000000E+00 0. -1.
     999902    2    1    2    0    0  0.34858108201E-02  0.79692621038E-02 -0.21376189209E-01  0.10208518397E+01  0.10205909451E+01 0.  0.
     999903    2    3    3    0    0 -0.19179557113E-02  0.17259802804E-02  0.12684335975E+00  0.12841852910E+00  0.19885249342E-01 0.  0.
         14    1    1    2    0    0 -0.34858108201E-02 -0.79692621038E-02  0.21376189209E-01  0.23078160253E-01  0.00000000000E+00 0.  1.
     999901    1    3    3    0    0  0.54037665314E-02  0.62432818234E-02 -0.14821954896E+00  0.89243331065E+00  0.88000000000E+00 0. -1.
        -11    1    4    4    0    0 -0.83998952794E-02 -0.46527863470E-02  0.41954419348E-01  0.43042317379E-01  0.51100000000E-03 0. -1.
         11    1    4    4    0    0  0.64819395682E-02  0.63787666274E-02  0.84888940402E-01  0.85376211721E-01  0.51100000000E-03 0.  1.
</event>
<event>
 8    1  0.1042301E+005  0.1043930E+01  0.7957747E-01            NaN
         13   -1    0    0    0    0  0.00000000000E+00  0.00000000000E+00  0.74505805969E-08  0.10566000000E+00  0.10566000000E+00 0.  1.
     999900   -1    0    0    0    0 -0.00000000000E+00 -0.00000000000E+00 -0.74505805969E-08  0.93827000000E+00  0.93827000000E+00 0.  1.
     999902    2    1    2    0    0 -0.21041249851E-01  0.90825768197E-02  0.60242973482E-02  0.10202335961E+01  0.10199583674E+01 0.  0.
     999903    2    3    3    0    0 -0.28949735058E-01  0.10839866991E+00 -0.65968322555E-01  0.13169031200E+00  0.20053924686E-01 0.  0.
         14    1    1    2    0    0  0.21041249851E-01 -0.90825768197E-02 -0.60242973482E-02  0.23696403852E-01  0.00000000000E+00 0. -1.
     999901    1    3    3    0    0  0.79084852074E-02 -0.99316093092E-01  0.71992619903E-01  0.88854328415E+00  0.88000000000E+00 0.  1.
        -11    1    4    4    0    0 -0.52625957193E-02  0.72381637821E-02 -0.69648714993E-03  0.89906698299E-02  0.51100000000E-03 0.  1.
         11    1    4    4    0    0 -0.23687139339E-01  0.10116050613E+00 -0.65271835405E-01  0.12269964217E+00  0.51100000000E-03 0. -1.
</event>
<event>
 8    1  0.1042301E+005  0.1043930E+01  0.7957747E-01            NaN
         13   -1    0    0    0    0  0.00000000000E+00  0.00000000000E+00  0.74505805969E-08  0.10566000000E+00  0.10566000000E+00 0. -1.
     999900   -1    0    0    0    0 -0.00000000000E+00 -0.00000000000E+00 -0.74505805969E-08  0.93827000000E+00  0.93827000000E+00 0.  1.
     999902    2    1    2    0    0  0.12044136642E-01  0.13468686120E-01 -0.16527986851E-01  0.10194424300E+01  0.10191482851E+01 0.  0.
     999903    2    3    3    0    0  0.69792329463E-01  0.12035837821E-01 -0.10991626100E+00  0.13261760146E+00  0.22136240450E-01 0.  0.
         14    1    1    2    0    0 -0.12044136642E-01 -0.13468686120E-01  0.16527986851E-01  0.24487569961E-01  0.00000000000E+00 0. -1.
     999901    1    3    3    0    0 -0.57748192821E-01  0.14328482992E-02  0.93388274151E-01  0.88682482858E+00  0.88000000000E+00 0. -1.
        -11    1    4    4    0    0  0.35674914471E-01  0.16544551886E-01 -0.65893531330E-01  0.76737476579E-01  0.51100000000E-03 0.  1.
         11    1    4    4    0    0  0.34117414992E-01 -0.45087140655E-02 -0.44022729673E-01  0.55880124884E-01  0.51100000000E-03 0. -1.
</event>
<event>
 8    1  0.1042301E+005  0.1043930E+01  0.7957747E-01            NaN
         13   -1    0    0    0    0  0.00000000000E+00  0.00000000000E+00  0.74505805969E-08  0.10566000000E+00  0.10566000000E+00 0. -1.
     999900   -1    0    0    0    0 -0.00000000000E+00 -0.00000000000E+00 -0.74505805969E-08  0.93827000000E+00  0.93827000000E+00 0. -1.
     999902    2    1    2    0    0  0.16712220210E-01 -0.17279572604E-01 -0.76596793939E-04  0.10198907030E+01  0.10196073549E+01 0.  0.
     999903    2    3    3    0    0  0.35744470181E-01 -0.64694790273E-01 -0.10746277021E+00  0.13189170544E+00  0.19598263834E-01 0.  0.
         14    1    1    2    0    0 -0.16712220210E-01  0.17279572604E-01  0.76596793939E-04  0.24039297011E-01  0.00000000000E+00 0.  1.
     999901    1    3    3    0    0 -0.19032249971E-01  0.47415217669E-01  0.10738617342E+00  0.88799899755E+00  0.88000000000E+00 0.  1.
        -11    1    4    4    0    0  0.29957422126E-01 -0.34571883414E-01 -0.66414941085E-01  0.80646560891E-01  0.51100000000E-03 0. -1.
         11    1    4    4    0    0  0.57870480553E-02 -0.30122906859E-01 -0.41047829127E-01  0.51245144549E-01  0.51100000000E-03 0.  1.
</event>
<event>
 8    1  0.1042301E+005  0.1043930E+01  0.7957747E-01            NaN
         13   -1    0    0    0    0  0.00000000000E+00  0.00000000000E+00  0.74505805969E-08  0.10566000000E+00  0.10566000000E+00 0. -1.
     999900   -1    0    0    0    0 -0.00000000000E+00 -0.00000000000E+00 -0.74505805969E-08  0.93827000000E+00  0.93827000000E+00 0.  1.
     999902    2    1    2    0    0  0.11637155819E-03  0.13518065208E-01 -0.20301115480E-01  0.10195396962E+01  0.10192479116E+01 0.  0.
     999903    2    3    3    0    0  0.61958588237E-01  0.99428059419E-01 -0.58390402996E-01  0.13237805328E+00  0.19740926286E-01 0.  0.
         14    1    1    2    0    0 -0.11637155819E-03 -0.13518065208E-01  0.20301115480E-01  0.24390303791E-01  0.00000000000E+00 0. -1.
     999901    1    3    3    0    0 -0.61842216679E-01 -0.85909994211E-01  0.38089287516E-01  0.88716164293E+00  0.88000000000E+00 0.  1.
        -11    1    4    4    0    0  0.46698230955E-02  0.11435835754E-01 -0.13143762983E-01  0.18044534172E-01  0.51100000000E-03 0.  1.
         11    1    4    4    0    0  0.57288765142E-01  0.87992223665E-01 -0.45246640013E-01  0.11433351910E+00  0.51100000000E-03 0. -1.
</event>
<event>
 8    1  0.1042301E+005  0.1043930E+01  0.7957747E-01            NaN
         13   -1    0    0    0    0  0.00000000000E+00  0.00000000000E+00  0.74505805969E-08  0.10566000000E+00  0.10566000000E+00 0. -1.
     999900   -1    0    0    0    0 -0.00000000000E+00 -0.00000000000E+00 -0.74505805969E-08  0.93827000000E+00  0.93827000000E+00 0.  1.
     999902    2    1    2    0    0  0.73322405758E-02 -0.27044776267E-02 -0.21613603552E-01  0.10209468799E+01  0.10206881540E+01 0.  0.
     999903    2    3    3    0    0  0.65481369112E-01 -0.69179430206E-03  0.10942991660E+00  0.12934283313E+00  0.21595683703E-01 0.  0.
         14    1    1    2    0    0 -0.73322405758E-02  0.27044776267E-02  0.21613603552E-01  0.22983120101E-01  0.00000000000E+00 0. -1.
     999901    1    3    3    0    0 -0.58149128536E-01 -0.20126833246E-02 -0.13104352015E+00  0.89160404677E+00  0.88000000000E+00 0.  1.
        -11    1    4    4    0    0  0.19233709916E-01 -0.65375087959E-02  0.20111401698E-01  0.28590281875E-01  0.51100000000E-03 0.  1.
         11    1    4    4    0    0  0.46247659196E-01  0.58457144938E-02  0.89318514901E-01  0.10075255125E+00  0.51100000000E-03 0. -1.
</event>
<event>
 8    1  0.1042301E+005  0.1043930E+01  0.7957747E-01            NaN
         13   -1    0    0    0    0  0.00000000000E+00  0.00000000000E+00  0.74505805969E-08  0.10566000000E+00  0.10566000000E+00 0.  1.
     999900   -1    0    0    0    0 -0.00000000000E+00 -0.00000000000E+00 -0.74505805969E-08  0.93827000000E+00  0.93827000000E+00 0. -1.
     999902    2    1    2    0    0  0.22239744050E-01 -0.51936546798E-03 -0.10997676109E-01  0.10191141817E+01  0.10188119996E+01 0.  0.
     999903    2    3    3    0    0  0.30476013190E-01 -0.45154140911E-01 -0.11799402176E+00  0.13147218336E+00  0.19866101939E-01 0.  0.
         14    1    1    2    0    0 -0.22239744050E-01  0.51936546798E-03  0.10997676109E-01  0.24815818255E-01  0.00000000000E+00 0. -1.
     999901    1    3    3    0    0 -0.82362691401E-02  0.44634775443E-01  0.10699634565E+00  0.88764199838E+00  0.88000000000E+00 0.  1.
        -11    1    4    4    0    0  0.39516533904E-02 -0.12816912788E-01 -0.14062368825E-01  0.19439654213E-01  0.51100000000E-03 0. -1.
         11    1    4    4    0    0  0.26524359799E-01 -0.32337228123E-01 -0.10393165293E+00  0.11203252915E+00  0.51100000000E-03 0.  1.
</event>
<event>
 8    1  0.1042301E+005  0.1043930E+01  0.7957747E-01            NaN
         13   -1    0    0    0    0  0.00000000000E+00  0.00000000000E+00  0.74505805969E-08  0.10566000000E+00  0.10566000000E+00 0. -1.
     999900   -1    0    0    0    0 -0.00000000000E+00 -0.00000000000E+00 -0.74505805969E-08  0.93827000000E+00  0.93827000000E+00 0.  1.
     999902    2    1    2    0    0 -0.88064712752E-02 -0.21917438687E-01 -0.14230030062E-02  0.10202666741E+01  0.10199922222E+01 0.  0.
     999903    2    3    3    0    0 -0.38594374169E-01  0.39682499757E-01  0.11593020855E+00  0.12984337711E+00  0.18848416906E-01 0.  0.
         14    1    1    2    0    0  0.88064712752E-02  0.21917438687E-01  0.14230030062E-02  0.23663325897E-01  0.00000000000E+00 0.  1.
     999901    1    3    3    0    0  0.29787902894E-01 -0.61599938445E-01 -0.11735321155E+00  0.89042329700E+00  0.88000000000E+00 0. -1.
        -11    1    4    4    0    0 -0.21154095724E-01  0.30852934931E-01  0.61252776542E-01  0.71774390383E-01  0.51100000000E-03 0.  1.
         11    1    4    4    0    0 -0.17440278445E-01  0.88295648261E-02  0.54677432005E-01  0.58068986723E-01  0.51100000000E-03 0. -1.
</event>
<event>
 8    1  0.1042301E+005  0.1043930E+01  0.7957747E-01            NaN
         13   -1    0    0    0    0  0.00000000000E+00  0.00000000000E+00  0.74505805969E-08  0.10566000000E+00  0.10566000000E+00 0.  1.
     999900   -1    0    0    0    0 -0.00000000000E+00 -0.00000000000E+00 -0.74505805969E-08  0.93827000000E+00  0.93827000000E+00 0. -1.
     999902    2    1    2    0    0  0.38310491513E-03 -0.19910245340E-01  0.11947234335E-01  0.10207071439E+01  0.10204429296E+01 0.  0.
     999903    2    3    3    0    0  0.93741368133E-01  0.53372422821E-01 -0.68054288750E-01  0.12914314815E+00  0.20260969340E-01 0.  0.
         14    1    1    2    0    0 -0.38310491513E-03  0.19910245340E-01 -0.11947234335E-01  0.23222856137E-01  0.00000000000E+00 0. -1.
     999901    1    3    3    0    0 -0.93358263218E-01 -0.73282668161E-01  0.80001523085E-01  0.89156399572E+00  0.88000000000E+00 0.  1.
        -11    1    4    4    0    0  0.52242374509E-01  0.19166442278E-01 -0.39572987698E-01  0.68285435346E-01  0.51100000000E-03 0.  1.
         11    1    4    4    0    0  0.41498993623E-01  0.34205980544E-01 -0.28481301051E-01  0.60857712800E-01  0.51100000000E-03 0. -1.
</event>
<event>
 8    1  0.1042301E+005  0.1043930E+01  0.7957747E-01            NaN
         13   -1    0    0    0    0  0.00000000000E+00  0.00000000000E+00  0.74505805969E-08  0.10566000000E+00  0.10566000000E+00 0.  1.
     999900   -1    0    0    0    0 -0.00000000000E+00 -0.00000000000E+00 -0.74505805969E-08  0.93827000000E+00  0.93827000000E+00 0.  1.
     999902    2    1    2    0    0  0.14302225756E-01 -0.17889068279E-01  0.77868360089E-02  0.10197389430E+01  0.10194519628E+01 0.  0.
     999903    2    3    3    0    0  0.11049245523E+00  0.32970865885E-01  0.59877279786E-01  0.13150884469E+00  0.20337820376E-01 0.  0.
         14    1    1    2    0    0 -0.14302225756E-01  0.17889068279E-01 -0.77868360089E-02  0.24191057036E-01  0.00000000000E+00 0. -1.
     999901    1    3    3    0    0 -0.96190229470E-01 -0.50859934164E-01 -0.52090443777E-01  0.88823009828E+00  0.88000000000E+00 0.  1.
        -11    1    4    4    0    0  0.52575636325E-01  0.12594533010E-01  0.38976144483E-01  0.66649986920E-01  0.51100000000E-03 0.  1.
         11    1    4    4    0    0  0.57916818901E-01  0.20376332875E-01  0.20901135303E-01  0.64858857769E-01  0.51100000000E-03 0. -1.
</event>
<event>
 8    1  0.1042301E+005  0.1043930E+01  0.7957747E-01            NaN
         13   -1    0    0    0    0  0.00000000000E+00  0.00000000000E+00  0.74505805969E-08  0.10566000000E+00  0.10566000000E+00 0.  1.
     999900   -1    0    0    0    0 -0.00000000000E+00 -0.00000000000E+00 -0.74505805969E-08  0.93827000000E+00  0.93827000000E+00 0.  1.
     999902    2    1    2    0    0  0.13838138636E-01 -0.12076449694E-01 -0.15324983814E-01  0.10200095099E+01  0.10197289887E+01 0.  0.
     999903    2    3    3    0    0  0.11241930131E+00  0.31537227058E-01  0.53981407185E-01  0.13072677967E+00  0.23298124480E-01 0.  0.
         14    1    1    2    0    0 -0.13838138636E-01  0.12076449694E-01  0.15324983814E-01  0.23920490108E-01  0.00000000000E+00 0.  1.
     999901    1    3    3    0    0 -0.98581162674E-01 -0.43613676752E-01 -0.69306390999E-01  0.88928273022E+00  0.88000000000E+00 0.  1.
        -11    1    4    4    0    0  0.54710978379E-01  0.27404170416E-01  0.28587153572E-01  0.67540848245E-01  0.51100000000E-03 0. -1.
         11    1    4    4    0    0  0.57708322931E-01  0.41330566423E-02  0.25394253612E-01  0.63185931426E-01  0.51100000000E-03 0.  1.
</event>
<event>
 8    1  0.1042301E+005  0.1043930E+01  0.7957747E-01            NaN
         13   -1    0    0    0    0  0.00000000000E+00  0.00000000000E+00  0.74505805969E-08  0.10566000000E+00  0.10566000000E+00 0. -1.
     999900   -1    0    0    0    0 -0.00000000000E+00 -0.00000000000E+00 -0.74505805969E-08  0.93827000000E+00  0.93827000000E+00 0. -1.
     999902    2    1    2    0    0  0.12046029687E-01  0.14317787330E-01  0.14473843585E-01  0.10202741759E+01  0.10199999000E+01 0.  0.
     999903    2    3    3    0    0  0.35215346826E-02  0.12979255476E+00  0.17645744593E-01  0.13268353272E+00  0.20857590326E-01 0.  0.
         14    1    1    2    0    0 -0.12046029687E-01 -0.14317787330E-01 -0.14473843585E-01  0.23655824090E-01  0.00000000000E+00 0.  1.
     999901    1    3    3    0    0  0.85244950046E-02 -0.11547476743E+00 -0.31719010079E-02  0.88759064319E+00  0.88000000000E+00 0.  1.
        -11    1    4    4    0    0 -0.47496762976E-02  0.15319296956E-01 -0.22344633634E-02  0.16201673731E-01  0.51100000000E-03 0. -1.
         11    1    4    4    0    0  0.82712109802E-02  0.11447325780E+00  0.19880207956E-01  0.11648185899E+00  0.51100000000E-03 0.  1.
</event>
<event>
 8    1  0.1042301E+005  0.1043930E+01  0.7957747E-01            NaN
         13   -1    0    0    0    0  0.00000000000E+00  0.00000000000E+00  0.74505805969E-08  0.10566000000E+00  0.10566000000E+00 0.  1.
     999900   -1    0    0    0    0 -0.00000000000E+00 -0.00000000000E+00 -0.74505805969E-08  0.93827000000E+00  0.93827000000E+00 0.  1.
     999902    2    1    2    0    0 -0.81968650013E-02  0.16510904660E-01  0.16111886573E-01  0.10194475275E+01  0.10191535066E+01 0.  0.
     999903    2    3    3    0    0 -0.43533257036E-01 -0.10890517062E+00  0.50328670934E-01  0.12919551779E+00  0.20075508558E-01 0.  0.
         14    1    1    2    0    0  0.81968650013E-02 -0.16510904660E-01 -0.16111886573E-01  0.24482472454E-01  0.00000000000E+00 0.  1.
     999901    1    3    3    0    0  0.35336392034E-01  0.12541607528E+00 -0.34216784362E-01  0.89025200975E+00  0.88000000000E+00 0. -1.
        -11    1    4    4    0    0 -0.41871270564E-01 -0.84022784474E-01  0.42513948734E-01  0.10305691907E+00  0.51100000000E-03 0. -1.
         11    1    4    4    0    0 -0.16619864714E-02 -0.24882386144E-01  0.78147222007E-02  0.26138598726E-01  0.51100000000E-03 0.  1.
</event>
<event>
 8    1  0.1042301E+005  0.1043930E+01  0.7957747E-01            NaN
         13   -1    0    0    0    0  0.00000000000E+00  0.00000000000E+00  0.74505805969E-08  0.10566000000E+00  0.10566000000E+00 0. -1.
     999900   -1    0    0    0    0 -0.00000000000E+00 -0.00000000000E+00 -0.74505805969E-08  0.93827000000E+00  0.93827000000E+00 0. -1.
     999902    2    1    2    0    0  0.19067252100E-02 -0.22623901055E-01 -0.61144901009E-02  0.10204169507E+01  0.10201460139E+01 0.  0.
     999903    2    3    3    0    0 -0.99564013978E-02 -0.13050054736E+00  0.14589504526E-01  0.13350840973E+00  0.21957209192E-01 0.  0.
         14    1    1    2    0    0 -0.19067252100E-02  0.22623901055E-01  0.61144901009E-02  0.23513049338E-01  0.00000000000E+00 0. -1.
     999901    1    3    3    0    0  0.11863126608E-01  0.10787664630E+00 -0.20703994627E-01  0.88690854094E+00  0.88000000000E+00 0.  1.
        -11    1    4    4    0    0 -0.62770683836E-02 -0.10085831798E-01  0.41124537197E-02  0.12581692539E-01  0.51100000000E-03 0. -1.
         11    1    4    4    0    0 -0.36793330143E-02 -0.12041471556E+00  0.10477050807E-01  0.12092671719E+00  0.51100000000E-03 0.  1.
</event>
<event>
 8    1  0.1042301E+005  0.1043930E+01  0.7957747E-01            NaN
         13   -1    0    0    0    0  0.00000000000E+00  0.00000000000E+00  0.74505805969E-08  0.10566000000E+00  0.10566000000E+00 0. -1.
     999900   -1    0    0    0    0 -0.00000000000E+00 -0.00000000000E+00 -0.74505805969E-08  0.93827000000E+00  0.93827000000E+00 0. -1.
     999902    2    1    2    0    0  0.81878331185E-02  0.15970628737E-01  0.14874592355E-01  0.10206200216E+01  0.10203537982E+01 0.  0.
     999903    2    3    3    0    0 -0.10225055082E+00  0.63163080292E-01 -0.46441013529E-01  0.13034850819E+00  0.19728557841E-01 0.  0.
         14    1    1    2    0    0 -0.81878331185E-02 -0.15970628737E-01 -0.14874592355E-01  0.23309978360E-01  0.00000000000E+00 0.  1.
     999901    1    3    3    0    0  0.11043838394E+00 -0.47192451556E-01  0.61315605884E-01  0.89027151345E+00  0.88000000000E+00 0.  1.
        -11    1    4    4    0    0 -0.42988543769E-01  0.38068921595E-01 -0.22836647322E-01  0.61798311212E-01  0.51100000000E-03 0.  1.
         11    1    4    4    0    0 -0.59262007055E-01  0.25094158697E-01 -0.23604366207E-01  0.68550196980E-01  0.51100000000E-03 0. -1.
</event>
<event>
 8    1  0.1042301E+005  0.1043930E+01  0.7957747E-01            NaN
         13   -1    0    0    0    0  0.00000000000E+00  0.00000000000E+00  0.74505805969E-08  0.10566000000E+00  0.10566000000E+00 0.  1.
     999900   -1    0    0    0    0 -0.00000000000E+00 -0.00000000000E+00 -0.74505805969E-08  0.93827000000E+00  0.93827000000E+00 0.  1.
     999902    2    1    2    0    0  0.18936851290E-01 -0.51897958223E-02 -0.28031580403E-02  0.10240957868E+01  0.10239036989E+01 0.  0.
     999903    2    3    3    0    0  0.12931278484E+00  0.19730384648E-01 -0.33005646942E-01  0.13633678099E+00  0.19678940979E-01 0.  0.
         14    1    1    2    0    0 -0.18936851290E-01  0.51897958223E-02  0.28031580403E-02  0.19834213180E-01  0.00000000000E+00 0. -1.
     999901    1    3    3    0    0 -0.11037593355E+00 -0.24920180470E-01  0.30202488902E-01  0.88775900583E+00  0.88000000000E+00 0.  1.
        -11    1    4    4    0    0  0.51771293257E-01 -0.10956764407E-02 -0.92497943924E-02  0.52605010499E-01  0.51100000000E-03 0.  1.
         11    1    4    4    0    0  0.77541491585E-01  0.20826061088E-01 -0.23755852550E-01  0.83731770488E-01  0.51100000000E-03 0. -1.
</event>
<event>
 8    1  0.1042301E+005  0.1043930E+01  0.7957747E-01            NaN
         13   -1    0    0    0    0  0.00000000000E+00  0.00000000000E+00  0.74505805969E-08  0.10566000000E+00  0.10566000000E+00 0.  1.
     999900   -1    0    0    0    0 -0.00000000000E+00 -0.00000000000E+00 -0.74505805969E-08  0.93827000000E+00  0.93827000000E+00 0.  1.
     999902    2    1    2    0    0 -0.69951277099E-02 -0.44571485319E-02 -0.22018643030E-01  0.10204008983E+01  0.10201295872E+01 0.  0.
     999903    2    3    3    0    0  0.57410208734E-01 -0.70843477331E-01 -0.95330986512E-01  0.13252146297E+00  0.12617876689E-01 0.  0.
         14    1    1    2    0    0  0.69951277099E-02  0.44571485319E-02  0.22018643030E-01  0.23529101674E-01  0.00000000000E+00 0.  1.
     999901    1    3    3    0    0 -0.64405336444E-01  0.66386328799E-01  0.73312343482E-01  0.88787943535E+00  0.88000000000E+00 0. -1.
        -11    1    4    4    0    0  0.23220081778E-01 -0.31869008489E-01 -0.32809146075E-01  0.51298217192E-01  0.51100000000E-03 0. -1.
         11    1    4    4    0    0  0.34190126955E-01 -0.38974468842E-01 -0.62521840437E-01  0.81223245782E-01  0.51100000000E-03 0.  1.
</event>
<event>
 8    1  0.1042301E+005  0.1043930E+01  0.7957747E-01            NaN
         13   -1    0    0    0    0  0.00000000000E+00  0.00000000000E+00  0.74505805969E-08  0.10566000000E+00  0.10566000000E+00 0.  1.
     999900   -1    0    0    0    0 -0.00000000000E+00 -0.00000000000E+00 -0.74505805969E-08  0.93827000000E+00  0.93827000000E+00 0. -1.
     999902    2    1    2    0    0 -0.12445929210E-01  0.12838306858E-01 -0.16161200542E-01  0.10198279735E+01  0.10195431271E+01 0.  0.
     999903    2    3    3    0    0 -0.88039111742E-01  0.79229502050E-01  0.48060573847E-01  0.13177022972E+00  0.32021484819E-01 0.  0.
         14    1    1    2    0    0  0.12445929210E-01 -0.12838306858E-01  0.16161200542E-01  0.24102026467E-01  0.00000000000E+00 0. -1.
     999901    1    3    3    0    0  0.75593182532E-01 -0.66391195192E-01 -0.64221774388E-01  0.88805774382E+00  0.88000000000E+00 0.  1.
        -11    1    4    4    0    0 -0.52295066486E-01  0.32053304364E-01  0.12126203648E-01  0.62525948496E-01  0.51100000000E-03 0.  1.
         11    1    4    4    0    0 -0.35744045256E-01  0.47176197686E-01  0.35934370199E-01  0.69244281222E-01  0.51100000000E-03 0. -1.
</event>
<event>
 8    1  0.1042301E+005  0.1043930E+01  0.7957747E-01            NaN
         13   -1    0    0    0    0  0.00000000000E+00  0.00000000000E+00  0.74505805969E-08  0.10566000000E+00  0.10566000000E+00 0. -1.
     999900   -1    0    0    0    0 -0.00000000000E+00 -0.00000000000E+00 -0.74505805969E-08  0.93827000000E+00  0.93827000000E+00 0.  1.
     999902    2    1    2    0    0 -0.20657121781E-01  0.54387700079E-02 -0.10517171742E-01  0.10201201743E+01  0.10198422732E+01 0.  0.
     999903    2    3    3    0    0  0.12544764795E+00 -0.84578412969E-02  0.10309689902E-01  0.12772257359E+00  0.19952910635E-01 0.  0.
         14    1    1    2    0    0  0.20657121781E-01 -0.54387700079E-02  0.10517171742E-01  0.23809825723E-01  0.00000000000E+00 0. -1.
     999901    1    3    3    0    0 -0.14610476973E+00  0.13896611305E-01 -0.20826861644E-01  0.89239760069E+00  0.88000000000E+00 0. -1.
        -11    1    4    4    0    0  0.11607283118E+00 -0.10458196649E-01  0.47751638510E-02  0.11664192783E+00  0.51100000000E-03 0. -1.
         11    1    4    4    0    0  0.93748167688E-02  0.20003553522E-02  0.55345260506E-02  0.11080645766E-01  0.51100000000E-03 0.  1.
</event>
<event>
 8    1  0.1042301E+005  0.1043930E+01  0.7957747E-01            NaN
         13   -1    0    0    0    0  0.00000000000E+00  0.00000000000E+00  0.74505805969E-08  0.10566000000E+00  0.10566000000E+00 0.  1.
     999900   -1    0    0    0    0 -0.00000000000E+00 -0.00000000000E+00 -0.74505805969E-08  0.93827000000E+00  0.93827000000E+00 0.  1.
     999902    2    1    2    0    0 -0.13356893065E-01 -0.11805427154E-01  0.15326991351E-01  0.10204206111E+01  0.10201497597E+01 0.  0.
     999903    2    3    3    0    0 -0.68143733458E-01 -0.46401863168E-02 -0.10891631263E+00  0.12997727369E+00  0.19137104755E-01 0.  0.
         14    1    1    2    0    0  0.13356893065E-01  0.11805427154E-01 -0.15326991351E-01  0.23509388901E-01  0.00000000000E+00 0. -1.
     999901    1    3    3    0    0  0.54786840393E-01 -0.71652408372E-02  0.12424330399E+00  0.89044333741E+00  0.88000000000E+00 0. -1.
        -11    1    4    4    0    0 -0.19928216634E-01  0.66178610778E-02 -0.39102814523E-01  0.44387173013E-01  0.51100000000E-03 0. -1.
         11    1    4    4    0    0 -0.48215516824E-01 -0.11258047395E-01 -0.69813498111E-01  0.85590100673E-01  0.51100000000E-03 0.  1.
</event>
<event>
 8    1  0.1042301E+005  0.1043930E+01  0.7957747E-01            NaN
         13   -1    0    0    0    0  0.00000000000E+00  0.00000000000E+00  0.74505805969E-08  0.10566000000E+00  0.10566000000E+00 0.  1.
     999900   -1    0    0    0    0 -0.00000000000E+00 -0.00000000000E+00 -0.74505805969E-08  0.93827000000E+00  0.93827000000E+00 0. -1.
     999902    2    1    2    0    0  0.17688884253E-01  0.15442734033E-01 -0.21350639492E-02  0.10203517652E+01  0.10200793065E+01 0.  0.
     999903    2    3    3    0    0  0.58395318728E-01  0.11823892442E+00  0.43068971110E-03  0.13342975412E+00  0.20318890073E-01 0.  0.
         14    1    1    2    0    0 -0.17688884253E-01 -0.15442734033E-01  0.21350639492E-02  0.23578234849E-01  0.00000000000E+00 0.  1.
     999901    1    3    3    0    0 -0.40706434475E-01 -0.10279619038E+00 -0.25657536603E-02  0.88692201103E+00  0.88000000000E+00 0.  1.
        -11    1    4    4    0    0  0.18208503329E-01  0.20461262150E-01  0.38221189927E-02  0.27660125757E-01  0.51100000000E-03 0. -1.
         11    1    4    4    0    0  0.40186815399E-01  0.97777662265E-01 -0.33914292816E-02  0.10576962836E+00  0.51100000000E-03 0.  1.
</event>
<event>
 8    1  0.1042301E+005  0.1043930E+01  0.7957747E-01            NaN
         13   -1    0    0    0    0  0.00000000000E+00  0.00000000000E+00  0.74505805969E-08  0.10566000000E+00  0.10566000000E+00 0. -1.
     999900   -1    0    0    0    0 -0.00000000000E+00 -0.00000000000E+00 -0.74505805969E-08  0.93827000000E+00  0.93827000000E+00 0. -1.
     999902    2    1    2    0    0 -0.16935439038E-01 -0.15524457699E-01 -0.61070382598E-02  0.10201578777E+01  0.10198808664E+01 0.  0.
     999903    2    3    3    0    0  0.63299062252E-01  0.62381358219E-01  0.90006256199E-01  0.12788849197E+00  0.18871541724E-01 0.  0.
         14    1    1    2    0    0  0.16935439038E-01  0.15524457699E-01  0.61070382598E-02  0.23772122298E-01  0.00000000000E+00 0.  1.
     999901    1    3    3    0    0 -0.80234501289E-01 -0.77905815918E-01 -0.96113294459E-01  0.89226938574E+00  0.88000000000E+00 0.  1.
        -11    1    4    4    0    0  0.20735257386E-01  0.31585989088E-01  0.30949367079E-01  0.48844140376E-01  0.51100000000E-03 0.  1.
         11    1    4    4    0    0  0.42563804866E-01  0.30795369131E-01  0.59056889120E-01  0.79044351589E-01  0.51100000000E-03 0. -1.
</event>
<event>
 8    1  0.1042301E+005  0.1043930E+01  0.7957747E-01            NaN
         13   -1    0    0    0    0  0.00000000000E+00  0.00000000000E+00  0.74505805969E-08  0.10566000000E+00  0.10566000000E+00 0.  1.
     999900   -1    0    0    0    0 -0.00000000000E+00 -0.00000000000E+00 -0.74505805969E-08  0.93827000000E+00  0.93827000000E+00 0.  1.
     999902    2    1    2    0    0  0.16829992932E-01 -0.14295521117E-01 -0.78708054801E-02  0.10204873004E+01  0.10202180013E+01 0.  0.
     999903    2    3    3    0    0  0.67275056087E-01 -0.95925787235E-01  0.59471871708E-01  0.13271298171E+00  0.18658568024E-01 0.  0.
         14    1    1    2    0    0 -0.16829992932E-01  0.14295521117E-01  0.78708054801E-02  0.23442699610E-01  0.00000000000E+00 0.  1.
     999901    1    3    3    0    0 -0.50445063155E-01  0.81630266119E-01 -0.67342677188E-01  0.88777431868E+00  0.88000000000E+00 0.  1.
        -11    1    4    4    0    0  0.51052533469E-01 -0.63982161762E-01  0.33432213930E-01  0.88419750319E-01  0.51100000000E-03 0.  1.
         11    1    4    4    0    0  0.16222522618E-01 -0.31943625474E-01  0.26039657778E-01  0.44293231387E-01  0.51100000000E-03 0. -1.
</event>
<event>
 8    1  0.1042301E+005  0.1043930E+01  0.7957747E-01            NaN
         13   -1    0    0    0    0  0.00000000000E+00  0.00000000000E+00  0.74505805969E-08  0.10566000000E+00  0.10566000000E+00 0. -1.
     999900   -1    0    0    0    0 -0.00000000000E+00 -0.00000000000E+00 -0.74505805969E-08  0.93827000000E+00  0.93827000000E+00 0. -1.
     999902    2    1    2    0    0 -0.66971877004E-02 -0.35201894079E-02  0.22776731684E-01  0.10199295091E+01  0.10196470860E+01 0.  0.
     999903    2    3    3    0    0 -0.30458959459E-01  0.12309431042E+00 -0.17335201727E-01  0.12964594723E+00  0.20678610816E-01 0.  0.
         14    1    1    2    0    0  0.66971877004E-02  0.35201894079E-02 -0.22776731684E-01  0.24000490886E-01  0.00000000000E+00 0.  1.
     999901    1    3    3    0    0  0.23761771758E-01 -0.12661449983E+00  0.40111933411E-01  0.89028356189E+00  0.88000000000E+00 0. -1.
        -11    1    4    4    0    0 -0.17982472463E-01  0.75486641274E-01 -0.20696766118E-01  0.80313259027E-01  0.51100000000E-03 0. -1.
         11    1    4    4    0    0 -0.12476486996E-01  0.47607669143E-01  0.33615643917E-02  0.49332688201E-01  0.51100000000E-03 0.  1.
</event>
<event>
 8    1  0.1042301E+005  0.1043930E+01  0.7957747E-01            NaN
         13   -1    0    0    0    0  0.00000000000E+00  0.00000000000E+00  0.74505805969E-08  0.10566000000E+00  0.10566000000E+00 0. -1.
     999900   -1    0    0    0    0 -0.00000000000E+00 -0.00000000000E+00 -0.74505805969E-08  0.93827000000E+00  0.93827000000E+00 0.  1.
     999902    2    1    2    0    0  0.13203138934E-01  0.54933739327E-02 -0.18965516886E-01  0.10201772977E+01  0.10199007441E+01 0.  0.
     999903    2    3    3    0    0  0.64182911408E-01 -0.38723683016E-01 -0.10812317363E+00  0.13310166786E+00  0.20160941674E-01 0.  0.
         14    1    1    2    0    0 -0.13203138934E-01 -0.54933739327E-02  0.18965516886E-01  0.23752702280E-01  0.00000000000E+00 0. -1.
     999901    1    3    3    0    0 -0.50979772474E-01  0.44217056948E-01  0.89157656746E-01  0.88707562986E+00  0.88000000000E+00 0. -1.
        -11    1    4    4    0    0  0.63920908257E-01 -0.38630209634E-01 -0.99270536782E-01  0.12422993280E+00  0.51100000000E-03 0. -1.
         11    1    4    4    0    0  0.26200315072E-03 -0.93473381427E-04 -0.88526368493E-02  0.88717350676E-02  0.51100000000E-03 0.  1.
</event>
<event>
 8    1  0.1042301E+005  0.1043930E+01  0.7957747E-01            NaN
         13   -1    0    0    0    0  0.00000000000E+00  0.00000000000E+00  0.74505805969E-08  0.10566000000E+00  0.10566000000E+00 0. -1.
     999900   -1    0    0    0    0 -0.00000000000E+00 -0.00000000000E+00 -0.74505805969E-08  0.93827000000E+00  0.93827000000E+00 0. -1.
     999902    2    1    2    0    0  0.20876974502E-01  0.10801404924E-01  0.36893865518E-02  0.10201365138E+01  0.10198589985E+01 0.  0.
     999903    2    3    3    0    0 -0.48221481660E-01 -0.62492792807E-01  0.10024144054E+00  0.12914328419E+00  0.19974508884E-01 0.  0.
         14    1    1    2    0    0 -0.20876974502E-01 -0.10801404924E-01 -0.36893865518E-02  0.23793486205E-01  0.00000000000E+00 0.  1.
     999901    1    3    3    0    0  0.69098456162E-01  0.73294197731E-01 -0.96552053986E-01  0.89099322960E+00  0.88000000000E+00 0. -1.
        -11    1    4    4    0    0 -0.46454606667E-02 -0.18520040831E-01  0.18378332186E-01  0.26506535649E-01  0.51100000000E-03 0.  1.
         11    1    4    4    0    0 -0.43576020993E-01 -0.43972751977E-01  0.81863108352E-01  0.10263674855E+00  0.51100000000E-03 0. -1.
</event>
<event>
 8    1  0.1042301E+005  0.1043930E+01  0.7957747E-01            NaN
         13   -1    0    0    0    0  0.00000000000E+00  0.00000000000E+00  0.74505805969E-08  0.10566000000E+00  0.10566000000E+00 0.  1.
     999900   -1    0    0    0    0 -0.00000000000E+00 -0.00000000000E+00 -0.74505805969E-08  0.93827000000E+00  0.93827000000E+00 0.  1.
     999902    2    1    2    0    0  0.70434744910E-02 -0.21085479223E-01  0.90273352529E-02  0.10199362352E+01  0.10196539723E+01 0.  0.
     999903    2    3    3    0    0 -0.50489231747E-01 -0.95276085178E-01 -0.72438535458E-01  0.13120064664E+00  0.18427515585E-01 0.  0.
         14    1    1    2    0    0 -0.70434744910E-02  0.21085479223E-01 -0.90273352529E-02  0.23993764789E-01  0.00000000000E+00 0. -1.
     999901    1    3    3    0    0  0.57532706238E-01  0.74190605955E-01  0.81465870711E-01  0.88873558857E+00  0.88000000000E+00 0. -1.
        -11    1    4    4    0    0 -0.40977330384E-01 -0.58685069863E-01 -0.46990268031E-01  0.85623743441E-01  0.51100000000E-03 0. -1.
         11    1    4    4    0    0 -0.95119013630E-02 -0.36591015315E-01 -0.25448267427E-01  0.45576903201E-01  0.51100000000E-03 0.  1.
</event>
<event>
 8    1  0.1042301E+005  0.1043930E+01  0.7957747E-01            NaN
         13   -1    0    0    0    0  0.00000000000E+00  0.00000000000E+00  0.74505805969E-08  0.10566000000E+00  0.10566000000E+00 0. -1.
     999900   -1    0    0    0    0 -0.00000000000E+00 -0.00000000000E+00 -0.74505805969E-08  0.93827000000E+00  0.93827000000E+00 0. -1.
     999902    2    1    2    0    0 -0.12066346516E-01  0.19172550987E-01  0.65621116776E-02  0.10203451587E+01  0.10200725455E+01 0.  0.
     999903    2    3    3    0    0  0.47699215944E-01 -0.75387046999E-01 -0.89600785939E-01  0.12806675881E+00  0.20356124741E-01 0.  0.
         14    1    1    2    0    0  0.12066346516E-01 -0.19172550987E-01 -0.65621116776E-02  0.23584841303E-01  0.00000000000E+00 0. -1.
     999901    1    3    3    0    0 -0.59765562460E-01  0.94559597986E-01  0.96162897616E-01  0.89227839989E+00  0.88000000000E+00 0.  1.
        -11    1    4    4    0    0  0.20307976537E-01 -0.50687548088E-01 -0.52557287830E-01  0.75790309851E-01  0.51100000000E-03 0.  1.
         11    1    4    4    0    0  0.27391239407E-01 -0.24699498911E-01 -0.37043498108E-01  0.52276448959E-01  0.51100000000E-03 0. -1.
</event>
<event>
 8    1  0.1042301E+005  0.1043930E+01  0.7957747E-01            NaN
         13   -1    0    0    0    0  0.00000000000E+00  0.00000000000E+00  0.74505805969E-08  0.10566000000E+00  0.10566000000E+00 0. -1.
     999900   -1    0    0    0    0 -0.00000000000E+00 -0.00000000000E+00 -0.74505805969E-08  0.93827000000E+00  0.93827000000E+00 0.  1.
     999902    2    1    2    0    0 -0.25795026740E-02  0.17156475171E-01 -0.16593500635E-01  0.10199228607E+01  0.10196402792E+01 0.  0.
     999903    2    3    3    0    0  0.98105962415E-01  0.85018131545E-01  0.35836892266E-02  0.13135666379E+00  0.19719729747E-01 0.  0.
         14    1    1    2    0    0  0.25795026740E-02 -0.17156475171E-01  0.16593500635E-01  0.24007139306E-01  0.00000000000E+00 0.  1.
     999901    1    3    3    0    0 -0.10068546509E+00 -0.67861656374E-01 -0.20177189861E-01  0.88856619690E+00  0.88000000000E+00 0.  1.
        -11    1    4    4    0    0  0.55163800123E-01  0.55331135759E-01  0.99423066401E-02  0.78763506846E-01  0.51100000000E-03 0. -1.
         11    1    4    4    0    0  0.42942162292E-01  0.29686995786E-01 -0.63586174135E-02  0.52593156946E-01  0.51100000000E-03 0.  1.
</event>
<event>
 8    1  0.1042301E+005  0.1043930E+01  0.7957747E-01            NaN
         13   -1    0    0    0    0  0.00000000000E+00  0.00000000000E+00  0.74505805969E-08  0.10566000000E+00  0.10566000000E+00 0. -1.
     999900   -1    0    0    0    0 -0.00000000000E+00 -0.00000000000E+00 -0.74505805969E-08  0.93827000000E+00  0.93827000000E+00 0.  1.
     999902    2    1    2    0    0 -0.19680217127E-02 -0.26990280568E-01  0.16628759754E-02  0.10168170232E+01  0.10164554811E+01 0.  0.
     999903    2    3    3    0    0 -0.12399062440E+00 -0.78510237720E-02  0.22867511162E-01  0.12793825572E+00  0.20247486176E-01 0.  0.
         14    1    1    2    0    0  0.19680217127E-02  0.26990280568E-01 -0.16628759754E-02  0.27112976802E-01  0.00000000000E+00 0. -1.
     999901    1    3    3    0    0  0.12202260269E+00 -0.19139256796E-01 -0.21204635187E-01  0.88887876748E+00  0.88000000000E+00 0.  1.
        -11    1    4    4    0    0 -0.90416746419E-01 -0.14079294702E-01  0.13271685044E-01  0.92465200574E-01  0.51100000000E-03 0. -1.
         11    1    4    4    0    0 -0.33573877982E-01  0.62282709302E-02  0.95958261182E-02  0.35473055146E-01  0.51100000000E-03 0.  1.
</event>
<event>
 8    1  0.1042301E+005  0.1043930E+01  0.7957747E-01            NaN
         13   -1    0    0    0    0  0.00000000000E+00  0.00000000000E+00  0.74505805969E-08  0.10566000000E+00  0.10566000000E+00 0. -1.
     999900   -1    0    0    0    0 -0.00000000000E+00 -0.00000000000E+00 -0.74505805969E-08  0.93827000000E+00  0.93827000000E+00 0. -1.
     999902    2    1    2    0    0  0.62853931523E-02  0.18359488987E-01 -0.12417849325E-01  0.10208913372E+01  0.10206313450E+01 0.  0.
     999903    2    3    3    0    0  0.25166676822E-01 -0.44408120594E-01  0.11698937672E+00  0.12901550174E+00  0.18789428557E-01 0.  0.
         14    1    1    2    0    0 -0.62853931523E-02 -0.18359488987E-01  0.12417849325E-01  0.23038662826E-01  0.00000000000E+00 0. -1.
     999901    1    3    3    0    0 -0.18881283670E-01  0.62767609581E-01 -0.12940722605E+00  0.89187583544E+00  0.88000000000E+00 0. -1.
        -11    1    4    4    0    0  0.15537960523E-01 -0.28529690137E-01  0.51074984677E-01  0.60533351281E-01  0.51100000000E-03 0. -1.
         11    1    4    4    0    0  0.96287162997E-02 -0.15878430457E-01  0.65914392045E-01  0.68482150456E-01  0.51100000000E-03 0.  1.
</event>
<event>
 8    1  0.1042301E+005  0.1043930E+01  0.7957747E-01            NaN
         13   -1    0    0    0    0  0.00000000000E+00  0.00000000000E+00  0.74505805969E-08  0.10566000000E+00  0.10566000000E+00 0.  1.
     999900   -1    0    0    0    0 -0.00000000000E+00 -0.00000000000E+00 -0.74505805969E-08  0.93827000000E+00  0.93827000000E+00 0. -1.
     999902    2    1    2    0    0  0.44595762537E-02 -0.29142045855E-01 -0.54077950307E-02  0.10139568303E+01  0.10135137210E+01 0.  0.
     999903    2    3    3    0    0 -0.57638799262E-01  0.77145586118E-01 -0.73633964589E-01  0.12277330306E+00  0.19433233500E-01 0.  0.
         14    1    1    2    0    0 -0.44595762537E-02  0.29142045855E-01  0.54077950307E-02  0.29973169737E-01  0.00000000000E+00 0.  1.
     999901    1    3    3    0    0  0.62098375515E-01 -0.10628763197E+00  0.68226169559E-01  0.89118352721E+00  0.88000000000E+00 0. -1.
        -11    1    4    4    0    0 -0.20023127295E-01  0.13663686572E-01 -0.21698700485E-01  0.32537926811E-01  0.51100000000E-03 0. -1.
         11    1    4    4    0    0 -0.37615671966E-01  0.63481899546E-01 -0.51935264104E-01  0.90235376245E-01  0.51100000000E-03 0.  1.
</event>
<event>
 7    1  0.1042301E+005  0.1043930E+01  0.7957747E-01            NaN
         13   -1    0    0    0    0  0.00000000000E+00  0.00000000000E+00  0.74505805969E-08  0.10566000000E+00  0.10566000000E+00 0.  1.
     999900   -1    0    0    0    0 -0.00000000000E+00 -0.00000000000E+00 -0.74505805969E-08  0.93827000000E+00  0.93827000000E+00 0.  1.
     999903    2    1    2    0    0 -0.53087495795E-01  0.63201504075E-01  0.76972152386E-01  0.11459503910E+00  0.19864501410E-01 0.  0.
         14    1    1    2    0    0 -0.22578515332E-01  0.43527427662E-02 -0.35804355762E-01  0.42552175217E-01  0.00000000000E+00 0.  1.
     999901    1    1    2    0    0  0.75666011127E-01 -0.67554246841E-01 -0.41167796624E-01  0.88678278568E+00  0.88000000000E+00 0.  1.
        -11    1    3    3    0    0 -0.13597876024E-02  0.10583083599E-01  0.13852814594E-01  0.17493206509E-01  0.51100000000E-03 0. -1.
         11    1    3    3    0    0 -0.51727708192E-01  0.52618420475E-01  0.63119337792E-01  0.97101832591E-01  0.51100000000E-03 0.  1.
</event>
<event>
 8    1  0.1042301E+005  0.1043930E+01  0.7957747E-01            NaN
         13   -1    0    0    0    0  0.00000000000E+00  0.00000000000E+00  0.74505805969E-08  0.10566000000E+00  0.10566000000E+00 0. -1.
     999900   -1    0    0    0    0 -0.00000000000E+00 -0.00000000000E+00 -0.74505805969E-08  0.93827000000E+00  0.93827000000E+00 0. -1.
     999902    2    1    2    0    0  0.16446716063E-01  0.16019345988E-01  0.29882372908E-02  0.10207773872E+01  0.10205147872E+01 0.  0.
     999903    2    3    3    0    0  0.55247619126E-01 -0.66104466310E-01  0.96670244182E-01  0.13115603575E+00  0.20848734213E-01 0.  0.
         14    1    1    2    0    0 -0.16446716063E-01 -0.16019345988E-01 -0.29882372908E-02  0.23152612752E-01  0.00000000000E+00 0.  1.
     999901    1    3    3    0    0 -0.38800903063E-01  0.82123812299E-01 -0.93682006891E-01  0.88962135150E+00  0.88000000000E+00 0. -1.
        -11    1    4    4    0    0  0.52365296144E-01 -0.51320828659E-01  0.83685693547E-01  0.11126323795E+00  0.51100000000E-03 0.  1.
         11    1    4    4    0    0  0.28823229818E-02 -0.14783637652E-01  0.12984550635E-01  0.19892797797E-01  0.51100000000E-03 0. -1.
</event>
<event>
 7    1  0.1042301E+005  0.1043930E+01  0.7957747E-01            NaN
         13   -1    0    0    0    0  0.00000000000E+00  0.00000000000E+00  0.74505805969E-08  0.10566000000E+00  0.10566000000E+00 0.  1.
     999900   -1    0    0    0    0 -0.00000000000E+00 -0.00000000000E+00 -0.74505805969E-08  0.93827000000E+00  0.93827000000E+00 0.  1.
     999903    2    1    2    0    0 -0.12369272286E-01  0.16626473169E-01  0.58586043425E-01  0.65050810501E-01  0.19231353454E-01 0.  0.
         14    1    1    2    0    0  0.12957727275E-02 -0.91871341187E-01  0.12574101003E-01  0.92736887884E-01  0.00000000000E+00 0.  1.
     999901    1    1    2    0    0  0.11073499559E-01  0.75244868018E-01 -0.71160144429E-01  0.88614230161E+00  0.88000000000E+00 0.  1.
        -11    1    3    3    0    0 -0.97394110231E-02  0.81386273444E-02  0.53093522085E-01  0.54591909571E-01  0.51100000000E-03 0. -1.
         11    1    3    3    0    0 -0.26298612632E-02  0.84878458244E-02  0.54925213400E-02  0.10458900930E-01  0.51100000000E-03 0.  1.
</event>
<event>
 8    1  0.1042301E+005  0.1043930E+01  0.7957747E-01            NaN
         13   -1    0    0    0    0  0.00000000000E+00  0.00000000000E+00  0.74505805969E-08  0.10566000000E+00  0.10566000000E+00 0.  1.
     999900   -1    0    0    0    0 -0.00000000000E+00 -0.00000000000E+00 -0.74505805969E-08  0.93827000000E+00  0.93827000000E+00 0. -1.
     999902    2    1    2    0    0 -0.22691549080E-01 -0.13995441794E-01 -0.55022987265E-02  0.10167076915E+01  0.10163431880E+01 0.  0.
     999903    2    3    3    0    0  0.48224056168E-01 -0.10441545888E+00  0.51571760140E-01  0.12740332807E+00  0.18542219747E-01 0.  0.
         14    1    1    2    0    0  0.22691549080E-01  0.13995441794E-01  0.55022987265E-02  0.27222308534E-01  0.00000000000E+00 0. -1.
     999901    1    3    3    0    0 -0.70915605248E-01  0.90420017086E-01 -0.57074058866E-01  0.88930436339E+00  0.88000000000E+00 0. -1.
        -11    1    4    4    0    0  0.37588809148E-01 -0.93268870194E-01  0.48667013591E-01  0.11171723257E+00  0.51100000000E-03 0. -1.
         11    1    4    4    0    0  0.10635247020E-01 -0.11146588686E-01  0.29047465484E-02  0.15686095500E-01  0.51100000000E-03 0.  1.
</event>
<event>
 8    1  0.1042301E+005  0.1043930E+01  0.7957747E-01            NaN
         13   -1    0    0    0    0  0.00000000000E+00  0.00000000000E+00  0.74505805969E-08  0.10566000000E+00  0.10566000000E+00 0. -1.
     999900   -1    0    0    0    0 -0.00000000000E+00 -0.00000000000E+00 -0.74505805969E-08  0.93827000000E+00  0.93827000000E+00 0. -1.
     999902    2    1    2    0    0  0.15350038071E-01  0.13931262736E-01  0.12898793669E-01  0.10195151965E+01  0.10192228183E+01 0.  0.
     999903    2    3    3    0    0 -0.91838441408E-02 -0.11663914500E+00 -0.46891098179E-01  0.12753684819E+00  0.19438091932E-01 0.  0.
         14    1    1    2    0    0 -0.15350038071E-01 -0.13931262736E-01 -0.12898793669E-01  0.24414803467E-01  0.00000000000E+00 0.  1.
     999901    1    3    3    0    0  0.24533882212E-01  0.13057040773E+00  0.59789891848E-01  0.89197834835E+00  0.88000000000E+00 0.  1.
        -11    1    4    4    0    0 -0.10804648065E-01 -0.82846338680E-01 -0.41450854636E-01  0.93266771808E-01  0.51100000000E-03 0. -1.
         11    1    4    4    0    0  0.16208039245E-02 -0.33792806317E-01 -0.54402435438E-02  0.34270076378E-01  0.51100000000E-03 0.  1.
</event>
<event>
 8    1  0.1042301E+005  0.1043930E+01  0.7957747E-01            NaN
         13   -1    0    0    0    0  0.00000000000E+00  0.00000000000E+00  0.74505805969E-08  0.10566000000E+00  0.10566000000E+00 0. -1.
     999900   -1    0    0    0    0 -0.00000000000E+00 -0.00000000000E+00 -0.74505805969E-08  0.93827000000E+00  0.93827000000E+00 0.  1.
     999902    2    1    2    0    0  0.53688624410E-02 -0.22294470094E-02 -0.22912045018E-01  0.10202919602E+01  0.10200181014E+01 0.  0.
     999903    2    3    3    0    0  0.70431781109E-01  0.37814952693E-01 -0.10466161391E+00  0.13320699848E+00  0.19986109638E-01 0.  0.
         14    1    1    2    0    0 -0.53688624410E-02  0.22294470094E-02  0.22912045018E-01  0.23638039783E-01  0.00000000000E+00 0. -1.
     999901    1    3    3    0    0 -0.65062918668E-01 -0.40044399702E-01  0.81749568895E-01  0.88708496174E+00  0.88000000000E+00 0. -1.
        -11    1    4    4    0    0  0.25159019154E-01  0.47444386572E-02 -0.24955460854E-01  0.35756427260E-01  0.51100000000E-03 0.  1.
         11    1    4    4    0    0  0.45272761954E-01  0.33070514036E-01 -0.79706153060E-01  0.97450571215E-01  0.51100000000E-03 0. -1.
</event>
<event>
 8    1  0.1042301E+005  0.1043930E+01  0.7957747E-01            NaN
         13   -1    0    0    0    0  0.00000000000E+00  0.00000000000E+00  0.74505805969E-08  0.10566000000E+00  0.10566000000E+00 0.  1.
     999900   -1    0    0    0    0 -0.00000000000E+00 -0.00000000000E+00 -0.74505805969E-08  0.93827000000E+00  0.93827000000E+00 0. -1.
     999902    2    1    2    0    0 -0.17032753845E-01  0.55328614221E-02 -0.15529692194E-01  0.10202255996E+01  0.10199501828E+01 0.  0.
     999903    2    3    3    0    0 -0.11522271926E+00  0.46170679242E-01 -0.44454082051E-01  0.13336071593E+00  0.20022699302E-01 0.  0.
         14    1    1    2    0    0  0.17032753845E-01 -0.55328614221E-02  0.15529692194E-01  0.23704400408E-01  0.00000000000E+00 0.  1.
     999901    1    3    3    0    0  0.98189965414E-01 -0.40637817819E-01  0.28924389857E-01  0.88686488366E+00  0.88000000000E+00 0.  1.
        -11    1    4    4    0    0 -0.27585260109E-01  0.20075411674E-01 -0.15203671824E-01  0.37354805409E-01  0.51100000000E-03 0. -1.
         11    1    4    4    0    0 -0.87637459149E-01  0.26095267568E-01 -0.29250410227E-01  0.96005910521E-01  0.51100000000E-03 0.  1.
</event>
<event>
 7    1  0.1042301E+005  0.1043930E+01  0.7957747E-01            NaN
         13   -1    0    0    0    0  0.00000000000E+00  0.00000000000E+00  0.74505805969E-08  0.10566000000E+00  0.10566000000E+00 0.  1.
     999900   -1    0    0    0    0 -0.00000000000E+00 -0.00000000000E+00 -0.74505805969E-08  0.93827000000E+00  0.93827000000E+00 0.  1.
     999903    2    1    2    0    0 -0.90717578637E-01  0.29718746698E-01 -0.36241992893E-01  0.10406233689E+00  0.20065017601E-01 0.  0.
         14    1    1    2    0    0  0.24563595733E-01 -0.44690785915E-01  0.25901035561E-01  0.57197029854E-01  0.00000000000E+00 0.  1.
     999901    1    1    2    0    0  0.66153982903E-01  0.14972039217E-01  0.10340957332E-01  0.88267063326E+00  0.88000000000E+00 0.  1.
        -11    1    3    3    0    0 -0.64985485778E-01  0.16332157032E-01 -0.16618570884E-01  0.69038328010E-01  0.51100000000E-03 0.  1.
         11    1    3    3    0    0 -0.25732092858E-01  0.13386589666E-01 -0.19623422009E-01  0.35024008881E-01  0.51100000000E-03 0. -1.
</event>
<event>
 8    1  0.1126907E+005  0.1043930E+01  0.7957747E-01            NaN
         13   -1    0    0    0    0  0.00000000000E+00  0.00000000000E+00  0.74505805969E-08  0.10566000000E+00  0.10566000000E+00 0. -1.
     999900   -1    0    0    0    0 -0.00000000000E+00 -0.00000000000E+00 -0.74505805969E-08  0.93827000000E+00  0.93827000000E+00 0. -1.
     999902    2    1    2    0    0 -0.16603282566E-01  0.16117522281E-01  0.44494852813E-02  0.10203664384E+01  0.10200943227E+01 0.  0.
     999903    2    3    3    0    0 -0.12078550760E+00  0.44515872105E-01  0.29090124571E-01  0.13342361983E+00  0.19616963729E-01 0.  0.
         14    1    1    2    0    0  0.16603282566E-01 -0.16117522281E-01 -0.44494852813E-02  0.23563561609E-01  0.00000000000E+00 0. -1.
     999901    1    3    3    0    0  0.10418222504E+00 -0.28398349824E-01 -0.24640639290E-01  0.88694281856E+00  0.88000000000E+00 0. -1.
        -11    1    4    4    0    0 -0.75960894297E-01  0.37178816204E-01  0.22581045876E-01  0.87535630406E-01  0.51100000000E-03 0. -1.
         11    1    4    4    0    0 -0.44824613305E-01  0.73370559011E-02  0.65090786951E-02  0.45887989427E-01  0.51100000000E-03 0.  1.
</event>
<event>
 8    1  0.1042301E+005  0.1043930E+01  0.7957747E-01            NaN
         13   -1    0    0    0    0  0.00000000000E+00  0.00000000000E+00  0.74505805969E-08  0.10566000000E+00  0.10566000000E+00 0.  1.
     999900   -1    0    0    0    0 -0.00000000000E+00 -0.00000000000E+00 -0.74505805969E-08  0.93827000000E+00  0.93827000000E+00 0. -1.
     999902    2    1    2    0    0 -0.45160068920E-02  0.17902319560E-01 -0.15767869744E-01  0.10196501096E+01  0.10193609924E+01 0.  0.
     999903    2    3    3    0    0  0.94165013383E-01  0.56107508346E-01 -0.70166973776E-01  0.13164287831E+00  0.19782339693E-01 0.  0.
         14    1    1    2    0    0  0.45160068920E-02 -0.17902319560E-01  0.15767869744E-01  0.24279890447E-01  0.00000000000E+00 0. -1.
     999901    1    3    3    0    0 -0.98681020275E-01 -0.38205188786E-01  0.54399104032E-01  0.88800723124E+00  0.88000000000E+00 0.  1.
        -11    1    4    4    0    0  0.49772535964E-01  0.18174408866E-01 -0.33147493921E-01  0.62503055510E-01  0.51100000000E-03 0. -1.
         11    1    4    4    0    0  0.44392477419E-01  0.37933099481E-01 -0.37019479855E-01  0.69139822804E-01  0.51100000000E-03 0.  1.
</event>
<event>
 8    1  0.1042301E+005  0.1043930E+01  0.7957747E-01            NaN
         13   -1    0    0    0    0  0.00000000000E+00  0.00000000000E+00  0.74505805969E-08  0.10566000000E+00  0.10566000000E+00 0.  1.
     999900   -1    0    0    0    0 -0.00000000000E+00 -0.00000000000E+00 -0.74505805969E-08  0.93827000000E+00  0.93827000000E+00 0. -1.
     999902    2    1    2    0    0  0.19630405164E-01 -0.11764380450E-01 -0.15620983324E-01  0.10162213628E+01  0.10158435360E+01 0.  0.
     999903    2    3    3    0    0  0.51678112547E-01 -0.10460630164E+00 -0.53478411478E-01  0.12994834465E+00  0.20335341693E-01 0.  0.
         14    1    1    2    0    0 -0.19630405164E-01  0.11764380450E-01  0.15620983324E-01  0.27708637179E-01  0.00000000000E+00 0. -1.
     999901    1    3    3    0    0 -0.32047707382E-01  0.92841921194E-01  0.37857428154E-01  0.88627301818E+00  0.88000000000E+00 0. -1.
        -11    1    4    4    0    0  0.39406685937E-01 -0.59130167477E-01 -0.36418098708E-01  0.79848623262E-01  0.51100000000E-03 0.  1.
         11    1    4    4    0    0  0.12271426610E-01 -0.45476134168E-01 -0.17060312770E-01  0.50099721383E-01  0.51100000000E-03 0. -1.
</event>
<event>
 8    1  0.1042301E+005  0.1043930E+01  0.7957747E-01            NaN
         13   -1    0    0    0    0  0.00000000000E+00  0.00000000000E+00  0.74505805969E-08  0.10566000000E+00  0.10566000000E+00 0. -1.
     999900   -1    0    0    0    0 -0.00000000000E+00 -0.00000000000E+00 -0.74505805969E-08  0.93827000000E+00  0.93827000000E+00 0. -1.
     999902    2    1    2    0    0  0.15236698625E-01  0.17531099934E-01 -0.47650903798E-02  0.10202191895E+01  0.10199436220E+01 0.  0.
     999903    2    3    3    0    0 -0.10220177960E+00  0.66855743421E-01 -0.40788452501E-01  0.13031897077E+00  0.20110745926E-01 0.  0.
         14    1    1    2    0    0 -0.15236698625E-01 -0.17531099934E-01  0.47650903798E-02  0.23710810535E-01  0.00000000000E+00 0.  1.
     999901    1    3    3    0    0  0.11743847823E+00 -0.49324643487E-01  0.36023362121E-01  0.88990021870E+00  0.88000000000E+00 0.  1.
        -11    1    4    4    0    0 -0.23128473210E-01  0.24601751540E-01 -0.15547487051E-01  0.37177384610E-01  0.51100000000E-03 0.  1.
         11    1    4    4    0    0 -0.79073306392E-01  0.42253991882E-01 -0.25240965450E-01  0.93141586155E-01  0.51100000000E-03 0. -1.
</event>
<event>
 8    1  0.1042301E+005  0.1043930E+01  0.7957747E-01            NaN
         13   -1    0    0    0    0  0.00000000000E+00  0.00000000000E+00  0.74505805969E-08  0.10566000000E+00  0.10566000000E+00 0.  1.
     999900   -1    0    0    0    0 -0.00000000000E+00 -0.00000000000E+00 -0.74505805969E-08  0.93827000000E+00  0.93827000000E+00 0.  1.
     999902    2    1    2    0    0  0.18620526056E-01  0.26781762258E-02 -0.15572267071E-01  0.10195088592E+01  0.10192163273E+01 0.  0.
     999903    2    3    3    0    0  0.70200549163E-01  0.80882088947E-02 -0.11067592127E+00  0.13286661322E+00  0.20269216376E-01 0.  0.
         14    1    1    2    0    0 -0.18620526056E-01 -0.26781762258E-02  0.15572267071E-01  0.24421140847E-01  0.00000000000E+00 0. -1.
     999901    1    3    3    0    0 -0.51580023107E-01 -0.54100326689E-02  0.95103654200E-01  0.88664224594E+00  0.88000000000E+00 0. -1.
        -11    1    4    4    0    0  0.56705430873E-01 -0.10434106324E-02 -0.79127810277E-01  0.97355359773E-01  0.51100000000E-03 0.  1.
         11    1    4    4    0    0  0.13495118290E-01  0.91316195271E-02 -0.31548110994E-01  0.35511253444E-01  0.51100000000E-03 0. -1.
</event>
<event>
 8    1  0.1042301E+005  0.1043930E+01  0.7957747E-01            NaN
         13   -1    0    0    0    0  0.00000000000E+00  0.00000000000E+00  0.74505805969E-08  0.10566000000E+00  0.10566000000E+00 0. -1.
     999900   -1    0    0    0    0 -0.00000000000E+00 -0.00000000000E+00 -0.74505805969E-08  0.93827000000E+00  0.93827000000E+00 0. -1.
     999902    2    1    2    0    0 -0.81649078394E-02 -0.13916228931E-01  0.17937829484E-01  0.10198033990E+01  0.10195179644E+01 0.  0.
     999903    2    3    3    0    0  0.95366617795E-01  0.81615665787E-01  0.19069584403E-01  0.12859837179E+00  0.20444644448E-01 0.  0.
         14    1    1    2    0    0  0.81649078394E-02  0.13916228931E-01 -0.17937829484E-01  0.24126600969E-01  0.00000000000E+00 0.  1.
     999901    1    3    3    0    0 -0.10353152563E+00 -0.95531894718E-01 -0.11317549182E-02  0.89120502724E+00  0.88000000000E+00 0. -1.
        -11    1    4    4    0    0  0.58960246776E-01  0.59668569811E-01  0.59057793667E-02  0.84093925310E-01  0.51100000000E-03 0. -1.
         11    1    4    4    0    0  0.36406371020E-01  0.21947095976E-01  0.13163805036E-01  0.44504446481E-01  0.51100000000E-03 0.  1.
</event>
<event>
 8    1  0.1042301E+005  0.1043930E+01  0.7957747E-01            NaN
         13   -1    0    0    0    0  0.00000000000E+00  0.00000000000E+00  0.74505805969E-08  0.10566000000E+00  0.10566000000E+00 0.  1.
     999900   -1    0    0    0    0 -0.00000000000E+00 -0.00000000000E+00 -0.74505805969E-08  0.93827000000E+00  0.93827000000E+00 0.  1.
     999902    2    1    2    0    0 -0.50929201347E-02  0.23478750760E-01 -0.98228622420E-02  0.10179746885E+01  0.10176437433E+01 0.  0.
     999903    2    3    3    0    0  0.11835966698E+00 -0.28750681539E-01 -0.31325464988E-01  0.12756421192E+00  0.21347855860E-01 0.  0.
         14    1    1    2    0    0  0.50929201347E-02 -0.23478750760E-01  0.98228622420E-02  0.25955311506E-01  0.00000000000E+00 0.  1.
     999901    1    3    3    0    0 -0.12345258712E+00  0.52229432299E-01  0.21502602746E-01  0.89041047657E+00  0.88000000000E+00 0. -1.
        -11    1    4    4    0    0  0.34339928183E-01 -0.17365360915E-01 -0.14476902466E-01  0.41117250070E-01  0.51100000000E-03 0. -1.
         11    1    4    4    0    0  0.84019738798E-01 -0.11385320624E-01 -0.16848562522E-01  0.86446961852E-01  0.51100000000E-03 0.  1.
</event>
<event>
 8    1  0.1042301E+005  0.1043930E+01  0.7957747E-01            NaN
         13   -1    0    0    0    0  0.00000000000E+00  0.00000000000E+00  0.74505805969E-08  0.10566000000E+00  0.10566000000E+00 0.  1.
     999900   -1    0    0    0    0 -0.00000000000E+00 -0.00000000000E+00 -0.74505805969E-08  0.93827000000E+00  0.93827000000E+00 0.  1.
     999902    2    1    2    0    0  0.62277695524E-02 -0.22294350374E-01 -0.20568045087E-02  0.10206909463E+01  0.10204263590E+01 0.  0.
     999903    2    3    3    0    0 -0.38508613250E-01 -0.16120092706E-01  0.12236630267E+00  0.13079175257E+00  0.19753476350E-01 0.  0.
         14    1    1    2    0    0 -0.62277695524E-02  0.22294350374E-01  0.20568045087E-02  0.23239053702E-01  0.00000000000E+00 0.  1.
     999901    1    3    3    0    0  0.44736382802E-01 -0.61742576677E-02 -0.12442310718E+00  0.88989919373E+00  0.88000000000E+00 0.  1.
        -11    1    4    4    0    0 -0.30267219982E-01 -0.46949103822E-02  0.67200333021E-01  0.73853183195E-01  0.51100000000E-03 0.  1.
         11    1    4    4    0    0 -0.82413932678E-02 -0.11425182324E-01  0.55165969646E-01  0.56938569372E-01  0.51100000000E-03 0. -1.
</event>
<event>
 8    1  0.1042301E+005  0.1043930E+01  0.7957747E-01            NaN
         13   -1    0    0    0    0  0.00000000000E+00  0.00000000000E+00  0.74505805969E-08  0.10566000000E+00  0.10566000000E+00 0. -1.
     999900   -1    0    0    0    0 -0.00000000000E+00 -0.00000000000E+00 -0.74505805969E-08  0.93827000000E+00  0.93827000000E+00 0.  1.
     999902    2    1    2    0    0  0.54076196137E-03 -0.47664882053E-03  0.23607674186E-01  0.10203113231E+01  0.10200379180E+01 0.  0.
     999903    2    3    3    0    0 -0.13839627482E-01  0.28072622834E-01 -0.12184861184E+00  0.12779836093E+00  0.22488428300E-01 0.  0.
         14    1    1    2    0    0 -0.54076196137E-03  0.47664882053E-03 -0.23607674186E-01  0.23618676891E-01  0.00000000000E+00 0.  1.
     999901    1    3    3    0    0  0.14380389443E-01 -0.28549271654E-01  0.14545628603E+00  0.89251296218E+00  0.88000000000E+00 0. -1.
        -11    1    4    4    0    0 -0.94217519535E-02  0.28269686670E-01 -0.74485881034E-01  0.80226879465E-01  0.51100000000E-03 0. -1.
         11    1    4    4    0    0 -0.44178755281E-02 -0.19706383649E-03 -0.47362730807E-01  0.47571481465E-01  0.51100000000E-03 0.  1.
</event>
<event>
 8    1  0.1042301E+005  0.1043930E+01  0.7957747E-01            NaN
         13   -1    0    0    0    0  0.00000000000E+00  0.00000000000E+00  0.74505805969E-08  0.10566000000E+00  0.10566000000E+00 0.  1.
     999900   -1    0    0    0    0 -0.00000000000E+00 -0.00000000000E+00 -0.74505805969E-08  0.93827000000E+00  0.93827000000E+00 0. -1.
     999902    2    1    2    0    0 -0.23748390700E-02  0.13097277023E-01 -0.19920355040E-01  0.10199717223E+01  0.10196903036E+01 0.  0.
     999903    2    3    3    0    0 -0.47700741841E-01  0.47303276790E-01  0.10826086341E+00  0.12887413355E+00  0.19369227810E-01 0.  0.
         14    1    1    2    0    0  0.23748390700E-02 -0.13097277023E-01  0.19920355040E-01  0.23958277713E-01  0.00000000000E+00 0.  1.
     999901    1    3    3    0    0  0.45325902771E-01 -0.34205999767E-01 -0.12818121845E+00  0.89109758873E+00  0.88000000000E+00 0. -1.
        -11    1    4    4    0    0 -0.21461477484E-01  0.10166453492E-01  0.46048666442E-01  0.51814019285E-01  0.51100000000E-03 0. -1.
         11    1    4    4    0    0 -0.26239264357E-01  0.37136823298E-01  0.62212196968E-01  0.77060114269E-01  0.51100000000E-03 0.  1.
</event>
<event>
 8    1  0.1042301E+005  0.1043930E+01  0.7957747E-01            NaN
         13   -1    0    0    0    0  0.00000000000E+00  0.00000000000E+00  0.74505805969E-08  0.10566000000E+00  0.10566000000E+00 0.  1.
     999900   -1    0    0    0    0 -0.00000000000E+00 -0.00000000000E+00 -0.74505805969E-08  0.93827000000E+00  0.93827000000E+00 0.  1.
     999902    2    1    2    0    0 -0.11986942512E-01 -0.56973703651E-02 -0.19665360982E-01  0.10202050502E+01  0.10199291501E+01 0.  0.
     999903    2    3    3    0    0 -0.93597057910E-01  0.80072897572E-01 -0.43335599055E-01  0.13196126050E+00  0.19071495787E-01 0.  0.
         14    1    1    2    0    0  0.11986942512E-01  0.56973703651E-02  0.19665360982E-01  0.23724949788E-01  0.00000000000E+00 0.  1.
     999901    1    3    3    0    0  0.81610115398E-01 -0.85770267937E-01  0.23670238073E-01  0.88824378972E+00  0.88000000000E+00 0.  1.
        -11    1    4    4    0    0 -0.96143226118E-02  0.16737120265E-01 -0.44523326421E-02  0.19815417760E-01  0.51100000000E-03 0.  1.
         11    1    4    4    0    0 -0.83982735298E-01  0.63335777307E-01 -0.38883266413E-01  0.11214584274E+00  0.51100000000E-03 0. -1.
</event>
<event>
 8    1  0.1042301E+005  0.1043930E+01  0.7957747E-01            NaN
         13   -1    0    0    0    0  0.00000000000E+00  0.00000000000E+00  0.74505805969E-08  0.10566000000E+00  0.10566000000E+00 0.  1.
     999900   -1    0    0    0    0 -0.00000000000E+00 -0.00000000000E+00 -0.74505805969E-08  0.93827000000E+00  0.93827000000E+00 0.  1.
     999902    2    1    2    0    0  0.20313684956E-01 -0.10443172995E-01  0.60027556290E-02  0.10203135072E+01  0.10200401532E+01 0.  0.
     999903    2    3    3    0    0  0.95016911595E-01  0.63743363328E-01  0.63120083923E-01  0.13219943598E+00  0.20027881111E-01 0.  0.
         14    1    1    2    0    0 -0.20313684956E-01  0.10443172995E-01 -0.60027556290E-02  0.23616492836E-01  0.00000000000E+00 0.  1.
     999901    1    3    3    0    0 -0.74703226639E-01 -0.74186536324E-01 -0.57117328294E-01  0.88811407118E+00  0.88000000000E+00 0.  1.
        -11    1    4    4    0    0  0.28416042536E-01  0.11253559579E-01  0.23728251912E-01  0.38696319417E-01  0.51100000000E-03 0.  1.
         11    1    4    4    0    0  0.66600869059E-01  0.52489803749E-01  0.39391832012E-01  0.93503116564E-01  0.51100000000E-03 0. -1.
</event>
<event>
 8    1  0.1042301E+005  0.1043930E+01  0.7957747E-01            NaN
         13   -1    0    0    0    0  0.00000000000E+00  0.00000000000E+00  0.74505805969E-08  0.10566000000E+00  0.10566000000E+00 0.  1.
     999900   -1    0    0    0    0 -0.00000000000E+00 -0.00000000000E+00 -0.74505805969E-08  0.93827000000E+00  0.93827000000E+00 0. -1.
     999902    2    1    2    0    0 -0.22795318635E-01  0.10521706579E-01 -0.30790171050E-02  0.10186354708E+01  0.10183213683E+01 0.  0.
     999903    2    3    3    0    0 -0.10123011394E+00  0.82451917903E-01 -0.87599627144E-03  0.13222088060E+00  0.20874366204E-01 0.  0.
         14    1    1    2    0    0  0.22795318635E-01 -0.10521706579E-01  0.30790171050E-02  0.25294529198E-01  0.00000000000E+00 0. -1.
     999901    1    3    3    0    0  0.78434795304E-01 -0.71930211323E-01 -0.22030208336E-02  0.88641459020E+00  0.88000000000E+00 0. -1.
        -11    1    4    4    0    0 -0.85372617689E-01  0.65505760589E-01 -0.80867717218E-02  0.10791267543E+00  0.51100000000E-03 0. -1.
         11    1    4    4    0    0 -0.15857496250E-01  0.16946157314E-01  0.72107754504E-02  0.24308205171E-01  0.51100000000E-03 0.  1.
</event>
<event>
 8    1  0.1042301E+005  0.1043930E+01  0.7957747E-01            NaN
         13   -1    0    0    0    0  0.00000000000E+00  0.00000000000E+00  0.74505805969E-08  0.10566000000E+00  0.10566000000E+00 0. -1.
     999900   -1    0    0    0    0 -0.00000000000E+00 -0.00000000000E+00 -0.74505805969E-08  0.93827000000E+00  0.93827000000E+00 0. -1.
     999902    2    1    2    0    0  0.15609504872E-01 -0.12010939930E-01  0.10748925593E-03  0.10242340391E+01  0.10240446455E+01 0.  0.
     999903    2    3    3    0    0  0.82688391057E-01  0.10112856447E+00  0.23089150258E-01  0.13416197398E+00  0.20049185425E-01 0.  0.
         14    1    1    2    0    0 -0.15609504872E-01  0.12010939930E-01 -0.10748925593E-03  0.19695960863E-01  0.00000000000E+00 0. -1.
     999901    1    3    3    0    0 -0.67078886185E-01 -0.11313950440E+00 -0.22981661002E-01  0.89007206516E+00  0.88000000000E+00 0.  1.
        -11    1    4    4    0    0  0.41079209061E-01  0.45610194183E-01  0.11549235828E-02  0.61395327183E-01  0.51100000000E-03 0.  1.
         11    1    4    4    0    0  0.41609181996E-01  0.55518370285E-01  0.21934226675E-01  0.72766646799E-01  0.51100000000E-03 0. -1.
</event>
<event>
 8    1  0.1042301E+005  0.1043930E+01  0.7957747E-01            NaN
         13   -1    0    0    0    0  0.00000000000E+00  0.00000000000E+00  0.74505805969E-08  0.10566000000E+00  0.10566000000E+00 0. -1.
     999900   -1    0    0    0    0 -0.00000000000E+00 -0.00000000000E+00 -0.74505805969E-08  0.93827000000E+00  0.93827000000E+00 0. -1.
     999902    2    1    2    0    0  0.20570642471E-01 -0.33793637707E-02 -0.47842998964E-02  0.10225416631E+01  0.10223179504E+01 0.  0.
     999903    2    3    3    0    0 -0.15312806987E-01  0.93723455273E-01  0.88996760784E-01  0.13152456629E+00  0.18966285389E-01 0.  0.
         14    1    1    2    0    0 -0.20570642471E-01  0.33793637707E-02  0.47842998964E-02  0.21388336931E-01  0.00000000000E+00 0. -1.
     999901    1    3    3    0    0  0.35883449458E-01 -0.97102819044E-01 -0.93781060681E-01  0.89101709678E+00  0.88000000000E+00 0. -1.
        -11    1    4    4    0    0 -0.13534436409E-01  0.39319980217E-01  0.30183993941E-01  0.51386539331E-01  0.51100000000E-03 0. -1.
         11    1    4    4    0    0 -0.17783705775E-02  0.54403475056E-01  0.58812766843E-01  0.80138026959E-01  0.51100000000E-03 0.  1.
</event>
<event>
 8    1  0.1042301E+005  0.1043930E+01  0.7957747E-01            NaN
         13   -1    0    0    0    0  0.00000000000E+00  0.00000000000E+00  0.74505805969E-08  0.10566000000E+00  0.10566000000E+00 0.  1.
     999900   -1    0    0    0    0 -0.00000000000E+00 -0.00000000000E+00 -0.74505805969E-08  0.93827000000E+00  0.93827000000E+00 0. -1.
     999902    2    1    2    0    0 -0.20798623082E-01  0.58303082057E-02 -0.12531207230E-01  0.10189578881E+01  0.10186518402E+01 0.  0.
     999903    2    3    3    0    0 -0.58972681124E-01  0.48496757545E-01  0.10291788175E+00  0.12957260788E+00  0.19163969266E-01 0.  0.
         14    1    1    2    0    0  0.20798623082E-01 -0.58303082057E-02  0.12531207230E-01  0.24972111855E-01  0.00000000000E+00 0.  1.
     999901    1    3    3    0    0  0.38174058043E-01 -0.42666449339E-01 -0.11544908898E+00  0.88938528027E+00  0.88000000000E+00 0. -1.
        -11    1    4    4    0    0 -0.27782740443E-01  0.29980562554E-01  0.67249963614E-01  0.78699005869E-01  0.51100000000E-03 0.  1.
         11    1    4    4    0    0 -0.31189940681E-01  0.18516194991E-01  0.35667918133E-01  0.50873602011E-01  0.51100000000E-03 0. -1.
</event>
<event>
 8    1  0.1096328E+005  0.1043930E+01  0.7957747E-01            NaN
         13   -1    0    0    0    0  0.00000000000E+00  0.00000000000E+00  0.74505805969E-08  0.10566000000E+00  0.10566000000E+00 0.  1.
     999900   -1    0    0    0    0 -0.00000000000E+00 -0.00000000000E+00 -0.74505805969E-08  0.93827000000E+00  0.93827000000E+00 0. -1.
     999902    2    1    2    0    0  0.10231658685E-01  0.20093139672E-01 -0.85706249682E-02  0.10198078792E+01  0.10195225518E+01 0.  0.
     999903    2    3    3    0    0  0.38406600020E-03  0.12998428384E+00  0.16918818778E-01  0.13255213791E+00  0.19691655130E-01 0.  0.
         14    1    1    2    0    0 -0.10231658685E-01 -0.20093139672E-01  0.85706249682E-02  0.24122120837E-01  0.00000000000E+00 0.  1.
     999901    1    3    3    0    0  0.98475926851E-02 -0.10989114417E+00 -0.25489443746E-01  0.88725574126E+00  0.88000000000E+00 0. -1.
        -11    1    4    4    0    0  0.86178985324E-03  0.75928962151E-01  0.19605143274E-01  0.78425587272E-01  0.51100000000E-03 0. -1.
         11    1    4    4    0    0 -0.47772385305E-03  0.54055321692E-01 -0.26863244958E-02  0.54126550635E-01  0.51100000000E-03 0.  1.
</event>
<event>
 8    1  0.1042301E+005  0.1043930E+01  0.7957747E-01            NaN
         13   -1    0    0    0    0  0.00000000000E+00  0.00000000000E+00  0.74505805969E-08  0.10566000000E+00  0.10566000000E+00 0.  1.
     999900   -1    0    0    0    0 -0.00000000000E+00 -0.00000000000E+00 -0.74505805969E-08  0.93827000000E+00  0.93827000000E+00 0. -1.
     999902    2    1    2    0    0 -0.21297332459E-01  0.11073649308E-01 -0.38959712241E-02  0.10196116803E+01  0.10193216362E+01 0.  0.
     999903    2    3    3    0    0 -0.85820500082E-01  0.59362542516E-01  0.78972142756E-01  0.13205200310E+00  0.17665290895E-01 0.  0.
         14    1    1    2    0    0  0.21297332459E-01 -0.11073649308E-01  0.38959712241E-02  0.24318319651E-01  0.00000000000E+00 0. -1.
     999901    1    3    3    0    0  0.64523167623E-01 -0.48288893208E-01 -0.82868113980E-01  0.88755967725E+00  0.88000000000E+00 0. -1.
        -11    1    4    4    0    0 -0.14918538287E-01  0.88730325538E-02  0.21973248871E-01  0.28006754155E-01  0.51100000000E-03 0. -1.
         11    1    4    4    0    0 -0.70901961795E-01  0.50489509963E-01  0.56998893885E-01  0.10404524894E+00  0.51100000000E-03 0.  1.
</event>
<event>
 8    1  0.1042301E+005  0.1043930E+01  0.7957747E-01            NaN
         13   -1    0    0    0    0  0.00000000000E+00  0.00000000000E+00  0.74505805969E-08  0.10566000000E+00  0.10566000000E+00 0.  1.
     999900   -1    0    0    0    0 -0.00000000000E+00 -0.00000000000E+00 -0.74505805969E-08  0.93827000000E+00  0.93827000000E+00 0. -1.
     999902    2    1    2    0    0  0.13256091705E-02  0.16682689486E-01  0.14058230911E-01  0.10220735770E+01  0.10218398572E+01 0.  0.
     999903    2    3    3    0    0  0.10623893314E+00 -0.47872473179E-01  0.59533499096E-01  0.13233081950E+00  0.19716076505E-01 0.  0.
         14    1    1    2    0    0 -0.13256091705E-02 -0.16682689486E-01 -0.14058230911E-01  0.21856422958E-01  0.00000000000E+00 0.  1.
     999901    1    3    3    0    0 -0.10491332397E+00  0.64555162665E-01 -0.45475268185E-01  0.88974275754E+00  0.88000000000E+00 0. -1.
        -11    1    4    4    0    0  0.75453411682E-01 -0.25556602604E-01  0.34572942610E-01  0.86844152093E-01  0.51100000000E-03 0. -1.
         11    1    4    4    0    0  0.30785521460E-01 -0.22315870575E-01  0.24960556486E-01  0.45486667412E-01  0.51100000000E-03 0.  1.
</event>
<event>
 8    1  0.1042301E+005  0.1043930E+01  0.7957747E-01            NaN
         13   -1    0    0    0    0  0.00000000000E+00  0.00000000000E+00  0.74505805969E-08  0.10566000000E+00  0.10566000000E+00 0. -1.
     999900   -1    0    0    0    0 -0.00000000000E+00 -0.00000000000E+00 -0.74505805969E-08  0.93827000000E+00  0.93827000000E+00 0. -1.
     999902    2    1    2    0    0 -0.54402013244E-02 -0.22062213828E-01 -0.48007882969E-02  0.10207053442E+01  0.10204410885E+01 0.  0.
     999903    2    3    3    0    0  0.91146929579E-01 -0.28565670575E-01  0.86821061352E-01  0.13066830443E+00  0.20311296876E-01 0.  0.
         14    1    1    2    0    0  0.54402013244E-02  0.22062213828E-01  0.48007882969E-02  0.23224655815E-01  0.00000000000E+00 0.  1.
     999901    1    3    3    0    0 -0.96587130904E-01  0.65034567464E-02 -0.91621849649E-01  0.89003703976E+00  0.88000000000E+00 0. -1.
        -11    1    4    4    0    0  0.37958957840E-01 -0.13052316288E-01  0.50094762791E-01  0.64194951678E-01  0.51100000000E-03 0.  1.
         11    1    4    4    0    0  0.53187971739E-01 -0.15513354287E-01  0.36726298561E-01  0.66473352751E-01  0.51100000000E-03 0. -1.
</event>
<event>
 8    1  0.1042301E+005  0.1043930E+01  0.7957747E-01            NaN
         13   -1    0    0    0    0  0.00000000000E+00  0.00000000000E+00  0.74505805969E-08  0.10566000000E+00  0.10566000000E+00 0. -1.
     999900   -1    0    0    0    0 -0.00000000000E+00 -0.00000000000E+00 -0.74505805969E-08  0.93827000000E+00  0.93827000000E+00 0.  1.
     999902    2    1    2    0    0 -0.17312273508E-01 -0.15475567110E-01 -0.30819321995E-02  0.10205055193E+01  0.10202366434E+01 0.  0.
     999903    2    3    3    0    0  0.44426500855E-01 -0.37491550264E-01  0.11415467354E+00  0.13031407834E+00  0.23898518861E-01 0.  0.
         14    1    1    2    0    0  0.17312273508E-01  0.15475567110E-01  0.30819321995E-02  0.23424480730E-01  0.00000000000E+00 0.  1.
     999901    1    3    3    0    0 -0.61738774362E-01  0.22015983154E-01 -0.11723660574E+00  0.89019144093E+00  0.88000000000E+00 0. -1.
        -11    1    4    4    0    0  0.38449228900E-01 -0.18006484580E-01  0.76330190136E-01  0.87344923935E-01  0.51100000000E-03 0. -1.
         11    1    4    4    0    0  0.59772719545E-02 -0.19485065684E-01  0.37824483405E-01  0.42969154408E-01  0.51100000000E-03 0.  1.
</event>
<event>
 8    1  0.1042301E+005  0.1043930E+01  0.7957747E-01            NaN
         13   -1    0    0    0    0  0.00000000000E+00  0.00000000000E+00  0.74505805969E-08  0.10566000000E+00  0.10566000000E+00 0. -1.
     999900   -1    0    0    0    0 -0.00000000000E+00 -0.00000000000E+00 -0.74505805969E-08  0.93827000000E+00  0.93827000000E+00 0.  1.
     999902    2    1    2    0    0  0.15269257916E-01  0.16459054196E-01  0.66736824094E-02  0.10205080287E+01  0.10202392111E+01 0.  0.
     999903    2    3    3    0    0  0.23576930003E-01 -0.65341840070E-01 -0.10733687547E+00  0.12935214390E+00  0.19630196195E-01 0.  0.
         14    1    1    2    0    0 -0.15269257916E-01 -0.16459054196E-01 -0.66736824094E-02  0.23421971293E-01  0.00000000000E+00 0. -1.
     999901    1    3    3    0    0 -0.83076720869E-02  0.81800894267E-01  0.11401055788E+00  0.89115588481E+00  0.88000000000E+00 0. -1.
        -11    1    4    4    0    0  0.12871785111E-01 -0.45952783191E-01 -0.56901453613E-01  0.74265588796E-01  0.51100000000E-03 0.  1.
         11    1    4    4    0    0  0.10705144891E-01 -0.19389056879E-01 -0.50435421862E-01  0.55086555104E-01  0.51100000000E-03 0. -1.
</event>
<event>
 8    1  0.1042301E+005  0.1043930E+01  0.7957747E-01            NaN
         13   -1    0    0    0    0  0.00000000000E+00  0.00000000000E+00  0.74505805969E-08  0.10566000000E+00  0.10566000000E+00 0. -1.
     999900   -1    0    0    0    0 -0.00000000000E+00 -0.00000000000E+00 -0.74505805969E-08  0.93827000000E+00  0.93827000000E+00 0. -1.
     999902    2    1    2    0    0  0.71858491337E-02  0.63971581484E-02  0.21476792175E-01  0.10203967754E+01  0.10201253680E+01 0.  0.
     999903    2    3    3    0    0 -0.70191267308E-01 -0.61293799882E-01 -0.85750109852E-01  0.12794683700E+00  0.18263839915E-01 0.  0.
         14    1    1    2    0    0 -0.71858491337E-02 -0.63971581484E-02 -0.21476792175E-01  0.23533224647E-01  0.00000000000E+00 0.  1.
     999901    1    3    3    0    0  0.77377116442E-01  0.67690958030E-01  0.10722690203E+00  0.89244993835E+00  0.88000000000E+00 0.  1.
        -11    1    4    4    0    0 -0.19057598811E-01 -0.26745247575E-01 -0.24294838018E-01  0.40853403966E-01  0.51100000000E-03 0.  1.
         11    1    4    4    0    0 -0.51133668498E-01 -0.34548552307E-01 -0.61455271834E-01  0.87093433034E-01  0.51100000000E-03 0. -1.
</event>
<event>
 8    1  0.1042301E+005  0.1043930E+01  0.7957747E-01            NaN
         13   -1    0    0    0    0  0.00000000000E+00  0.00000000000E+00  0.74505805969E-08  0.10566000000E+00  0.10566000000E+00 0. -1.
     999900   -1    0    0    0    0 -0.00000000000E+00 -0.00000000000E+00 -0.74505805969E-08  0.93827000000E+00  0.93827000000E+00 0.  1.
     999902    2    1    2    0    0  0.91876584943E-02 -0.13909124560E-03  0.23216704415E-01  0.10189610637E+01  0.10186550945E+01 0.  0.
     999903    2    3    3    0    0 -0.97934595958E-01 -0.74196035443E-01  0.36283084565E-01  0.12928115574E+00  0.17346995194E-01 0.  0.
         14    1    1    2    0    0 -0.91876584943E-02  0.13909124560E-03 -0.23216704415E-01  0.24968936278E-01  0.00000000000E+00 0.  1.
     999901    1    3    3    0    0  0.10712225445E+00  0.74056944197E-01 -0.13066380150E-01  0.88967990799E+00  0.88000000000E+00 0. -1.
        -11    1    4    4    0    0 -0.52296421271E-01 -0.48934088045E-01  0.16561874878E-01  0.73512022629E-01  0.51100000000E-03 0. -1.
         11    1    4    4    0    0 -0.45638174687E-01 -0.25261947398E-01  0.19721209686E-01  0.55769133108E-01  0.51100000000E-03 0.  1.
</event>
<event>
 8    1  0.1042301E+005  0.1043930E+01  0.7957747E-01            NaN
         13   -1    0    0    0    0  0.00000000000E+00  0.00000000000E+00  0.74505805969E-08  0.10566000000E+00  0.10566000000E+00 0. -1.
     999900   -1    0    0    0    0 -0.00000000000E+00 -0.00000000000E+00 -0.74505805969E-08  0.93827000000E+00  0.93827000000E+00 0.  1.
     999902    2    1    2    0    0  0.15886113632E-01  0.15216053516E-01  0.97337941056E-02  0.10198749872E+01  0.10195912642E+01 0.  0.
     999903    2    3    3    0    0 -0.11817802971E-01 -0.84747998439E-01  0.95104823338E-01  0.12967920467E+00  0.21210492589E-01 0.  0.
         14    1    1    2    0    0 -0.15886113632E-01 -0.15216053516E-01 -0.97337941056E-02  0.24055012755E-01  0.00000000000E+00 0.  1.
     999901    1    3    3    0    0  0.27703916603E-01  0.99964051955E-01 -0.85371029232E-01  0.89019578257E+00  0.88000000000E+00 0. -1.
        -11    1    4    4    0    0 -0.60302180577E-02 -0.35369944543E-01  0.25001130869E-01  0.43734587828E-01  0.51100000000E-03 0.  1.
         11    1    4    4    0    0 -0.57875849134E-02 -0.49378053896E-01  0.70103692469E-01  0.85944616844E-01  0.51100000000E-03 0. -1.
</event>
<event>
 8    1  0.1042301E+005  0.1043930E+01  0.7957747E-01            NaN
         13   -1    0    0    0    0  0.00000000000E+00  0.00000000000E+00  0.74505805969E-08  0.10566000000E+00  0.10566000000E+00 0.  1.
     999900   -1    0    0    0    0 -0.00000000000E+00 -0.00000000000E+00 -0.74505805969E-08  0.93827000000E+00  0.93827000000E+00 0. -1.
     999902    2    1    2    0    0  0.12564547397E-01 -0.19411069971E-01  0.40210227969E-02  0.10204603150E+01  0.10201903883E+01 0.  0.
     999903    2    3    3    0    0 -0.72762259591E-01  0.84940317247E-01  0.59970914521E-01  0.12843998656E+00  0.19776643897E-01 0.  0.
         14    1    1    2    0    0 -0.12564547397E-01  0.19411069971E-01 -0.40210227969E-02  0.23469684980E-01  0.00000000000E+00 0.  1.
     999901    1    3    3    0    0  0.85326806988E-01 -0.10435138722E+00 -0.55949891725E-01  0.89202032846E+00  0.88000000000E+00 0.  1.
        -11    1    4    4    0    0 -0.27942695985E-01  0.33015824318E-01  0.12516863411E-01  0.45030788412E-01  0.51100000000E-03 0. -1.
         11    1    4    4    0    0 -0.44819563606E-01  0.51924492928E-01  0.47454051110E-01  0.83409198147E-01  0.51100000000E-03 0.  1.
</event>
<event>
 8    1  0.1042301E+005  0.1043930E+01  0.7957747E-01            NaN
         13   -1    0    0    0    0  0.00000000000E+00  0.00000000000E+00  0.74505805969E-08  0.10566000000E+00  0.10566000000E+00 0.  1.
     999900   -1    0    0    0    0 -0.00000000000E+00 -0.00000000000E+00 -0.74505805969E-08  0.93827000000E+00  0.93827000000E+00 0. -1.
     999902    2    1    2    0    0 -0.21994669063E-01 -0.78941966522E-02 -0.55611977645E-02  0.10199089524E+01  0.10196260395E+01 0.  0.
     999903    2    3    3    0    0  0.92266200044E-01  0.85739688568E-01 -0.46147314259E-03  0.12758117748E+00  0.20307585381E-01 0.  0.
         14    1    1    2    0    0  0.21994669063E-01  0.78941966522E-02  0.55611977645E-02  0.24021047616E-01  0.00000000000E+00 0.  1.
     999901    1    3    3    0    0 -0.11426086911E+00 -0.93633885220E-01 -0.50997246219E-02  0.89232777490E+00  0.88000000000E+00 0.  1.
        -11    1    4    4    0    0  0.36755615094E-01  0.32063785252E-01  0.95855250338E-02  0.49711215805E-01  0.51100000000E-03 0. -1.
         11    1    4    4    0    0  0.55510584950E-01  0.53675903315E-01 -0.10046998176E-01  0.77869961677E-01  0.51100000000E-03 0.  1.
</event>
<event>
 8    1  0.1042301E+005  0.1043930E+01  0.7957747E-01            NaN
         13   -1    0    0    0    0  0.00000000000E+00  0.00000000000E+00  0.74505805969E-08  0.10566000000E+00  0.10566000000E+00 0. -1.
     999900   -1    0    0    0    0 -0.00000000000E+00 -0.00000000000E+00 -0.74505805969E-08  0.93827000000E+00  0.93827000000E+00 0.  1.
     999902    2    1    2    0    0 -0.18754614809E-01 -0.11042822770E-01 -0.53554113000E-02  0.10215166124E+01  0.10212706936E+01 0.  0.
     999903    2    3    3    0    0 -0.37996203783E-01  0.11876224446E+00 -0.35659276921E-01  0.13127062482E+00  0.20302972647E-01 0.  0.
         14    1    1    2    0    0  0.18754614809E-01  0.11042822770E-01  0.53554113000E-02  0.22413387552E-01  0.00000000000E+00 0.  1.
     999901    1    3    3    0    0  0.19241588973E-01 -0.12980506723E+00  0.30303865621E-01  0.89024598763E+00  0.88000000000E+00 0.  1.
        -11    1    4    4    0    0 -0.13846885227E-01  0.65820697340E-01 -0.11389650330E-01  0.68220859599E-01  0.51100000000E-03 0. -1.
         11    1    4    4    0    0 -0.24149318556E-01  0.52941547118E-01 -0.24269626591E-01  0.63049765216E-01  0.51100000000E-03 0.  1.
</event>
<event>
 8    1  0.1042301E+005  0.1043930E+01  0.7957747E-01            NaN
         13   -1    0    0    0    0  0.00000000000E+00  0.00000000000E+00  0.74505805969E-08  0.10566000000E+00  0.10566000000E+00 0. -1.
     999900   -1    0    0    0    0 -0.00000000000E+00 -0.00000000000E+00 -0.74505805969E-08  0.93827000000E+00  0.93827000000E+00 0.  1.
     999902    2    1    2    0    0 -0.20902035252E-01 -0.94343396514E-02  0.25922675329E-02  0.10208514018E+01  0.10205904972E+01 0.  0.
     999903    2    3    3    0    0 -0.13114141481E+00 -0.17796690212E-01 -0.21049334135E-02  0.13392146469E+00  0.20389583049E-01 0.  0.
         14    1    1    2    0    0  0.20902035252E-01  0.94343396514E-02 -0.25922675329E-02  0.23078598166E-01  0.00000000000E+00 0. -1.
     999901    1    3    3    0    0  0.11023937956E+00  0.83623505610E-02  0.46972009464E-02  0.88692993715E+00  0.88000000000E+00 0.  1.
        -11    1    4    4    0    0 -0.22724907900E-01  0.15346792128E-02  0.58042706805E-02  0.23510154369E-01  0.51100000000E-03 0.  1.
         11    1    4    4    0    0 -0.10841650691E+00 -0.19331369425E-01 -0.79092040940E-02  0.11041131032E+00  0.51100000000E-03 0. -1.
</event>
<event>
 8    1  0.1042301E+005  0.1043930E+01  0.7957747E-01            NaN
         13   -1    0    0    0    0  0.00000000000E+00  0.00000000000E+00  0.74505805969E-08  0.10566000000E+00  0.10566000000E+00 0.  1.
     999900   -1    0    0    0    0 -0.00000000000E+00 -0.00000000000E+00 -0.74505805969E-08  0.93827000000E+00  0.93827000000E+00 0. -1.
     999902    2    1    2    0    0  0.41565516896E-02  0.18458291609E-01  0.14759459033E-01  0.10199336027E+01  0.10196512771E+01 0.  0.
     999903    2    3    3    0    0  0.11152979254E+00  0.59021349246E-01  0.33760952924E-01  0.13227633144E+00  0.20852137254E-01 0.  0.
         14    1    1    2    0    0 -0.41565516896E-02 -0.18458291609E-01 -0.14759459033E-01  0.23996397271E-01  0.00000000000E+00 0. -1.
     999901    1    3    3    0    0 -0.10737324085E+00 -0.40563057638E-01 -0.19001493891E-01  0.88765727128E+00  0.88000000000E+00 0.  1.
        -11    1    4    4    0    0  0.61750127736E-01  0.38778630401E-01  0.10317349252E-01  0.73644886230E-01  0.51100000000E-03 0. -1.
         11    1    4    4    0    0  0.49779664800E-01  0.20242718845E-01  0.23443603671E-01  0.58631445214E-01  0.51100000000E-03 0.  1.
</event>
<event>
 8    1  0.1042301E+005  0.1043930E+01  0.7957747E-01            NaN
         13   -1    0    0    0    0  0.00000000000E+00  0.00000000000E+00  0.74505805969E-08  0.10566000000E+00  0.10566000000E+00 0. -1.
     999900   -1    0    0    0    0 -0.00000000000E+00 -0.00000000000E+00 -0.74505805969E-08  0.93827000000E+00  0.93827000000E+00 0. -1.
     999902    2    1    2    0    0  0.74373307734E-02 -0.11447875884E-01  0.20347630111E-01  0.10194270654E+01  0.10191325468E+01 0.  0.
     999903    2    3    3    0    0  0.45671243893E-03  0.64966049315E-01  0.11219096204E+00  0.13132627463E+00  0.20951904356E-01 0.  0.
         14    1    1    2    0    0 -0.74373307734E-02  0.11447875884E-01 -0.20347630111E-01  0.24502934567E-01  0.00000000000E+00 0.  1.
     999901    1    3    3    0    0  0.69806183345E-02 -0.76413925199E-01 -0.91843331929E-01  0.88810079080E+00  0.88000000000E+00 0.  1.
        -11    1    4    4    0    0  0.10384692029E-01  0.30995180272E-01  0.49192389326E-01  0.59065178551E-01  0.51100000000E-03 0.  1.
         11    1    4    4    0    0 -0.99279795898E-02  0.33970869043E-01  0.62998572714E-01  0.72261096084E-01  0.51100000000E-03 0. -1.
</event>
<event>
 8    1  0.1042301E+005  0.1043930E+01  0.7957747E-01            NaN
         13   -1    0    0    0    0  0.00000000000E+00  0.00000000000E+00  0.74505805969E-08  0.10566000000E+00  0.10566000000E+00 0. -1.
     999900   -1    0    0    0    0 -0.00000000000E+00 -0.00000000000E+00 -0.74505805969E-08  0.93827000000E+00  0.93827000000E+00 0. -1.
     999902    2    1    2    0    0 -0.16422909335E-01  0.16905796769E-01  0.64374660391E-02  0.10194972579E+01  0.10192044447E+01 0.  0.
     999903    2    3    3    0    0 -0.79124164883E-01  0.20017394002E-01  0.10191302233E+00  0.13210968121E+00  0.20133907185E-01 0.  0.
         14    1    1    2    0    0  0.16422909335E-01 -0.16905796769E-01 -0.64374660391E-02  0.24432742057E-01  0.00000000000E+00 0.  1.
     999901    1    3    3    0    0  0.62701255548E-01 -0.31115972325E-02 -0.95475556292E-01  0.88738757673E+00  0.88000000000E+00 0. -1.
        -11    1    4    4    0    0 -0.67409382256E-01  0.22107610171E-01  0.94172874514E-01  0.11790488819E+00  0.51100000000E-03 0.  1.
         11    1    4    4    0    0 -0.11714782627E-01 -0.20902161693E-02  0.77401478170E-02  0.14204793024E-01  0.51100000000E-03 0. -1.
</event>
<event>
 8    1  0.1042301E+005  0.1043930E+01  0.7957747E-01            NaN
         13   -1    0    0    0    0  0.00000000000E+00  0.00000000000E+00  0.74505805969E-08  0.10566000000E+00  0.10566000000E+00 0.  1.
     999900   -1    0    0    0    0 -0.00000000000E+00 -0.00000000000E+00 -0.74505805969E-08  0.93827000000E+00  0.93827000000E+00 0. -1.
     999902    2    1    2    0    0  0.10541337252E-01 -0.19308632978E-01  0.38813797956E-02  0.10215915084E+01  0.10213472484E+01 0.  0.
     999903    2    3    3    0    0 -0.66253348420E-01 -0.10397030321E+00  0.46259695306E-01  0.13318791554E+00  0.19993281624E-01 0.  0.
         14    1    1    2    0    0 -0.10541337252E-01  0.19308632978E-01 -0.38813797956E-02  0.22338491616E-01  0.00000000000E+00 0. -1.
     999901    1    3    3    0    0  0.76794685673E-01  0.84661670229E-01 -0.42378315511E-01  0.88840359284E+00  0.88000000000E+00 0.  1.
        -11    1    4    4    0    0 -0.18221316606E-01 -0.35802483728E-01  0.24300916308E-01  0.46953486285E-01  0.51100000000E-03 0.  1.
         11    1    4    4    0    0 -0.48032031814E-01 -0.68167819479E-01  0.21958778999E-01  0.86234429254E-01  0.51100000000E-03 0. -1.
</event>
<event>
 8    1  0.1042301E+005  0.1043930E+01  0.7957747E-01            NaN
         13   -1    0    0    0    0  0.00000000000E+00  0.00000000000E+00  0.74505805969E-08  0.10566000000E+00  0.10566000000E+00 0. -1.
     999900   -1    0    0    0    0 -0.00000000000E+00 -0.00000000000E+00 -0.74505805969E-08  0.93827000000E+00  0.93827000000E+00 0.  1.
     999902    2    1    2    0    0  0.17417803112E-01  0.33632924424E-02 -0.16714156214E-01  0.10195567643E+01  0.10192653928E+01 0.  0.
     999903    2    3    3    0    0 -0.56521659383E-01 -0.96744881325E-01 -0.60363046848E-01  0.12972873808E+00  0.25131215980E-01 0.  0.
         14    1    1    2    0    0 -0.17417803112E-01 -0.33632924424E-02  0.16714156214E-01  0.24373235715E-01  0.00000000000E+00 0. -1.
     999901    1    3    3    0    0  0.73939462495E-01  0.10010817377E+00  0.43648890633E-01  0.88982802621E+00  0.88000000000E+00 0.  1.
        -11    1    4    4    0    0 -0.23973963766E-01 -0.54708798607E-01 -0.43702095665E-01  0.74013092559E-01  0.51100000000E-03 0.  1.
         11    1    4    4    0    0 -0.32547695618E-01 -0.42036082718E-01 -0.16660951183E-01  0.55715645519E-01  0.51100000000E-03 0. -1.
</event>
<event>
 8    1  0.1042301E+005  0.1043930E+01  0.7957747E-01            NaN
         13   -1    0    0    0    0  0.00000000000E+00  0.00000000000E+00  0.74505805969E-08  0.10566000000E+00  0.10566000000E+00 0.  1.
     999900   -1    0    0    0    0 -0.00000000000E+00 -0.00000000000E+00 -0.74505805969E-08  0.93827000000E+00  0.93827000000E+00 0. -1.
     999902    2    1    2    0    0 -0.21306357705E-01  0.96789201985E-02 -0.57313563078E-02  0.10198366229E+01  0.10195519833E+01 0.  0.
     999903    2    3    3    0    0 -0.41082151313E-01 -0.11866932681E+00  0.25766784348E-01  0.12974871298E+00  0.20016220012E-01 0.  0.
         14    1    1    2    0    0  0.21306357705E-01 -0.96789201985E-02  0.57313563078E-02  0.24093377098E-01  0.00000000000E+00 0.  1.
     999901    1    3    3    0    0  0.19775793609E-01  0.12834824700E+00 -0.31498140656E-01  0.89008790992E+00  0.88000000000E+00 0.  1.
        -11    1    4    4    0    0 -0.24733041355E-01 -0.68864733552E-01  0.49356477515E-02  0.73339597774E-01  0.51100000000E-03 0.  1.
         11    1    4    4    0    0 -0.16349109958E-01 -0.49804593254E-01  0.20831136597E-01  0.56409115208E-01  0.51100000000E-03 0. -1.
</event>
<event>
 8    1  0.1042301E+005  0.1043930E+01  0.7957747E-01            NaN
         13   -1    0    0    0    0  0.00000000000E+00  0.00000000000E+00  0.74505805969E-08  0.10566000000E+00  0.10566000000E+00 0. -1.
     999900   -1    0    0    0    0 -0.00000000000E+00 -0.00000000000E+00 -0.74505805969E-08  0.93827000000E+00  0.93827000000E+00 0.  1.
     999902    2    1    2    0    0  0.13965533295E-01  0.18674561975E-01 -0.82008260976E-03  0.10205965922E+01  0.10203298271E+01 0.  0.
     999903    2    3    3    0    0 -0.90417675503E-01  0.86498986888E-01 -0.34308284143E-01  0.13120496498E+00  0.19500094800E-01 0.  0.
         14    1    1    2    0    0 -0.13965533295E-01 -0.18674561975E-01  0.82008260976E-03  0.23333407824E-01  0.00000000000E+00 0.  1.
     999901    1    3    3    0    0  0.10438320880E+00 -0.67824424913E-01  0.33488201534E-01  0.88939162720E+00  0.88000000000E+00 0.  1.
        -11    1    4    4    0    0 -0.51242003584E-01  0.57880292863E-01 -0.28270070833E-01  0.82312388249E-01  0.51100000000E-03 0. -1.
         11    1    4    4    0    0 -0.39175671919E-01  0.28618694025E-01 -0.60382133100E-02  0.48892576726E-01  0.51100000000E-03 0.  1.
</event>
<event>
 8    1  0.1042301E+005  0.1043930E+01  0.7957747E-01            NaN
         13   -1    0    0    0    0  0.00000000000E+00  0.00000000000E+00  0.74505805969E-08  0.10566000000E+00  0.10566000000E+00 0. -1.
     999900   -1    0    0    0    0 -0.00000000000E+00 -0.00000000000E+00 -0.74505805969E-08  0.93827000000E+00  0.93827000000E+00 0.  1.
     999902    2    1    2    0    0 -0.14820792872E-01 -0.82336657508E-02 -0.19520673642E-01  0.10180745199E+01  0.10177461482E+01 0.  0.
     999903    2    3    3    0    0 -0.16406207899E-01 -0.92890849775E-01  0.84379094048E-01  0.12792592887E+00  0.18637009811E-01 0.  0.
         14    1    1    2    0    0  0.14820792872E-01  0.82336657508E-02  0.19520673642E-01  0.25855480124E-01  0.00000000000E+00 0. -1.
     999901    1    3    3    0    0  0.15854150271E-02  0.84657184024E-01 -0.10389976769E+00  0.89014859101E+00  0.88000000000E+00 0.  1.
        -11    1    4    4    0    0 -0.62602977482E-02 -0.17893264437E-01  0.26797337075E-01  0.32828625244E-01  0.51100000000E-03 0.  1.
         11    1    4    4    0    0 -0.10145910151E-01 -0.74997585338E-01  0.57581756973E-01  0.95097303623E-01  0.51100000000E-03 0. -1.
</event>
<event>
 8    1  0.1042301E+005  0.1043930E+01  0.7957747E-01            NaN
         13   -1    0    0    0    0  0.00000000000E+00  0.00000000000E+00  0.74505805969E-08  0.10566000000E+00  0.10566000000E+00 0.  1.
     999900   -1    0    0    0    0 -0.00000000000E+00 -0.00000000000E+00 -0.74505805969E-08  0.93827000000E+00  0.93827000000E+00 0. -1.
     999902    2    1    2    0    0  0.84601204676E-02  0.28638632572E-02  0.21729052496E-01  0.10204368718E+01  0.10201663993E+01 0.  0.
     999903    2    3    3    0    0 -0.19571132487E-01 -0.97367528309E-01 -0.79360621191E-01  0.12855615940E+00  0.19107933623E-01 0.  0.
         14    1    1    2    0    0 -0.84601204676E-02 -0.28638632572E-02 -0.21729052496E-01  0.23493128218E-01  0.00000000000E+00 0. -1.
     999901    1    3    3    0    0  0.28031252955E-01  0.10023139157E+00  0.10108967369E+00  0.89188071238E+00  0.88000000000E+00 0.  1.
        -11    1    4    4    0    0 -0.29694330684E-02 -0.61299387426E-01 -0.50231816076E-01  0.79309071983E-01  0.51100000000E-03 0.  1.
         11    1    4    4    0    0 -0.16601699419E-01 -0.36068140883E-01 -0.29128805115E-01  0.49247087414E-01  0.51100000000E-03 0. -1.
</event>
<event>
 8    1  0.1042301E+005  0.1043930E+01  0.7957747E-01            NaN
         13   -1    0    0    0    0  0.00000000000E+00  0.00000000000E+00  0.74505805969E-08  0.10566000000E+00  0.10566000000E+00 0.  1.
     999900   -1    0    0    0    0 -0.00000000000E+00 -0.00000000000E+00 -0.74505805969E-08  0.93827000000E+00  0.93827000000E+00 0.  1.
     999902    2    1    2    0    0 -0.14663400969E-01 -0.12149590527E-01  0.14555330159E-01  0.10199615726E+01  0.10196799125E+01 0.  0.
     999903    2    3    3    0    0 -0.28092806130E-01  0.60279930787E-01  0.11170562958E+00  0.13155594158E+00  0.20148009157E-01 0.  0.
         14    1    1    2    0    0  0.14663400969E-01  0.12149590527E-01 -0.14555330159E-01  0.23968427441E-01  0.00000000000E+00 0.  1.
     999901    1    3    3    0    0  0.13429405160E-01 -0.72429521313E-01 -0.97150299420E-01  0.88840563098E+00  0.88000000000E+00 0.  1.
        -11    1    4    4    0    0 -0.26793301981E-02  0.82015385811E-03  0.14695037768E-01  0.14968524264E-01  0.51100000000E-03 0. -1.
         11    1    4    4    0    0 -0.25413475932E-01  0.59459776929E-01  0.97010591812E-01  0.11658741731E+00  0.51100000000E-03 0.  1.
</event>
<event>
 8    1  0.1042301E+005  0.1043930E+01  0.7957747E-01            NaN
         13   -1    0    0    0    0  0.00000000000E+00  0.00000000000E+00  0.74505805969E-08  0.10566000000E+00  0.10566000000E+00 0.  1.
     999900   -1    0    0    0    0 -0.00000000000E+00 -0.00000000000E+00 -0.74505805969E-08  0.93827000000E+00  0.93827000000E+00 0. -1.
     999902    2    1    2    0    0  0.40125421680E-02 -0.20617407586E-01  0.11420507908E-01  0.10200217171E+01  0.10197414856E+01 0.  0.
     999903    2    3    3    0    0  0.12232126046E+00 -0.17320384299E-01 -0.39817797524E-01  0.13062125211E+00  0.14627646065E-01 0.  0.
         14    1    1    2    0    0 -0.40125421680E-02  0.20617407586E-01 -0.11420507908E-01  0.23908282897E-01  0.00000000000E+00 0. -1.
     999901    1    3    3    0    0 -0.11830871830E+00 -0.32970232870E-02  0.51238305431E-01  0.88940046499E+00  0.88000000000E+00 0.  1.
        -11    1    4    4    0    0  0.35750880051E-01  0.13780948326E-02 -0.97045645237E-02  0.37073767861E-01  0.51100000000E-03 0. -1.
         11    1    4    4    0    0  0.86570380412E-01 -0.18698479132E-01 -0.30113233000E-01  0.93547484248E-01  0.51100000000E-03 0.  1.
</event>
<event>
 8    1  0.1042301E+005  0.1043930E+01  0.7957747E-01            NaN
         13   -1    0    0    0    0  0.00000000000E+00  0.00000000000E+00  0.74505805969E-08  0.10566000000E+00  0.10566000000E+00 0.  1.
     999900   -1    0    0    0    0 -0.00000000000E+00 -0.00000000000E+00 -0.74505805969E-08  0.93827000000E+00  0.93827000000E+00 0. -1.
     999902    2    1    2    0    0 -0.20911364010E-01 -0.18442282636E-02 -0.11442851132E-01  0.10200213161E+01  0.10197410751E+01 0.  0.
     999903    2    3    3    0    0  0.60471129698E-02 -0.94711913862E-01 -0.88262606532E-01  0.13139741293E+00  0.21635115208E-01 0.  0.
         14    1    1    2    0    0  0.20911364010E-01  0.18442282636E-02  0.11442851132E-01  0.23908683875E-01  0.00000000000E+00 0.  1.
     999901    1    3    3    0    0 -0.26958476979E-01  0.92867685599E-01  0.76819755401E-01  0.88862390319E+00  0.88000000000E+00 0.  1.
        -11    1    4    4    0    0  0.14106895644E-01 -0.53083895398E-01 -0.50572327742E-01  0.74664087148E-01  0.51100000000E-03 0. -1.
         11    1    4    4    0    0 -0.80597826746E-02 -0.41628018464E-01 -0.37690278791E-01  0.56733325782E-01  0.51100000000E-03 0.  1.
</event>
<event>
 8    1  0.1042301E+005  0.1043930E+01  0.7957747E-01            NaN
         13   -1    0    0    0    0  0.00000000000E+00  0.00000000000E+00  0.74505805969E-08  0.10566000000E+00  0.10566000000E+00 0.  1.
     999900   -1    0    0    0    0 -0.00000000000E+00 -0.00000000000E+00 -0.74505805969E-08  0.93827000000E+00  0.93827000000E+00 0.  1.
     999902    2    1    2    0    0 -0.14566210912E-01 -0.13804230847E-01  0.12395040486E-01  0.10203425390E+01  0.10200698645E+01 0.  0.
     999903    2    3    3    0    0  0.49412181119E-01  0.11000538117E+00  0.41263794385E-01  0.12890804354E+00  0.19283034824E-01 0.  0.
         14    1    1    2    0    0  0.14566210912E-01  0.13804230847E-01 -0.12395040486E-01  0.23587461039E-01  0.00000000000E+00 0.  1.
     999901    1    3    3    0    0 -0.63978392031E-01 -0.12380961202E+00 -0.28868753899E-01  0.89143449542E+00  0.88000000000E+00 0. -1.
        -11    1    4    4    0    0  0.21851432430E-01  0.56619534681E-01  0.11173938095E-01  0.61712031407E-01  0.51100000000E-03 0.  1.
         11    1    4    4    0    0  0.27560748689E-01  0.53385846493E-01  0.30089856290E-01  0.67196012133E-01  0.51100000000E-03 0. -1.
</event>
<event>
 8    1  0.1042301E+005  0.1043930E+01  0.7957747E-01            NaN
         13   -1    0    0    0    0  0.00000000000E+00  0.00000000000E+00  0.74505805969E-08  0.10566000000E+00  0.10566000000E+00 0. -1.
     999900   -1    0    0    0    0 -0.00000000000E+00 -0.00000000000E+00 -0.74505805969E-08  0.93827000000E+00  0.93827000000E+00 0. -1.
     999902    2    1    2    0    0  0.87304502300E-02 -0.72867896737E-02 -0.19619647666E-01  0.10212529491E+01  0.10210011446E+01 0.  0.
     999903    2    3    3    0    0 -0.66293881625E-01 -0.10420958692E+00 -0.43688586398E-01  0.13243238628E+00  0.19368211298E-01 0.  0.
         14    1    1    2    0    0 -0.87304502300E-02  0.72867896737E-02  0.19619647666E-01  0.22677050944E-01  0.00000000000E+00 0. -1.
     999901    1    3    3    0    0  0.75024331855E-01  0.96922797243E-01  0.24068938732E-01  0.88882056277E+00  0.88000000000E+00 0. -1.
        -11    1    4    4    0    0 -0.37507222678E-01 -0.75553933989E-01 -0.27831881777E-01  0.88826029172E-01  0.51100000000E-03 0. -1.
         11    1    4    4    0    0 -0.28786658947E-01 -0.28655652928E-01 -0.15856704621E-01  0.43606357111E-01  0.51100000000E-03 0.  1.
</event>
<event>
 8    1  0.1042301E+005  0.1043930E+01  0.7957747E-01            NaN
         13   -1    0    0    0    0  0.00000000000E+00  0.00000000000E+00  0.74505805969E-08  0.10566000000E+00  0.10566000000E+00 0.  1.
     999900   -1    0    0    0    0 -0.00000000000E+00 -0.00000000000E+00 -0.74505805969E-08  0.93827000000E+00  0.93827000000E+00 0.  1.
     999902    2    1    2    0    0 -0.13103876230E-01 -0.10123215371E-01 -0.17446780105E-01  0.10198762852E+01  0.10195925931E+01 0.  0.
     999903    2    3    3    0    0  0.85650456720E-01  0.91214153369E-01  0.16570132634E-01  0.12792402694E+00  0.20831823321E-01 0.  0.
         14    1    1    2    0    0  0.13103876230E-01  0.10123215371E-01  0.17446780105E-01  0.24053714843E-01  0.00000000000E+00 0.  1.
     999901    1    3    3    0    0 -0.98754332950E-01 -0.10133736874E+00 -0.34016912739E-01  0.89195225821E+00  0.88000000000E+00 0.  1.
        -11    1    4    4    0    0  0.33227200793E-01  0.46572214332E-01  0.49388073636E-03  0.57214710167E-01  0.51100000000E-03 0.  1.
         11    1    4    4    0    0  0.52423255927E-01  0.44641939037E-01  0.16076251897E-01  0.70709316777E-01  0.51100000000E-03 0. -1.
</event>
<event>
 8    1  0.1042301E+005  0.1043930E+01  0.7957747E-01            NaN
         13   -1    0    0    0    0  0.00000000000E+00  0.00000000000E+00  0.74505805969E-08  0.10566000000E+00  0.10566000000E+00 0.  1.
     999900   -1    0    0    0    0 -0.00000000000E+00 -0.00000000000E+00 -0.74505805969E-08  0.93827000000E+00  0.93827000000E+00 0.  1.
     999902    2    1    2    0    0  0.49941225320E-02  0.15239517450E-01 -0.17471352953E-01  0.10202143443E+01  0.10199386628E+01 0.  0.
     999903    2    3    3    0    0 -0.58650527610E-01 -0.81443314745E-01  0.76281120884E-01  0.12769670419E+00  0.20365189704E-01 0.  0.
         14    1    1    2    0    0 -0.49941225320E-02 -0.15239517450E-01  0.17471352953E-01  0.23715655714E-01  0.00000000000E+00 0.  1.
     999901    1    3    3    0    0  0.63644650142E-01  0.96682832195E-01 -0.93752473837E-01  0.89251764010E+00  0.88000000000E+00 0.  1.
        -11    1    4    4    0    0 -0.28244835328E-02 -0.12420537550E-01  0.15687289008E-01  0.20213847176E-01  0.51100000000E-03 0.  1.
         11    1    4    4    0    0 -0.55826044077E-01 -0.69022777196E-01  0.60593831877E-01  0.10748285701E+00  0.51100000000E-03 0. -1.
</event>
<event>
 8    1  0.1042301E+005  0.1043930E+01  0.7957747E-01            NaN
         13   -1    0    0    0    0  0.00000000000E+00  0.00000000000E+00  0.74505805969E-08  0.10566000000E+00  0.10566000000E+00 0.  1.
     999900   -1    0    0    0    0 -0.00000000000E+00 -0.00000000000E+00 -0.74505805969E-08  0.93827000000E+00  0.93827000000E+00 0. -1.
     999902    2    1    2    0    0  0.80286504151E-02 -0.10336277885E-01  0.27311586254E-01  0.10136443497E+01  0.10131918116E+01 0.  0.
     999903    2    3    3    0    0  0.35586895484E-01  0.30679063314E-01 -0.11037895549E+00  0.12156789541E+00  0.19687745513E-01 0.  0.
         14    1    1    2    0    0 -0.80286504151E-02  0.10336277885E-01 -0.27311586254E-01  0.30285650260E-01  0.00000000000E+00 0. -1.
     999901    1    3    3    0    0 -0.27558245068E-01 -0.41015341199E-01  0.13769054174E+00  0.89207645433E+00  0.88000000000E+00 0.  1.
        -11    1    4    4    0    0  0.34994873511E-01  0.21529272845E-01 -0.81641278976E-01  0.91398634099E-01  0.51100000000E-03 0.  1.
         11    1    4    4    0    0  0.59202197254E-03  0.91497904695E-02 -0.28737676513E-01  0.30169261310E-01  0.51100000000E-03 0. -1.
</event>
<event>
 8    1  0.1042301E+005  0.1043930E+01  0.7957747E-01            NaN
         13   -1    0    0    0    0  0.00000000000E+00  0.00000000000E+00  0.74505805969E-08  0.10566000000E+00  0.10566000000E+00 0.  1.
     999900   -1    0    0    0    0 -0.00000000000E+00 -0.00000000000E+00 -0.74505805969E-08  0.93827000000E+00  0.93827000000E+00 0.  1.
     999902    2    1    2    0    0  0.20023310018E-01  0.11173050628E-01 -0.22673801517E-02  0.10208884936E+01  0.10206284365E+01 0.  0.
     999903    2    3    3    0    0  0.66998661920E-01  0.83560704146E-01  0.76261830560E-01  0.13318725275E+00  0.21254776382E-01 0.  0.
         14    1    1    2    0    0 -0.20023310018E-01 -0.11173050628E-01  0.22673801517E-02  0.23041506399E-01  0.00000000000E+00 0.  1.
     999901    1    3    3    0    0 -0.46975351902E-01 -0.72387653518E-01 -0.78529210712E-01  0.88770124085E+00  0.88000000000E+00 0.  1.
        -11    1    4    4    0    0  0.41913849259E-01  0.42656955756E-01  0.31632083973E-01  0.67655276893E-01  0.51100000000E-03 0.  1.
         11    1    4    4    0    0  0.25084812661E-01  0.40903748390E-01  0.44629746587E-01  0.65531975860E-01  0.51100000000E-03 0. -1.
</event>
<event>
 8    1  0.1042301E+005  0.1043930E+01  0.7957747E-01            NaN
         13   -1    0    0    0    0  0.00000000000E+00  0.00000000000E+00  0.74505805969E-08  0.10566000000E+00  0.10566000000E+00 0.  1.
     999900   -1    0    0    0    0 -0.00000000000E+00 -0.00000000000E+00 -0.74505805969E-08  0.93827000000E+00  0.93827000000E+00 0.  1.
     999902    2    1    2    0    0  0.20143807939E-01  0.47993478845E-02  0.12032678047E-01  0.10199802176E+01  0.10196990007E+01 0.  0.
     999903    2    3    3    0    0  0.59094884341E-02  0.20422286099E-01  0.12835061651E+00  0.13207450473E+00  0.22755267902E-01 0.  0.
         14    1    1    2    0    0 -0.20143807939E-01 -0.47993478845E-02 -0.12032678047E-01  0.23949782450E-01  0.00000000000E+00 0.  1.
     999901    1    3    3    0    0  0.14234319505E-01 -0.15622938215E-01 -0.11631793847E+00  0.88790571282E+00  0.88000000000E+00 0.  1.
        -11    1    4    4    0    0  0.67378911848E-02  0.85645089986E-02  0.10762663159E+00  0.10817810749E+00  0.51100000000E-03 0. -1.
         11    1    4    4    0    0 -0.82840275066E-03  0.11857777101E-01  0.20723984922E-01  0.23896397238E-01  0.51100000000E-03 0.  1.
</event>
<event>
 8    1  0.1042301E+005  0.1043930E+01  0.7957747E-01            NaN
         13   -1    0    0    0    0  0.00000000000E+00  0.00000000000E+00  0.74505805969E-08  0.10566000000E+00  0.10566000000E+00 0.  1.
     999900   -1    0    0    0    0 -0.00000000000E+00 -0.00000000000E+00 -0.74505805969E-08  0.93827000000E+00  0.93827000000E+00 0. -1.
     999902    2    1    2    0    0  0.35791258847E-02 -0.34091352070E-02  0.23673619844E-01  0.10197458601E+01  0.10194590461E+01 0.  0.
     999903    2    3    3    0    0  0.56247561875E-01 -0.10339240325E+00  0.55852681009E-01  0.13193613388E+00  0.20828926538E-01 0.  0.
         14    1    1    2    0    0 -0.35791258847E-02  0.34091352070E-02 -0.23673619844E-01  0.24184139875E-01  0.00000000000E+00 0. -1.
     999901    1    3    3    0    0 -0.52668435990E-01  0.99983268042E-01 -0.32179061165E-01  0.88780972625E+00  0.88000000000E+00 0. -1.
        -11    1    4    4    0    0  0.30240173770E-01 -0.44250063460E-01  0.15638614857E-01  0.55833355815E-01  0.51100000000E-03 0. -1.
         11    1    4    4    0    0  0.26007388104E-01 -0.59142339790E-01  0.40214066152E-01  0.76102778065E-01  0.51100000000E-03 0.  1.
</event>
<event>
 8    1  0.1042301E+005  0.1043930E+01  0.7957747E-01            NaN
         13   -1    0    0    0    0  0.00000000000E+00  0.00000000000E+00  0.74505805969E-08  0.10566000000E+00  0.10566000000E+00 0. -1.
     999900   -1    0    0    0    0 -0.00000000000E+00 -0.00000000000E+00 -0.74505805969E-08  0.93827000000E+00  0.93827000000E+00 0. -1.
     999902    2    1    2    0    0  0.51123710351E-02 -0.89140640323E-02  0.21454954974E-01  0.10201410957E+01  0.10198636885E+01 0.  0.
     999903    2    3    3    0    0 -0.90014534483E-01 -0.90202863176E-01 -0.18155279567E-01  0.13040744583E+00  0.20912073266E-01 0.  0.
         14    1    1    2    0    0 -0.51123710351E-02  0.89140640323E-02 -0.21454954974E-01  0.23788904306E-01  0.00000000000E+00 0.  1.
     999901    1    3    3    0    0  0.95126905518E-01  0.81288799144E-01  0.39610234541E-01  0.88973364986E+00  0.88000000000E+00 0.  1.
        -11    1    4    4    0    0 -0.64965402480E-01 -0.71344823694E-01 -0.56834645396E-02  0.96659972467E-01  0.51100000000E-03 0.  1.
         11    1    4    4    0    0 -0.25049132004E-01 -0.18858039482E-01 -0.12471815028E-01  0.33747473362E-01  0.51100000000E-03 0. -1.
</event>
<event>
 8    1  0.1042301E+005  0.1043930E+01  0.7957747E-01            NaN
         13   -1    0    0    0    0  0.00000000000E+00  0.00000000000E+00  0.74505805969E-08  0.10566000000E+00  0.10566000000E+00 0. -1.
     999900   -1    0    0    0    0 -0.00000000000E+00 -0.00000000000E+00 -0.74505805969E-08  0.93827000000E+00  0.93827000000E+00 0.  1.
     999902    2    1    2    0    0 -0.15809546688E-01 -0.15156723339E-01  0.59870624624E-02  0.10212250898E+01  0.10209726594E+01 0.  0.
     999903    2    3    3    0    0  0.88949479214E-01  0.39816969179E-01 -0.82029268743E-01  0.12895638875E+00  0.20088513657E-01 0.  0.
         14    1    1    2    0    0  0.15809546688E-01  0.15156723339E-01 -0.59870624624E-02  0.22704910169E-01  0.00000000000E+00 0. -1.
     999901    1    3    3    0    0 -0.10475902590E+00 -0.54973692518E-01  0.88016331205E-01  0.89226870108E+00  0.88000000000E+00 0. -1.
        -11    1    4    4    0    0  0.96925972179E-02 -0.18731790507E-02 -0.68114355000E-02  0.12004666391E-01  0.51100000000E-03 0.  1.
         11    1    4    4    0    0  0.79256881996E-01  0.41690148230E-01 -0.75217833243E-01  0.11695172236E+00  0.51100000000E-03 0. -1.
</event>
<event>
 8    1  0.1042301E+005  0.1043930E+01  0.7957747E-01            NaN
         13   -1    0    0    0    0  0.00000000000E+00  0.00000000000E+00  0.74505805969E-08  0.10566000000E+00  0.10566000000E+00 0.  1.
     999900   -1    0    0    0    0 -0.00000000000E+00 -0.00000000000E+00 -0.74505805969E-08  0.93827000000E+00  0.93827000000E+00 0. -1.
     999902    2    1    2    0    0  0.38114647863E-02 -0.19281110807E-01 -0.11283577203E-01  0.10212670873E+01  0.10210156003E+01 0.  0.
     999903    2    3    3    0    0 -0.82452686326E-01  0.93343972269E-01  0.27292351353E-01  0.12907091191E+00  0.20072000845E-01 0.  0.
         14    1    1    2    0    0 -0.38114647863E-02  0.19281110807E-01  0.11283577203E-01  0.22662912705E-01  0.00000000000E+00 0. -1.
     999901    1    3    3    0    0  0.86264151112E-01 -0.11262508308E+00 -0.38575928556E-01  0.89219617538E+00  0.88000000000E+00 0. -1.
        -11    1    4    4    0    0 -0.26973955909E-01  0.31991336284E-01 -0.36917474249E-03  0.41850176889E-01  0.51100000000E-03 0.  1.
         11    1    4    4    0    0 -0.55478730417E-01  0.61352635985E-01  0.27661526095E-01  0.87220735023E-01  0.51100000000E-03 0. -1.
</event>
<event>
 8    1  0.1042301E+005  0.1043930E+01  0.7957747E-01            NaN
         13   -1    0    0    0    0  0.00000000000E+00  0.00000000000E+00  0.74505805969E-08  0.10566000000E+00  0.10566000000E+00 0. -1.
     999900   -1    0    0    0    0 -0.00000000000E+00 -0.00000000000E+00 -0.74505805969E-08  0.93827000000E+00  0.93827000000E+00 0. -1.
     999902    2    1    2    0    0  0.57176173983E-02 -0.18353035495E-01  0.13272307447E-01  0.10205702225E+01  0.10203028471E+01 0.  0.
     999903    2    3    3    0    0  0.12104052559E+00  0.40830887195E-01 -0.17776611385E-01  0.13053306302E+00  0.20122187884E-01 0.  0.
         14    1    1    2    0    0 -0.57176173983E-02  0.18353035495E-01 -0.13272307447E-01  0.23359777515E-01  0.00000000000E+00 0.  1.
     999901    1    3    3    0    0 -0.11532290820E+00 -0.59183922690E-01  0.31048918831E-01  0.89003715946E+00  0.88000000000E+00 0.  1.
        -11    1    4    4    0    0  0.89890430755E-01  0.39341927008E-01 -0.13108042583E-01  0.98995750734E-01  0.51100000000E-03 0. -1.
         11    1    4    4    0    0  0.31150094838E-01  0.14889601872E-02 -0.46685688020E-02  0.31537312291E-01  0.51100000000E-03 0.  1.
</event>
<event>
 8    1  0.1042301E+005  0.1043930E+01  0.7957747E-01            NaN
         13   -1    0    0    0    0  0.00000000000E+00  0.00000000000E+00  0.74505805969E-08  0.10566000000E+00  0.10566000000E+00 0.  1.
     999900   -1    0    0    0    0 -0.00000000000E+00 -0.00000000000E+00 -0.74505805969E-08  0.93827000000E+00  0.93827000000E+00 0.  1.
     999902    2    1    2    0    0 -0.20574667479E-01 -0.27957026049E-02 -0.98408769265E-03  0.10231429530E+01  0.10229317675E+01 0.  0.
     999903    2    3    3    0    0 -0.31128424366E-01  0.71991016199E-01 -0.10634022553E+00  0.13364626897E+00  0.20034880290E-01 0.  0.
         14    1    1    2    0    0  0.20574667479E-01  0.27957026049E-02  0.98408769265E-03  0.20787047013E-01  0.00000000000E+00 0. -1.
     999901    1    3    3    0    0  0.10553756887E-01 -0.74786718804E-01  0.10535613783E+00  0.88949668401E+00  0.88000000000E+00 0.  1.
        -11    1    4    4    0    0 -0.12413744398E-01  0.48112215483E-01 -0.75475876076E-01  0.90364568936E-01  0.51100000000E-03 0. -1.
         11    1    4    4    0    0 -0.18714679969E-01  0.23878800716E-01 -0.30864349451E-01  0.43281700036E-01  0.51100000000E-03 0.  1.
</event>
<event>
 8    1  0.1042301E+005  0.1043930E+01  0.7957747E-01            NaN
         13   -1    0    0    0    0  0.00000000000E+00  0.00000000000E+00  0.74505805969E-08  0.10566000000E+00  0.10566000000E+00 0.  1.
     999900   -1    0    0    0    0 -0.00000000000E+00 -0.00000000000E+00 -0.74505805969E-08  0.93827000000E+00  0.93827000000E+00 0. -1.
     999902    2    1    2    0    0 -0.22210895468E-01 -0.21751544074E-01  0.25159075538E-02  0.10127405252E+01  0.10122601385E+01 0.  0.
     999903    2    3    3    0    0  0.10611152060E+00 -0.23664209786E-01 -0.49726721998E-01  0.12189845553E+00  0.23808337892E-01 0.  0.
         14    1    1    2    0    0  0.22210895468E-01  0.21751544074E-01 -0.25159075538E-02  0.31189474794E-01  0.00000000000E+00 0. -1.
     999901    1    3    3    0    0 -0.12832241606E+00  0.19126657119E-02  0.52242629551E-01  0.89084206967E+00  0.88000000000E+00 0.  1.
        -11    1    4    4    0    0  0.56426708896E-01 -0.59547163497E-03 -0.27556099824E-01  0.62800699215E-01  0.51100000000E-03 0.  1.
         11    1    4    4    0    0  0.49684811699E-01 -0.23068738151E-01 -0.22170622174E-01  0.59097756320E-01  0.51100000000E-03 0. -1.
</event>
<event>
 8    1  0.1042301E+005  0.1043930E+01  0.7957747E-01            NaN
         13   -1    0    0    0    0  0.00000000000E+00  0.00000000000E+00  0.74505805969E-08  0.10566000000E+00  0.10566000000E+00 0. -1.
     999900   -1    0    0    0    0 -0.00000000000E+00 -0.00000000000E+00 -0.74505805969E-08  0.93827000000E+00  0.93827000000E+00 0.  1.
     999902    2    1    2    0    0 -0.17065110974E-01 -0.15884554465E-01  0.12239061193E-02  0.10205840147E+01  0.10203169586E+01 0.  0.
     999903    2    3    3    0    0  0.28674682957E-01  0.66473480950E-01  0.10556064815E+00  0.12942682852E+00  0.19164873884E-01 0.  0.
         14    1    1    2    0    0  0.17065110974E-01  0.15884554465E-01 -0.12239061193E-02  0.23345985293E-01  0.00000000000E+00 0. -1.
     999901    1    3    3    0    0 -0.45739793931E-01 -0.82358035415E-01 -0.10433674203E+00  0.89115718618E+00  0.88000000000E+00 0.  1.
        -11    1    4    4    0    0  0.27998590831E-01  0.53133878944E-01  0.75106608951E-01  0.96168570798E-01  0.51100000000E-03 0. -1.
         11    1    4    4    0    0  0.67609212536E-03  0.13339602006E-01  0.30454039203E-01  0.33258257727E-01  0.51100000000E-03 0.  1.
</event>
<event>
 8    1  0.1042301E+005  0.1043930E+01  0.7957747E-01            NaN
         13   -1    0    0    0    0  0.00000000000E+00  0.00000000000E+00  0.74505805969E-08  0.10566000000E+00  0.10566000000E+00 0.  1.
     999900   -1    0    0    0    0 -0.00000000000E+00 -0.00000000000E+00 -0.74505805969E-08  0.93827000000E+00  0.93827000000E+00 0. -1.
     999902    2    1    2    0    0 -0.56095513647E-02 -0.19083259597E-01 -0.81983306557E-02  0.10224160397E+01  0.10221896633E+01 0.  0.
     999903    2    3    3    0    0 -0.56565220653E-02  0.82759169267E-01  0.98693560101E-01  0.13011689766E+00  0.17575890091E-01 0.  0.
         14    1    1    2    0    0  0.56095513647E-02  0.19083259597E-01  0.81983306557E-02  0.21513960326E-01  0.00000000000E+00 0.  1.
     999901    1    3    3    0    0  0.46970700590E-04 -0.10184242886E+00 -0.10689189076E+00  0.89229914201E+00  0.88000000000E+00 0. -1.
        -11    1    4    4    0    0 -0.16132147087E-02  0.75696176847E-01  0.94024753701E-01  0.12072045842E+00  0.51100000000E-03 0. -1.
         11    1    4    4    0    0 -0.40433073566E-02  0.70629924197E-02  0.46688064000E-02  0.93964392459E-02  0.51100000000E-03 0.  1.
</event>
<event>
 8    1  0.1042301E+005  0.1043930E+01  0.7957747E-01            NaN
         13   -1    0    0    0    0  0.00000000000E+00  0.00000000000E+00  0.74505805969E-08  0.10566000000E+00  0.10566000000E+00 0. -1.
     999900   -1    0    0    0    0 -0.00000000000E+00 -0.00000000000E+00 -0.74505805969E-08  0.93827000000E+00  0.93827000000E+00 0. -1.
     999902    2    1    2    0    0 -0.37896777125E-02  0.96040522483E-02 -0.19925650298E-01  0.10214882751E+01  0.10212417271E+01 0.  0.
     999903    2    3    3    0    0 -0.32871811550E-01 -0.38385616241E-01  0.11711950171E+00  0.12911494937E+00  0.19992021930E-01 0.  0.
         14    1    1    2    0    0  0.37896777125E-02 -0.96040522483E-02  0.19925650298E-01  0.22441724901E-01  0.00000000000E+00 0. -1.
     999901    1    3    3    0    0  0.29082133837E-01  0.47989668489E-01 -0.13704515201E+00  0.89237332573E+00  0.88000000000E+00 0. -1.
        -11    1    4    4    0    0 -0.17501402345E-01 -0.11834910412E-01  0.67919090671E-01  0.71131063447E-01  0.51100000000E-03 0.  1.
         11    1    4    4    0    0 -0.15370409205E-01 -0.26550705829E-01  0.49200411036E-01  0.57983885919E-01  0.51100000000E-03 0. -1.
</event>
<event>
 8    1  0.1042301E+005  0.1043930E+01  0.7957747E-01            NaN
         13   -1    0    0    0    0  0.00000000000E+00  0.00000000000E+00  0.74505805969E-08  0.10566000000E+00  0.10566000000E+00 0. -1.
     999900   -1    0    0    0    0 -0.00000000000E+00 -0.00000000000E+00 -0.74505805969E-08  0.93827000000E+00  0.93827000000E+00 0.  1.
     999902    2    1    2    0    0  0.93510170894E-02 -0.27485832687E-03 -0.21697036069E-01  0.10203020834E+01  0.10200284619E+01 0.  0.
     999903    2    3    3    0    0  0.91088356311E-01 -0.89732538163E-01 -0.25963535601E-01  0.13198802177E+00  0.19942809470E-01 0.  0.
         14    1    1    2    0    0 -0.93510170894E-02  0.27485832687E-03  0.21697036069E-01  0.23627916580E-01  0.00000000000E+00 0. -1.
     999901    1    3    3    0    0 -0.81737339222E-01  0.89457679836E-01  0.42664995316E-02  0.88831406165E+00  0.88000000000E+00 0. -1.
        -11    1    4    4    0    0  0.53962012513E-01 -0.39350747057E-01 -0.11856545777E-01  0.67832284992E-01  0.51100000000E-03 0.  1.
         11    1    4    4    0    0  0.37126343798E-01 -0.50381791106E-01 -0.14106989824E-01  0.64155736780E-01  0.51100000000E-03 0. -1.
</event>
<event>
 8    1  0.1042301E+005  0.1043930E+01  0.7957747E-01            NaN
         13   -1    0    0    0    0  0.00000000000E+00  0.00000000000E+00  0.74505805969E-08  0.10566000000E+00  0.10566000000E+00 0. -1.
     999900   -1    0    0    0    0 -0.00000000000E+00 -0.00000000000E+00 -0.74505805969E-08  0.93827000000E+00  0.93827000000E+00 0.  1.
     999902    2    1    2    0    0  0.21996823834E-01 -0.48700902245E-02 -0.12021776640E-01  0.10183937287E+01  0.10180735168E+01 0.  0.
     999903    2    3    3    0    0  0.33567306752E-03  0.12659690523E+00  0.16761533164E-03  0.12828061364E+00  0.20712282648E-01 0.  0.
         14    1    1    2    0    0 -0.21996823834E-01  0.48700902245E-02  0.12021776640E-01  0.25536271285E-01  0.00000000000E+00 0. -1.
     999901    1    3    3    0    0  0.21661150767E-01 -0.13146699545E+00 -0.12189391971E-01  0.89011311507E+00  0.88000000000E+00 0.  1.
        -11    1    4    4    0    0 -0.56338491420E-02  0.54720265612E-01 -0.83929414698E-02  0.55648452920E-01  0.51100000000E-03 0.  1.
         11    1    4    4    0    0  0.59695222095E-02  0.71876639614E-01  0.85605568014E-02  0.72632160724E-01  0.51100000000E-03 0. -1.
</event>
<event>
 7    1  0.1042301E+005  0.1043930E+01  0.7957747E-01            NaN
         13   -1    0    0    0    0  0.00000000000E+00  0.00000000000E+00  0.74505805969E-08  0.10566000000E+00  0.10566000000E+00 0. -1.
     999900   -1    0    0    0    0 -0.00000000000E+00 -0.00000000000E+00 -0.74505805969E-08  0.93827000000E+00  0.93827000000E+00 0.  1.
     999902    2    1    2    0    0 -0.19487223290E-01 -0.76598948342E-02  0.11566933560E-01  0.10200088835E+01  0.10197283475E+01 0.  0.
         14    1    1    2    0    0  0.19487223290E-01  0.76598948342E-02 -0.11566933560E-01  0.23921116454E-01  0.00000000000E+00 0. -1.
     999901    1    3    3    0    0 -0.84535651609E-02 -0.11908211848E+00 -0.69826793018E-02  0.88808826786E+00  0.88000000000E+00 0. -1.
        -11    1    3    3    0    0 -0.50362035693E-02  0.24708430819E-01 -0.24288721251E-01  0.35015325230E-01  0.51100000000E-03 0.  1.
         11    1    3    3    0    0 -0.59974545597E-02  0.86713792825E-01  0.42838334113E-01  0.96905290454E-01  0.51100000000E-03 0. -1.
</event>
<event>
 8    1  0.1042301E+005  0.1043930E+01  0.7957747E-01            NaN
         13   -1    0    0    0    0  0.00000000000E+00  0.00000000000E+00  0.74505805969E-08  0.10566000000E+00  0.10566000000E+00 0.  1.
     999900   -1    0    0    0    0 -0.00000000000E+00 -0.00000000000E+00 -0.74505805969E-08  0.93827000000E+00  0.93827000000E+00 0.  1.
     999902    2    1    2    0    0 -0.10046182137E-01 -0.95010007005E-02  0.18808874473E-01  0.10205854386E+01  0.10203184154E+01 0.  0.
     999903    2    3    3    0    0 -0.84103402743E-02  0.10278263403E-01  0.13103898082E+00  0.13323573746E+00  0.20103997622E-01 0.  0.
         14    1    1    2    0    0  0.10046182137E-01  0.95010007005E-02 -0.18808874473E-01  0.23344561439E-01  0.00000000000E+00 0. -1.
     999901    1    3    3    0    0 -0.16358418624E-02 -0.19779264104E-01 -0.11223010635E+00  0.88734970110E+00  0.88000000000E+00 0.  1.
        -11    1    4    4    0    0 -0.14147922070E-01  0.27248385796E-02  0.70873250215E-01  0.72324734090E-01  0.51100000000E-03 0.  1.
         11    1    4    4    0    0  0.57375817956E-02  0.75534248237E-02  0.60165730607E-01  0.60911003373E-01  0.51100000000E-03 0. -1.
</event>
<event>
 8    1  0.1042301E+005  0.1043930E+01  0.7957747E-01            NaN
         13   -1    0    0    0    0  0.00000000000E+00  0.00000000000E+00  0.74505805969E-08  0.10566000000E+00  0.10566000000E+00 0.  1.
     999900   -1    0    0    0    0 -0.00000000000E+00 -0.00000000000E+00 -0.74505805969E-08  0.93827000000E+00  0.93827000000E+00 0.  1.
     999902    2    1    2    0    0 -0.72716125479E-02  0.21362243063E-01  0.65276979167E-02  0.10204388822E+01  0.10201684565E+01 0.  0.
     999903    2    3    3    0    0  0.12410347821E+00 -0.17084494586E-01  0.28819911086E-01  0.12957721563E+00  0.16313009459E-01 0.  0.
         14    1    1    2    0    0  0.72716125479E-02 -0.21362243063E-01 -0.65276979167E-02  0.23491117850E-01  0.00000000000E+00 0. -1.
     999901    1    3    3    0    0 -0.13137509075E+00  0.38446737649E-01 -0.22292213169E-01  0.89086166652E+00  0.88000000000E+00 0.  1.
        -11    1    4    4    0    0  0.97042099022E-01 -0.19262225400E-01  0.25875393260E-01  0.10226436040E+00  0.51100000000E-03 0. -1.
         11    1    4    4    0    0  0.27061379183E-01  0.21777308139E-02  0.29445178261E-02  0.27312855234E-01  0.51100000000E-03 0.  1.
</event>
<event>
 8    1  0.1042301E+005  0.1043930E+01  0.7957747E-01            NaN
         13   -1    0    0    0    0  0.00000000000E+00  0.00000000000E+00  0.74505805969E-08  0.10566000000E+00  0.10566000000E+00 0.  1.
     999900   -1    0    0    0    0 -0.00000000000E+00 -0.00000000000E+00 -0.74505805969E-08  0.93827000000E+00  0.93827000000E+00 0. -1.
     999902    2    1    2    0    0 -0.18764491990E-01  0.73046921161E-02  0.13251430079E-01  0.10198247083E+01  0.10195397838E+01 0.  0.
     999903    2    3    3    0    0 -0.28427295626E-01  0.23831268648E-01 -0.12233728635E+00  0.12923456831E+00  0.18950501638E-01 0.  0.
         14    1    1    2    0    0  0.18764491990E-01 -0.73046921161E-02 -0.13251430079E-01  0.24105291653E-01  0.00000000000E+00 0. -1.
     999901    1    3    3    0    0  0.96628036366E-02 -0.16526576532E-01  0.13558871643E+00  0.89059014004E+00  0.88000000000E+00 0.  1.
        -11    1    4    4    0    0 -0.10566929750E-01  0.16223402392E-01 -0.84656976952E-01  0.86844249419E-01  0.51100000000E-03 0.  1.
         11    1    4    4    0    0 -0.17860365876E-01  0.76078662563E-02 -0.37680309401E-01  0.42390318892E-01  0.51100000000E-03 0. -1.
</event>
<event>
 8    1  0.1042301E+005  0.1043930E+01  0.7957747E-01            NaN
         13   -1    0    0    0    0  0.00000000000E+00  0.00000000000E+00  0.74505805969E-08  0.10566000000E+00  0.10566000000E+00 0. -1.
     999900   -1    0    0    0    0 -0.00000000000E+00 -0.00000000000E+00 -0.74505805969E-08  0.93827000000E+00  0.93827000000E+00 0.  1.
     999902    2    1    2    0    0 -0.19355655098E-01  0.11612814028E-01  0.63815537165E-02  0.10204731660E+01  0.10202035382E+01 0.  0.
     999903    2    3    3    0    0 -0.70711022983E-02  0.11780992392E+00  0.55464731014E-01  0.13264553932E+00  0.24275997486E-01 0.  0.
         14    1    1    2    0    0  0.19355655098E-01 -0.11612814028E-01 -0.63815537165E-02  0.23456834009E-01  0.00000000000E+00 0.  1.
     999901    1    3    3    0    0 -0.12284552799E-01 -0.10619710989E+00 -0.49083177298E-01  0.88782762667E+00  0.88000000000E+00 0.  1.
        -11    1    4    4    0    0 -0.98175222370E-02  0.71890640044E-01  0.45275504634E-01  0.85526488936E-01  0.51100000000E-03 0. -1.
         11    1    4    4    0    0  0.27464199387E-02  0.45919283873E-01  0.10189226381E-01  0.47119050384E-01  0.51100000000E-03 0.  1.
</event>
<event>
 8    1  0.1042301E+005  0.1043930E+01  0.7957747E-01            NaN
         13   -1    0    0    0    0  0.00000000000E+00  0.00000000000E+00  0.74505805969E-08  0.10566000000E+00  0.10566000000E+00 0. -1.
     999900   -1    0    0    0    0 -0.00000000000E+00 -0.00000000000E+00 -0.74505805969E-08  0.93827000000E+00  0.93827000000E+00 0. -1.
     999902    2    1    2    0    0  0.82611937509E-02 -0.28034132996E-02 -0.20824378690E-01  0.10213521082E+01  0.10211025256E+01 0.  0.
     999903    2    3    3    0    0 -0.96277321095E-01  0.23226957713E-01 -0.85548689266E-01  0.13242291102E+00  0.20209774995E-01 0.  0.
         14    1    1    2    0    0 -0.82611937509E-02  0.28034132996E-02  0.20824378690E-01  0.22577891756E-01  0.00000000000E+00 0. -1.
     999901    1    3    3    0    0  0.10453851485E+00 -0.26030371013E-01  0.64724310576E-01  0.88892919723E+00  0.88000000000E+00 0. -1.
        -11    1    4    4    0    0 -0.35022464512E-01 -0.12824136952E-02 -0.27661463852E-01  0.44650143435E-01  0.51100000000E-03 0. -1.
         11    1    4    4    0    0 -0.61254856584E-01  0.24509371409E-01 -0.57887225414E-01  0.87772767583E-01  0.51100000000E-03 0.  1.
</event>
<event>
 8    1  0.1042301E+005  0.1043930E+01  0.7957747E-01            NaN
         13   -1    0    0    0    0  0.00000000000E+00  0.00000000000E+00  0.74505805969E-08  0.10566000000E+00  0.10566000000E+00 0.  1.
     999900   -1    0    0    0    0 -0.00000000000E+00 -0.00000000000E+00 -0.74505805969E-08  0.93827000000E+00  0.93827000000E+00 0. -1.
     999902    2    1    2    0    0  0.43028058502E-02 -0.68196532495E-02 -0.22414297948E-01  0.10201093669E+01  0.10198312105E+01 0.  0.
     999903    2    3    3    0    0 -0.48710368724E-01  0.11709264744E+00 -0.18596279003E-01  0.12984017603E+00  0.20718629630E-01 0.  0.
         14    1    1    2    0    0 -0.43028058502E-02  0.68196532495E-02  0.22414297948E-01  0.23820633097E-01  0.00000000000E+00 0.  1.
     999901    1    3    3    0    0  0.53013174575E-01 -0.12391230069E+00 -0.38180189446E-02  0.89026919087E+00  0.88000000000E+00 0.  1.
        -11    1    4    4    0    0 -0.18533440093E-01  0.28896607885E-01  0.19390425025E-02  0.34387837323E-01  0.51100000000E-03 0.  1.
         11    1    4    4    0    0 -0.30176928631E-01  0.88196039557E-01 -0.20535321506E-01  0.95452338712E-01  0.51100000000E-03 0. -1.
</event>
<event>
 8    1  0.1042301E+005  0.1043930E+01  0.7957747E-01            NaN
         13   -1    0    0    0    0  0.00000000000E+00  0.00000000000E+00  0.74505805969E-08  0.10566000000E+00  0.10566000000E+00 0.  1.
     999900   -1    0    0    0    0 -0.00000000000E+00 -0.00000000000E+00 -0.74505805969E-08  0.93827000000E+00  0.93827000000E+00 0. -1.
     999902    2    1    2    0    0  0.23291712912E-01 -0.44794923420E-02 -0.83908451949E-02  0.10187709852E+01  0.10184602812E+01 0.  0.
     999903    2    3    3    0    0  0.91620148104E-01 -0.91465668558E-01 -0.14367493867E-01  0.13182617845E+00  0.20285373599E-01 0.  0.
         14    1    1    2    0    0 -0.23291712912E-01  0.44794923420E-02  0.83908451949E-02  0.25159014788E-01  0.00000000000E+00 0.  1.
     999901    1    3    3    0    0 -0.68328435193E-01  0.86986176216E-01  0.59766486719E-02  0.88694480676E+00  0.88000000000E+00 0.  1.
        -11    1    4    4    0    0  0.55383856130E-01 -0.64430667091E-01 -0.16546826113E-01  0.86560620128E-01  0.51100000000E-03 0. -1.
         11    1    4    4    0    0  0.36236291975E-01 -0.27035001468E-01  0.21793322463E-02  0.45265558325E-01  0.51100000000E-03 0.  1.
</event>
<event>
 8    1  0.1042301E+005  0.1043930E+01  0.7957747E-01            NaN
         13   -1    0    0    0    0  0.00000000000E+00  0.00000000000E+00  0.74505805969E-08  0.10566000000E+00  0.10566000000E+00 0. -1.
     999900   -1    0    0    0    0 -0.00000000000E+00 -0.00000000000E+00 -0.74505805969E-08  0.93827000000E+00  0.93827000000E+00 0.  1.
     999902    2    1    2    0    0 -0.12945024887E-01  0.33624213968E-03 -0.20577837913E-01  0.10196167497E+01  0.10193268279E+01 0.  0.
     999903    2    3    3    0    0 -0.14690383514E-01 -0.43315926524E-02 -0.13038537865E+00  0.13277824636E+00  0.19878271511E-01 0.  0.
         14    1    1    2    0    0  0.12945024887E-01 -0.33624213968E-03  0.20577837913E-01  0.24313250323E-01  0.00000000000E+00 0. -1.
     999901    1    3    3    0    0  0.17453586269E-02  0.46678347921E-02  0.10980754074E+00  0.88683850331E+00  0.88000000000E+00 0. -1.
        -11    1    4    4    0    0 -0.93377099191E-02  0.61542658939E-02 -0.90460480153E-01  0.91150575455E-01  0.51100000000E-03 0.  1.
         11    1    4    4    0    0 -0.53526735949E-02 -0.10485858546E-01 -0.39924898498E-01  0.41627670907E-01  0.51100000000E-03 0. -1.
</event>
<event>
 8    1  0.1042301E+005  0.1043930E+01  0.7957747E-01            NaN
         13   -1    0    0    0    0  0.00000000000E+00  0.00000000000E+00  0.74505805969E-08  0.10566000000E+00  0.10566000000E+00 0.  1.
     999900   -1    0    0    0    0 -0.00000000000E+00 -0.00000000000E+00 -0.74505805969E-08  0.93827000000E+00  0.93827000000E+00 0. -1.
     999902    2    1    2    0    0  0.42996936460E-02 -0.22844250873E-01  0.34296730197E-02  0.10204329827E+01  0.10201624196E+01 0.  0.
     999903    2    3    3    0    0 -0.30690922262E-01  0.51143224605E-01 -0.11269659319E+00  0.12903868197E+00  0.19821634515E-01 0.  0.
         14    1    1    2    0    0 -0.42996936460E-02  0.22844250873E-01 -0.34296730197E-02  0.23497017267E-01  0.00000000000E+00 0. -1.
     999901    1    3    3    0    0  0.34990615908E-01 -0.73987475478E-01  0.11612626621E+00  0.89139430076E+00  0.88000000000E+00 0.  1.
        -11    1    4    4    0    0 -0.13110037853E-01  0.65465307122E-02 -0.21752778610E-01  0.26233083218E-01  0.51100000000E-03 0.  1.
         11    1    4    4    0    0 -0.17580884410E-01  0.44596693893E-01 -0.90943814583E-01  0.10280559875E+00  0.51100000000E-03 0. -1.
</event>
<event>
 8    1  0.1042301E+005  0.1043930E+01  0.7957747E-01            NaN
         13   -1    0    0    0    0  0.00000000000E+00  0.00000000000E+00  0.74505805969E-08  0.10566000000E+00  0.10566000000E+00 0.  1.
     999900   -1    0    0    0    0 -0.00000000000E+00 -0.00000000000E+00 -0.74505805969E-08  0.93827000000E+00  0.93827000000E+00 0. -1.
     999902    2    1    2    0    0  0.71156257905E-02  0.15462942848E-01 -0.16855079660E-01  0.10199752835E+01  0.10196939494E+01 0.  0.
     999903    2    3    3    0    0  0.86756829358E-01  0.69431722152E-01 -0.70552380102E-01  0.13310508414E+00  0.19794282137E-01 0.  0.
         14    1    1    2    0    0 -0.71156257905E-02 -0.15462942848E-01  0.16855079660E-01  0.23954716493E-01  0.00000000000E+00 0.  1.
     999901    1    3    3    0    0 -0.79641203567E-01 -0.53968779304E-01  0.53697300442E-01  0.88687019936E+00  0.88000000000E+00 0.  1.
        -11    1    4    4    0    0  0.50207154939E-01  0.39275397853E-01 -0.28808030539E-01  0.69953406122E-01  0.51100000000E-03 0. -1.
         11    1    4    4    0    0  0.36549674419E-01  0.30156324299E-01 -0.41744349563E-01  0.63151678020E-01  0.51100000000E-03 0.  1.
</event>
<event>
 8    1  0.1042301E+005  0.1043930E+01  0.7957747E-01            NaN
         13   -1    0    0    0    0  0.00000000000E+00  0.00000000000E+00  0.74505805969E-08  0.10566000000E+00  0.10566000000E+00 0.  1.
     999900   -1    0    0    0    0 -0.00000000000E+00 -0.00000000000E+00 -0.74505805969E-08  0.93827000000E+00  0.93827000000E+00 0.  1.
     999902    2    1    2    0    0  0.15607963506E-01  0.11011994718E-01 -0.13416544915E-01  0.10205874160E+01  0.10203204386E+01 0.  0.
     999903    2    3    3    0    0 -0.41803710932E-01  0.35731516353E-01 -0.11851073509E+00  0.13213260905E+00  0.19746912012E-01 0.  0.
         14    1    1    2    0    0 -0.15607963506E-01 -0.11011994718E-01  0.13416544915E-01  0.23342584045E-01  0.00000000000E+00 0.  1.
     999901    1    3    3    0    0  0.57411674437E-01 -0.24719521635E-01  0.10509419017E+00  0.88845480691E+00  0.88000000000E+00 0.  1.
        -11    1    4    4    0    0 -0.11491548500E-01  0.64735256144E-02 -0.49918357873E-01  0.51633959703E-01  0.51100000000E-03 0.  1.
         11    1    4    4    0    0 -0.30312162431E-01  0.29257990739E-01 -0.68592377213E-01  0.80498649343E-01  0.51100000000E-03 0. -1.
</event>
<event>
 8    1  0.1042301E+005  0.1043930E+01  0.7957747E-01            NaN
         13   -1    0    0    0    0  0.00000000000E+00  0.00000000000E+00  0.74505805969E-08  0.10566000000E+00  0.10566000000E+00 0. -1.
     999900   -1    0    0    0    0 -0.00000000000E+00 -0.00000000000E+00 -0.74505805969E-08  0.93827000000E+00  0.93827000000E+00 0.  1.
     999902    2    1    2    0    0 -0.22985403863E-01 -0.94153955260E-02  0.36638679626E-02  0.10188221846E+01  0.10185127596E+01 0.  0.
     999903    2    3    3    0    0  0.52951566819E-01  0.45408939756E-01  0.10548071676E+00  0.12801423567E+00  0.19890266113E-01 0.  0.
         14    1    1    2    0    0  0.22985403863E-01  0.94153955260E-02 -0.36638679626E-02  0.25107815359E-01  0.00000000000E+00 0. -1.
     999901    1    3    3    0    0 -0.75936970682E-01 -0.54824335282E-01 -0.10181684880E+00  0.89080794897E+00  0.88000000000E+00 0.  1.
        -11    1    4    4    0    0  0.34415307073E-01  0.40773034883E-01  0.75255705562E-01  0.92252566767E-01  0.51100000000E-03 0.  1.
         11    1    4    4    0    0  0.18536259746E-01  0.46359048739E-02  0.30225011201E-01  0.35761668900E-01  0.51100000000E-03 0. -1.
</event>
<event>
 8    1  0.1042301E+005  0.1043930E+01  0.7957747E-01            NaN
         13   -1    0    0    0    0  0.00000000000E+00  0.00000000000E+00  0.74505805969E-08  0.10566000000E+00  0.10566000000E+00 0. -1.
     999900   -1    0    0    0    0 -0.00000000000E+00 -0.00000000000E+00 -0.74505805969E-08  0.93827000000E+00  0.93827000000E+00 0.  1.
     999902    2    1    2    0    0 -0.20084704776E-01 -0.10984369962E-01 -0.33663893929E-02  0.10207916265E+01  0.10205293531E+01 0.  0.
     999903    2    3    3    0    0  0.99446643833E-01 -0.16695516591E-01  0.77958323927E-01  0.12897658433E+00  0.19725207012E-01 0.  0.
         14    1    1    2    0    0  0.20084704776E-01  0.10984369962E-01  0.33663893929E-02  0.23138373473E-01  0.00000000000E+00 0. -1.
     999901    1    3    3    0    0 -0.11953134861E+00  0.57111466286E-02 -0.81324713320E-01  0.89181504220E+00  0.88000000000E+00 0. -1.
        -11    1    4    4    0    0  0.14266832528E-01 -0.13474981608E-02  0.33967410872E-02  0.14736255721E-01  0.51100000000E-03 0. -1.
         11    1    4    4    0    0  0.85179811305E-01 -0.15348018430E-01  0.74561582840E-01  0.11424032861E+00  0.51100000000E-03 0.  1.
</event>
<event>
 8    1  0.1042301E+005  0.1043930E+01  0.7957747E-01            NaN
         13   -1    0    0    0    0  0.00000000000E+00  0.00000000000E+00  0.74505805969E-08  0.10566000000E+00  0.10566000000E+00 0. -1.
     999900   -1    0    0    0    0 -0.00000000000E+00 -0.00000000000E+00 -0.74505805969E-08  0.93827000000E+00  0.93827000000E+00 0.  1.
     999902    2    1    2    0    0 -0.34808160658E-02  0.23147491118E-01  0.77654160379E-02  0.10192677999E+01  0.10189693930E+01 0.  0.
     999903    2    3    3    0    0 -0.45302880205E-03  0.11319395940E+00 -0.64801129019E-01  0.13169614796E+00  0.18210200027E-01 0.  0.
         14    1    1    2    0    0  0.34808160658E-02 -0.23147491118E-01 -0.77654160379E-02  0.24662200060E-01  0.00000000000E+00 0. -1.
     999901    1    3    3    0    0 -0.30277872637E-02 -0.90046468279E-01  0.72566545056E-01  0.88757165198E+00  0.88000000000E+00 0. -1.
        -11    1    4    4    0    0 -0.41433235436E-02  0.37009800299E-01 -0.12805503956E-01  0.39384444909E-01  0.51100000000E-03 0.  1.
         11    1    4    4    0    0  0.36902947415E-02  0.76184159098E-01 -0.51995625063E-01  0.92311703047E-01  0.51100000000E-03 0. -1.
</event>
<event>
 8    1  0.1042301E+005  0.1043930E+01  0.7957747E-01            NaN
         13   -1    0    0    0    0  0.00000000000E+00  0.00000000000E+00  0.74505805969E-08  0.10566000000E+00  0.10566000000E+00 0. -1.
     999900   -1    0    0    0    0 -0.00000000000E+00 -0.00000000000E+00 -0.74505805969E-08  0.93827000000E+00  0.93827000000E+00 0. -1.
     999902    2    1    2    0    0  0.16641676509E-01 -0.52520317084E-02  0.16372082316E-01  0.10200014749E+01  0.10197207630E+01 0.  0.
     999903    2    3    3    0    0 -0.14521769371E-01  0.45981012609E-01 -0.11687641588E+00  0.12795262676E+00  0.19663234734E-01 0.  0.
         14    1    1    2    0    0 -0.16641676509E-01  0.52520317084E-02 -0.16372082316E-01  0.23928525100E-01  0.00000000000E+00 0.  1.
     999901    1    3    3    0    0  0.31163445880E-01 -0.51233044317E-01  0.13324849820E+00  0.89204884814E+00  0.88000000000E+00 0.  1.
        -11    1    4    4    0    0 -0.15982928915E-01  0.22240828383E-01 -0.50653958250E-01  0.57586396582E-01  0.51100000000E-03 0. -1.
         11    1    4    4    0    0  0.14611595436E-02  0.23740184226E-01 -0.66222457631E-01  0.70366230182E-01  0.51100000000E-03 0.  1.
</event>
<event>
 8    1  0.1042301E+005  0.1043930E+01  0.7957747E-01            NaN
         13   -1    0    0    0    0  0.00000000000E+00  0.00000000000E+00  0.74505805969E-08  0.10566000000E+00  0.10566000000E+00 0. -1.
     999900   -1    0    0    0    0 -0.00000000000E+00 -0.00000000000E+00 -0.74505805969E-08  0.93827000000E+00  0.93827000000E+00 0. -1.
     999902    2    1    2    0    0 -0.17550944565E-01 -0.26628979516E-02 -0.14739519231E-01  0.10208566364E+01  0.10205958514E+01 0.  0.
     999903    2    3    3    0    0 -0.40360890876E-01 -0.10343425797E+00  0.66590800231E-01  0.13108712607E+00  0.20539053308E-01 0.  0.
         14    1    1    2    0    0  0.17550944565E-01  0.26628979516E-02  0.14739519231E-01  0.23073363600E-01  0.00000000000E+00 0. -1.
     999901    1    3    3    0    0  0.22809946311E-01  0.10077136002E+00 -0.81330319462E-01  0.88976951033E+00  0.88000000000E+00 0. -1.
        -11    1    4    4    0    0 -0.25392694336E-01 -0.68045558128E-01  0.54492398437E-01  0.90800162528E-01  0.51100000000E-03 0. -1.
         11    1    4    4    0    0 -0.14968196540E-01 -0.35388699846E-01  0.12098401793E-01  0.40286963541E-01  0.51100000000E-03 0.  1.
</event>
<event>
 8    1  0.1042301E+005  0.1043930E+01  0.7957747E-01            NaN
         13   -1    0    0    0    0  0.00000000000E+00  0.00000000000E+00  0.74505805969E-08  0.10566000000E+00  0.10566000000E+00 0.  1.
     999900   -1    0    0    0    0 -0.00000000000E+00 -0.00000000000E+00 -0.74505805969E-08  0.93827000000E+00  0.93827000000E+00 0.  1.
     999902    2    1    2    0    0 -0.11724722954E-02  0.16564561260E-01 -0.17334389166E-01  0.10199249916E+01  0.10196424609E+01 0.  0.
     999903    2    3    3    0    0 -0.33352767549E-01 -0.33287133787E-01 -0.12147282484E+00  0.13180023871E+00  0.19880024384E-01 0.  0.
         14    1    1    2    0    0  0.11724722954E-02 -0.16564561260E-01  0.17334389166E-01  0.24005008410E-01  0.00000000000E+00 0.  1.
     999901    1    3    3    0    0  0.32180295254E-01  0.49851695047E-01  0.10413843567E+00  0.88812475288E+00  0.88000000000E+00 0. -1.
        -11    1    4    4    0    0 -0.28872768540E-01 -0.15494393835E-01 -0.76233398496E-01  0.82978944141E-01  0.51100000000E-03 0. -1.
         11    1    4    4    0    0 -0.44799990092E-02 -0.17792739952E-01 -0.45239426343E-01  0.48821294565E-01  0.51100000000E-03 0.  1.
</event>
<event>
 8    1  0.1042301E+005  0.1043930E+01  0.7957747E-01            NaN
         13   -1    0    0    0    0  0.00000000000E+00  0.00000000000E+00  0.74505805969E-08  0.10566000000E+00  0.10566000000E+00 0.  1.
     999900   -1    0    0    0    0 -0.00000000000E+00 -0.00000000000E+00 -0.74505805969E-08  0.93827000000E+00  0.93827000000E+00 0.  1.
     999902    2    1    2    0    0  0.19923746362E-01  0.10616682430E-01  0.51579277621E-02  0.10207724130E+01  0.10205096988E+01 0.  0.
     999903    2    3    3    0    0  0.88203515242E-01 -0.68977353891E-01 -0.66282547728E-01  0.13167113704E+00  0.20153827044E-01 0.  0.
         14    1    1    2    0    0 -0.19923746362E-01 -0.10616682430E-01 -0.51579277621E-02  0.23157586958E-01  0.00000000000E+00 0. -1.
     999901    1    3    3    0    0 -0.68279768880E-01  0.79594036321E-01  0.71440475490E-01  0.88910127601E+00  0.88000000000E+00 0. -1.
        -11    1    4    4    0    0  0.43101524944E-01 -0.23485850217E-01 -0.35617352048E-01  0.60648029654E-01  0.51100000000E-03 0.  1.
         11    1    4    4    0    0  0.45101990298E-01 -0.45491503674E-01 -0.30665195679E-01  0.71023107383E-01  0.51100000000E-03 0. -1.
</event>
<event>
 8    1  0.1042301E+005  0.1043930E+01  0.7957747E-01            NaN
         13   -1    0    0    0    0  0.00000000000E+00  0.00000000000E+00  0.74505805969E-08  0.10566000000E+00  0.10566000000E+00 0. -1.
     999900   -1    0    0    0    0 -0.00000000000E+00 -0.00000000000E+00 -0.74505805969E-08  0.93827000000E+00  0.93827000000E+00 0.  1.
     999902    2    1    2    0    0 -0.18787646239E-01  0.10245135785E-01 -0.10027326849E-01  0.10202976971E+01  0.10200239727E+01 0.  0.
     999903    2    3    3    0    0  0.49249439479E-02  0.13002229292E+00 -0.71142087333E-02  0.13186236426E+00  0.20174722145E-01 0.  0.
         14    1    1    2    0    0  0.18787646239E-01 -0.10245135785E-01  0.10027326849E-01  0.23632302939E-01  0.00000000000E+00 0. -1.
     999901    1    3    3    0    0 -0.23712590187E-01 -0.11977715714E+00 -0.29131181154E-02  0.88843533280E+00  0.88000000000E+00 0. -1.
        -11    1    4    4    0    0 -0.13024684870E-02  0.53432308306E-01  0.64212850300E-02  0.53834951635E-01  0.51100000000E-03 0. -1.
         11    1    4    4    0    0  0.62274124349E-02  0.76589984616E-01 -0.13535493763E-01  0.78027412629E-01  0.51100000000E-03 0.  1.
</event>
<event>
 8    1  0.1042301E+005  0.1043930E+01  0.7957747E-01            NaN
         13   -1    0    0    0    0  0.00000000000E+00  0.00000000000E+00  0.74505805969E-08  0.10566000000E+00  0.10566000000E+00 0. -1.
     999900   -1    0    0    0    0 -0.00000000000E+00 -0.00000000000E+00 -0.74505805969E-08  0.93827000000E+00  0.93827000000E+00 0.  1.
     999902    2    1    2    0    0 -0.22850231371E-01  0.51532657842E-02 -0.23188538206E-02  0.10203913869E+01  0.10201198539E+01 0.  0.
     999903    2    3    3    0    0 -0.12906982430E+00 -0.23165629517E-01 -0.14716845172E-01  0.13346508112E+00  0.20016903182E-01 0.  0.
         14    1    1    2    0    0  0.22850231371E-01 -0.51532657842E-02  0.23188538206E-02  0.23538613064E-01  0.00000000000E+00 0. -1.
     999901    1    3    3    0    0  0.10621959292E+00  0.28318895301E-01  0.12397991351E-01  0.88692630581E+00  0.88000000000E+00 0. -1.
        -11    1    4    4    0    0 -0.17506265137E-01 -0.53170769216E-02  0.45267856225E-02  0.18854536194E-01  0.51100000000E-03 0. -1.
         11    1    4    4    0    0 -0.11156355916E+00 -0.17848552596E-01 -0.19243630794E-01  0.11461054493E+00  0.51100000000E-03 0.  1.
</event>
<event>
 8    1  0.1042301E+005  0.1043930E+01  0.7957747E-01            NaN
         13   -1    0    0    0    0  0.00000000000E+00  0.00000000000E+00  0.74505805969E-08  0.10566000000E+00  0.10566000000E+00 0.  1.
     999900   -1    0    0    0    0 -0.00000000000E+00 -0.00000000000E+00 -0.74505805969E-08  0.93827000000E+00  0.93827000000E+00 0.  1.
     999902    2    1    2    0    0  0.96432001281E-02  0.20125235166E-01  0.82605308709E-02  0.10201339337E+01  0.10198563575E+01 0.  0.
     999903    2    3    3    0    0  0.11221774621E+00 -0.41035035989E-01  0.49933820415E-01  0.13109018941E+00  0.20360613828E-01 0.  0.
         14    1    1    2    0    0 -0.96432001281E-02 -0.20125235166E-01 -0.82605308709E-02  0.23796066261E-01  0.00000000000E+00 0.  1.
     999901    1    3    3    0    0 -0.10257454608E+00  0.61160271155E-01 -0.41673289544E-01  0.88904374433E+00  0.88000000000E+00 0. -1.
        -11    1    4    4    0    0  0.40847808387E-01 -0.17181129126E-01  0.82972171487E-02  0.45087022317E-01  0.51100000000E-03 0.  1.
         11    1    4    4    0    0  0.71369937821E-01 -0.23853906863E-01  0.41636603266E-01  0.86003167092E-01  0.51100000000E-03 0. -1.
</event>
<event>
 8    1  0.1042301E+005  0.1043930E+01  0.7957747E-01            NaN
         13   -1    0    0    0    0  0.00000000000E+00  0.00000000000E+00  0.74505805969E-08  0.10566000000E+00  0.10566000000E+00 0.  1.
     999900   -1    0    0    0    0 -0.00000000000E+00 -0.00000000000E+00 -0.74505805969E-08  0.93827000000E+00  0.93827000000E+00 0.  1.
     999902    2    1    2    0    0  0.18882479192E-01 -0.13529514574E-01  0.84952736056E-03  0.10206852698E+01  0.10204205518E+01 0.  0.
     999903    2    3    3    0    0  0.42279573976E-01  0.56891415187E-01 -0.10816841390E+00  0.13085863337E+00  0.19984510628E-01 0.  0.
         14    1    1    2    0    0 -0.18882479192E-01  0.13529514574E-01 -0.84952736056E-03  0.23244730194E-01  0.00000000000E+00 0. -1.
     999901    1    3    3    0    0 -0.23397094784E-01 -0.70420929761E-01  0.10901794126E+00  0.88982663643E+00  0.88000000000E+00 0. -1.
        -11    1    4    4    0    0  0.97630322233E-02  0.11896046131E-01 -0.10912801754E-01  0.18872813115E-01  0.51100000000E-03 0.  1.
         11    1    4    4    0    0  0.32516541753E-01  0.44995369056E-01 -0.97255612143E-01  0.11198582026E+00  0.51100000000E-03 0. -1.
</event>
<event>
 8    1  0.1042301E+005  0.1043930E+01  0.7957747E-01            NaN
         13   -1    0    0    0    0  0.00000000000E+00  0.00000000000E+00  0.74505805969E-08  0.10566000000E+00  0.10566000000E+00 0.  1.
     999900   -1    0    0    0    0 -0.00000000000E+00 -0.00000000000E+00 -0.74505805969E-08  0.93827000000E+00  0.93827000000E+00 0. -1.
     999902    2    1    2    0    0  0.37685051730E-02  0.13684085756E-01 -0.18196328451E-01  0.10208526907E+01  0.10205918155E+01 0.  0.
     999903    2    3    3    0    0  0.38554530105E-01 -0.61296130388E-01  0.10424375096E+00  0.12853902761E+00  0.20294201402E-01 0.  0.
         14    1    1    2    0    0 -0.37685051730E-02 -0.13684085756E-01  0.18196328451E-01  0.23077309274E-01  0.00000000000E+00 0.  1.
     999901    1    3    3    0    0 -0.34786024932E-01  0.74980216144E-01 -0.12244007942E+00  0.89231366312E+00  0.88000000000E+00 0. -1.
        -11    1    4    4    0    0  0.36662334363E-01 -0.41810356134E-01  0.77956355940E-01  0.95758483663E-01  0.51100000000E-03 0.  1.
         11    1    4    4    0    0  0.18921957420E-02 -0.19485774255E-01  0.26287395024E-01  0.32780543943E-01  0.51100000000E-03 0. -1.
</event>
<event>
 8    1  0.1042301E+005  0.1043930E+01  0.7957747E-01            NaN
         13   -1    0    0    0    0  0.00000000000E+00  0.00000000000E+00  0.74505805969E-08  0.10566000000E+00  0.10566000000E+00 0. -1.
     999900   -1    0    0    0    0 -0.00000000000E+00 -0.00000000000E+00 -0.74505805969E-08  0.93827000000E+00  0.93827000000E+00 0. -1.
     999902    2    1    2    0    0 -0.10338417418E-01  0.17012328463E-01 -0.12996333689E-01  0.10201559199E+01  0.10198788624E+01 0.  0.
     999903    2    3    3    0    0  0.83842588618E-01 -0.46689968225E-01  0.81951587170E-01  0.12777531044E+00  0.20023349330E-01 0.  0.
         14    1    1    2    0    0  0.10338417418E-01 -0.17012328463E-01  0.12996333689E-01  0.23774080083E-01  0.00000000000E+00 0. -1.
     999901    1    3    3    0    0 -0.94181006036E-01  0.63702296688E-01 -0.94947920859E-01  0.89238060948E+00  0.88000000000E+00 0. -1.
        -11    1    4    4    0    0  0.70014985186E-01 -0.32321090543E-01  0.57359914041E-01  0.96110207076E-01  0.51100000000E-03 0. -1.
         11    1    4    4    0    0  0.13827603433E-01 -0.14368877683E-01  0.24591673129E-01  0.31665103361E-01  0.51100000000E-03 0.  1.
</event>
<event>
 8    1  0.1042301E+005  0.1043930E+01  0.7957747E-01            NaN
         13   -1    0    0    0    0  0.00000000000E+00  0.00000000000E+00  0.74505805969E-08  0.10566000000E+00  0.10566000000E+00 0. -1.
     999900   -1    0    0    0    0 -0.00000000000E+00 -0.00000000000E+00 -0.74505805969E-08  0.93827000000E+00  0.93827000000E+00 0.  1.
     999902    2    1    2    0    0  0.96306986393E-03  0.19365199437E-01 -0.12835260552E-01  0.10206774224E+01  0.10204125235E+01 0.  0.
     999903    2    3    3    0    0 -0.65344307770E-02  0.13127332743E+00  0.89240428970E-02  0.13329187544E+00  0.20290397614E-01 0.  0.
         14    1    1    2    0    0 -0.96306986393E-03 -0.19365199437E-01  0.12835260552E-01  0.23252577626E-01  0.00000000000E+00 0.  1.
     999901    1    3    3    0    0  0.74975006409E-02 -0.11190812799E+00 -0.21759303449E-01  0.88738554694E+00  0.88000000000E+00 0.  1.
        -11    1    4    4    0    0  0.21802656725E-02  0.48225340543E-01 -0.53582933331E-02  0.48573752762E-01  0.51100000000E-03 0.  1.
         11    1    4    4    0    0 -0.87146964494E-02  0.83047986888E-01  0.14282336230E-01  0.84718122675E-01  0.51100000000E-03 0. -1.
</event>
<event>
 8    1  0.1042301E+005  0.1043930E+01  0.7957747E-01            NaN
         13   -1    0    0    0    0  0.00000000000E+00  0.00000000000E+00  0.74505805969E-08  0.10566000000E+00  0.10566000000E+00 0.  1.
     999900   -1    0    0    0    0 -0.00000000000E+00 -0.00000000000E+00 -0.74505805969E-08  0.93827000000E+00  0.93827000000E+00 0. -1.
     999902    2    1    2    0    0  0.18298357120E-01 -0.12169096293E-01  0.69996911188E-02  0.10208667727E+01  0.10206062194E+01 0.  0.
     999903    2    3    3    0    0 -0.26182697009E-01 -0.64737199773E-01 -0.10861243237E+00  0.13063751415E+00  0.19825765563E-01 0.  0.
         14    1    1    2    0    0 -0.18298357120E-01  0.12169096293E-01 -0.69996911188E-02  0.23063227303E-01  0.00000000000E+00 0.  1.
     999901    1    3    3    0    0  0.44481054129E-01  0.52568103480E-01  0.11561212349E+00  0.89022925855E+00  0.88000000000E+00 0.  1.
        -11    1    4    4    0    0 -0.22474338640E-01 -0.50244624004E-01 -0.68835073999E-01  0.88137090218E-01  0.51100000000E-03 0.  1.
         11    1    4    4    0    0 -0.37083583688E-02 -0.14492575769E-01 -0.39777358371E-01  0.42500423930E-01  0.51100000000E-03 0. -1.
</event>
<event>
 8    1  0.1042301E+005  0.1043930E+01  0.7957747E-01            NaN
         13   -1    0    0    0    0  0.00000000000E+00  0.00000000000E+00  0.74505805969E-08  0.10566000000E+00  0.10566000000E+00 0.  1.
     999900   -1    0    0    0    0 -0.00000000000E+00 -0.00000000000E+00 -0.74505805969E-08  0.93827000000E+00  0.93827000000E+00 0.  1.
     999902    2    1    2    0    0  0.32670372210E-02 -0.56962034590E-02  0.27789960376E-01  0.10153747524E+01  0.10149731453E+01 0.  0.
     999903    2    3    3    0    0  0.92137425881E-01  0.43203207988E-01  0.75427516692E-01  0.12826797465E+00  0.20187635246E-01 0.  0.
         14    1    1    2    0    0 -0.32670372210E-02  0.56962034590E-02 -0.27789960376E-01  0.28555247570E-01  0.00000000000E+00 0. -1.
     999901    1    3    3    0    0 -0.88870388660E-01 -0.48899411447E-01 -0.47637556316E-01  0.88710677779E+00  0.88000000000E+00 0.  1.
        -11    1    4    4    0    0  0.24292232700E-01  0.30215138841E-02  0.13183303674E-01  0.27808321281E-01  0.51100000000E-03 0. -1.
         11    1    4    4    0    0  0.67845193181E-01  0.40181694104E-01  0.62244213018E-01  0.10045965336E+00  0.51100000000E-03 0.  1.
</event>
<event>
 8    1  0.1042301E+005  0.1043930E+01  0.7957747E-01            NaN
         13   -1    0    0    0    0  0.00000000000E+00  0.00000000000E+00  0.74505805969E-08  0.10566000000E+00  0.10566000000E+00 0.  1.
     999900   -1    0    0    0    0 -0.00000000000E+00 -0.00000000000E+00 -0.74505805969E-08  0.93827000000E+00  0.93827000000E+00 0. -1.
     999902    2    1    2    0    0  0.89460749482E-02 -0.16778377046E-01  0.15241723204E-01  0.10195608326E+01  0.10192695596E+01 0.  0.
     999903    2    3    3    0    0  0.53175485639E-01 -0.67052083782E-01 -0.95701817486E-01  0.13007100378E+00  0.20880946872E-01 0.  0.
         14    1    1    2    0    0 -0.89460749482E-02  0.16778377046E-01 -0.15241723204E-01  0.24369167394E-01  0.00000000000E+00 0. -1.
     999901    1    3    3    0    0 -0.44229410691E-01  0.50273706736E-01  0.11094354069E+00  0.88948982882E+00  0.88000000000E+00 0.  1.
        -11    1    4    4    0    0  0.15483167596E-01 -0.35988138844E-01 -0.45026302224E-01  0.59686712334E-01  0.51100000000E-03 0.  1.
         11    1    4    4    0    0  0.37692318044E-01 -0.31063944938E-01 -0.50675515262E-01  0.70384291448E-01  0.51100000000E-03 0. -1.
</event>
<event>
 8    1  0.1042301E+005  0.1043930E+01  0.7957747E-01            NaN
         13   -1    0    0    0    0  0.00000000000E+00  0.00000000000E+00  0.74505805969E-08  0.10566000000E+00  0.10566000000E+00 0.  1.
     999900   -1    0    0    0    0 -0.00000000000E+00 -0.00000000000E+00 -0.74505805969E-08  0.93827000000E+00  0.93827000000E+00 0.  1.
     999902    2    1    2    0    0 -0.14767339374E-01  0.98998834838E-02  0.14740786750E-01  0.10208351348E+01  0.10205738580E+01 0.  0.
     999903    2    3    3    0    0 -0.12451432371E+00 -0.32687559782E-01  0.26407995011E-01  0.13291947739E+00  0.19947729088E-01 0.  0.
         14    1    1    2    0    0  0.14767339374E-01 -0.98998834838E-02 -0.14740786750E-01  0.23094865213E-01  0.00000000000E+00 0. -1.
     999901    1    3    3    0    0  0.10974698434E+00  0.42587443266E-01 -0.11667208261E-01  0.88791565739E+00  0.88000000000E+00 0.  1.
        -11    1    4    4    0    0 -0.51466994825E-01 -0.96240087971E-02  0.19989831803E-01  0.56047547655E-01  0.51100000000E-03 0. -1.
         11    1    4    4    0    0 -0.73047328889E-01 -0.23063550985E-01  0.64181632081E-02  0.76871929739E-01  0.51100000000E-03 0.  1.
</event>
<event>
 8    1  0.1042301E+005  0.1043930E+01  0.7957747E-01            NaN
         13   -1    0    0    0    0  0.00000000000E+00  0.00000000000E+00  0.74505805969E-08  0.10566000000E+00  0.10566000000E+00 0. -1.
     999900   -1    0    0    0    0 -0.00000000000E+00 -0.00000000000E+00 -0.74505805969E-08  0.93827000000E+00  0.93827000000E+00 0.  1.
     999902    2    1    2    0    0  0.21583448078E-01 -0.80280057478E-02  0.85903563134E-02  0.10193517916E+01  0.10190554385E+01 0.  0.
     999903    2    3    3    0    0 -0.99700595884E-02  0.21597696191E-01  0.12638990591E+00  0.13044794980E+00  0.21826514184E-01 0.  0.
         14    1    1    2    0    0 -0.21583448078E-01  0.80280057478E-02 -0.85903563134E-02  0.24578208414E-01  0.00000000000E+00 0.  1.
     999901    1    3    3    0    0  0.31553507667E-01 -0.29625701939E-01 -0.11779954960E+00  0.88890384179E+00  0.88000000000E+00 0.  1.
        -11    1    4    4    0    0 -0.11572304517E-01  0.16736882637E-02  0.59208767531E-01  0.60354442569E-01  0.51100000000E-03 0. -1.
         11    1    4    4    0    0  0.16022449291E-02  0.19924007927E-01  0.67181138379E-01  0.70093507229E-01  0.51100000000E-03 0.  1.
</event>
<event>
 8    1  0.1042301E+005  0.1043930E+01  0.7957747E-01            NaN
         13   -1    0    0    0    0  0.00000000000E+00  0.00000000000E+00  0.74505805969E-08  0.10566000000E+00  0.10566000000E+00 0.  1.
     999900   -1    0    0    0    0 -0.00000000000E+00 -0.00000000000E+00 -0.74505805969E-08  0.93827000000E+00  0.93827000000E+00 0.  1.
     999902    2    1    2    0    0  0.96478065893E-02 -0.20083480887E-01  0.64756840143E-02  0.10207273954E+01  0.10204636470E+01 0.  0.
     999903    2    3    3    0    0  0.96181621539E-01  0.46325116773E-01  0.73926166971E-01  0.13143117332E+00  0.20301585906E-01 0.  0.
         14    1    1    2    0    0 -0.96478065893E-02  0.20083480887E-01 -0.64756840143E-02  0.23202604594E-01  0.00000000000E+00 0.  1.
     999901    1    3    3    0    0 -0.86533814949E-01 -0.66408597660E-01 -0.67450482956E-01  0.88929622209E+00  0.88000000000E+00 0.  1.
        -11    1    4    4    0    0  0.45203018046E-01  0.25559643841E-01  0.47459845115E-01  0.70351305980E-01  0.51100000000E-03 0. -1.
         11    1    4    4    0    0  0.50978603493E-01  0.20765472933E-01  0.26466321855E-01  0.61079867336E-01  0.51100000000E-03 0.  1.
</event>
<event>
 8    1  0.1042301E+005  0.1043930E+01  0.7957747E-01            NaN
         13   -1    0    0    0    0  0.00000000000E+00  0.00000000000E+00  0.74505805969E-08  0.10566000000E+00  0.10566000000E+00 0. -1.
     999900   -1    0    0    0    0 -0.00000000000E+00 -0.00000000000E+00 -0.74505805969E-08  0.93827000000E+00  0.93827000000E+00 0. -1.
     999902    2    1    2    0    0  0.89742876024E-02  0.66256977047E-02 -0.21463451563E-01  0.10197407987E+01  0.10194538631E+01 0.  0.
     999903    2    3    3    0    0  0.47635081505E-01  0.24111503114E-01  0.11483641236E+00  0.12823753828E+00  0.20174217444E-01 0.  0.
         14    1    1    2    0    0 -0.89742876024E-02 -0.66256977047E-02  0.21463451563E-01  0.24189201331E-01  0.00000000000E+00 0. -1.
     999901    1    3    3    0    0 -0.38660793903E-01 -0.17485805409E-01 -0.13629986392E+00  0.89150326039E+00  0.88000000000E+00 0. -1.
        -11    1    4    4    0    0  0.28313475627E-01  0.18064006868E-01  0.49391018239E-01  0.59730185417E-01  0.51100000000E-03 0.  1.
         11    1    4    4    0    0  0.19321605878E-01  0.60474962459E-02  0.65445394117E-01  0.68507352866E-01  0.51100000000E-03 0. -1.
</event>
<event>
 8    1  0.1042301E+005  0.1043930E+01  0.7957747E-01            NaN
         13   -1    0    0    0    0  0.00000000000E+00  0.00000000000E+00  0.74505805969E-08  0.10566000000E+00  0.10566000000E+00 0.  1.
     999900   -1    0    0    0    0 -0.00000000000E+00 -0.00000000000E+00 -0.74505805969E-08  0.93827000000E+00  0.93827000000E+00 0. -1.
     999902    2    1    2    0    0  0.94134075422E-02  0.23694090417E-02 -0.22582233837E-01  0.10193498530E+01  0.10190534526E+01 0.  0.
     999903    2    3    3    0    0  0.64071522815E-01 -0.68656250203E-01 -0.90484842976E-01  0.13219545937E+00  0.21663147081E-01 0.  0.
         14    1    1    2    0    0 -0.94134075422E-02 -0.23694090417E-02  0.22582233837E-01  0.24580146986E-01  0.00000000000E+00 0.  1.
     999901    1    3    3    0    0 -0.54658115273E-01  0.71025659245E-01  0.67902609139E-01  0.88715439365E+00  0.88000000000E+00 0.  1.
        -11    1    4    4    0    0  0.44165185761E-01 -0.33279940510E-01 -0.58601454649E-01  0.80576111110E-01  0.51100000000E-03 0.  1.
         11    1    4    4    0    0  0.19906337055E-01 -0.35376309693E-01 -0.31883388327E-01  0.51619348259E-01  0.51100000000E-03 0. -1.
</event>
<event>
 8    1  0.1042301E+005  0.1043930E+01  0.7957747E-01            NaN
         13   -1    0    0    0    0  0.00000000000E+00  0.00000000000E+00  0.74505805969E-08  0.10566000000E+00  0.10566000000E+00 0. -1.
     999900   -1    0    0    0    0 -0.00000000000E+00 -0.00000000000E+00 -0.74505805969E-08  0.93827000000E+00  0.93827000000E+00 0.  1.
     999902    2    1    2    0    0 -0.11445737216E-01  0.52505921961E-02  0.20052107643E-01  0.10202517264E+01  0.10199769236E+01 0.  0.
     999903    2    3    3    0    0 -0.82051593364E-01  0.46743664719E-01 -0.86990375335E-01  0.12999055398E+00  0.20317100153E-01 0.  0.
         14    1    1    2    0    0  0.11445737216E-01 -0.52505921961E-02 -0.20052107643E-01  0.23678273580E-01  0.00000000000E+00 0. -1.
     999901    1    3    3    0    0  0.70605856148E-01 -0.41493072522E-01  0.10704248298E+00  0.89026117244E+00  0.88000000000E+00 0. -1.
        -11    1    4    4    0    0 -0.68132136881E-01  0.41089012104E-01 -0.81732485631E-01  0.11406469796E+00  0.51100000000E-03 0.  1.
         11    1    4    4    0    0 -0.13919456483E-01  0.56546526142E-02 -0.52578897039E-02  0.15925856024E-01  0.51100000000E-03 0. -1.
</event>
<event>
 8    1  0.1042301E+005  0.1043930E+01  0.7957747E-01            NaN
         13   -1    0    0    0    0  0.00000000000E+00  0.00000000000E+00  0.74505805969E-08  0.10566000000E+00  0.10566000000E+00 0.  1.
     999900   -1    0    0    0    0 -0.00000000000E+00 -0.00000000000E+00 -0.74505805969E-08  0.93827000000E+00  0.93827000000E+00 0. -1.
     999902    2    1    2    0    0  0.36564242212E-02  0.12549481860E-01  0.23865663849E-01  0.10167191778E+01  0.10163549861E+01 0.  0.
     999903    2    3    3    0    0  0.10195176361E+00 -0.14836378061E-01 -0.69404516930E-01  0.12592667353E+00  0.20646063010E-01 0.  0.
         14    1    1    2    0    0 -0.36564242212E-02 -0.12549481860E-01 -0.23865663849E-01  0.27210822185E-01  0.00000000000E+00 0. -1.
     999901    1    3    3    0    0 -0.98295339392E-01  0.27385859921E-01  0.93270180779E-01  0.89079250429E+00  0.88000000000E+00 0. -1.
        -11    1    4    4    0    0  0.78156942129E-01 -0.24290723370E-02 -0.50191239584E-01  0.92918403169E-01  0.51100000000E-03 0.  1.
         11    1    4    4    0    0  0.23794821484E-01 -0.12407305724E-01 -0.19213277346E-01  0.33008270360E-01  0.51100000000E-03 0. -1.
</event>
<event>
 8    1  0.1042301E+005  0.1043930E+01  0.7957747E-01            NaN
         13   -1    0    0    0    0  0.00000000000E+00  0.00000000000E+00  0.74505805969E-08  0.10566000000E+00  0.10566000000E+00 0.  1.
     999900   -1    0    0    0    0 -0.00000000000E+00 -0.00000000000E+00 -0.74505805969E-08  0.93827000000E+00  0.93827000000E+00 0. -1.
     999902    2    1    2    0    0 -0.15714706045E-01  0.78358360229E-02  0.14710951108E-01  0.10210222634E+01  0.10207652512E+01 0.  0.
     999903    2    3    3    0    0  0.40110253007E-01 -0.11782743807E+00 -0.28700404897E-01  0.12928674752E+00  0.19980297407E-01 0.  0.
         14    1    1    2    0    0  0.15714706045E-01 -0.78358360229E-02 -0.14710951108E-01  0.22907736570E-01  0.00000000000E+00 0.  1.
     999901    1    3    3    0    0 -0.55824959053E-01  0.12566327409E+00  0.43411356005E-01  0.89173551591E+00  0.88000000000E+00 0. -1.
        -11    1    4    4    0    0  0.35979967102E-02 -0.13265282115E-02 -0.18089435875E-02  0.42706738725E-02  0.51100000000E-03 0. -1.
         11    1    4    4    0    0  0.36512256297E-01 -0.11650090986E+00 -0.26891461309E-01  0.12501607365E+00  0.51100000000E-03 0.  1.
</event>
<event>
 8    1  0.1042301E+005  0.1043930E+01  0.7957747E-01            NaN
         13   -1    0    0    0    0  0.00000000000E+00  0.00000000000E+00  0.74505805969E-08  0.10566000000E+00  0.10566000000E+00 0.  1.
     999900   -1    0    0    0    0 -0.00000000000E+00 -0.00000000000E+00 -0.74505805969E-08  0.93827000000E+00  0.93827000000E+00 0. -1.
     999902    2    1    2    0    0  0.15476633317E-01 -0.33983388873E-02 -0.17759448642E-01  0.10201293088E+01  0.10198516234E+01 0.  0.
     999903    2    3    3    0    0  0.97209945577E-01 -0.22387451506E-01 -0.86411615699E-01  0.13347602775E+00  0.19947710475E-01 0.  0.
         14    1    1    2    0    0 -0.15476633317E-01  0.33983388873E-02  0.17759448642E-01  0.23800691210E-01  0.00000000000E+00 0.  1.
     999901    1    3    3    0    0 -0.81733312259E-01  0.18989112619E-01  0.68652167057E-01  0.88665328104E+00  0.88000000000E+00 0. -1.
        -11    1    4    4    0    0  0.48087942678E-01 -0.14803357267E-01 -0.55629233099E-01  0.75009748124E-01  0.51100000000E-03 0. -1.
         11    1    4    4    0    0  0.49122002899E-01 -0.75840942384E-02 -0.30782382599E-01  0.58466279630E-01  0.51100000000E-03 0.  1.
</event>
<event>
 8    1  0.1063581E+005  0.1043930E+01  0.7957747E-01            NaN
         13   -1    0    0    0    0  0.00000000000E+00  0.00000000000E+00  0.74505805969E-08  0.10566000000E+00  0.10566000000E+00 0.  1.
     999900   -1    0    0    0    0 -0.00000000000E+00 -0.00000000000E+00 -0.74505805969E-08  0.93827000000E+00  0.93827000000E+00 0.  1.
     999902    2    1    2    0    0  0.13301711055E-01 -0.12309226214E-02  0.19393234176E-01  0.10203811525E+01  0.10201093805E+01 0.  0.
     999903    2    3    3    0    0 -0.12262786307E+00  0.54728075704E-02 -0.31860106739E-01  0.12844578819E+00  0.20388959745E-01 0.  0.
         14    1    1    2    0    0 -0.13301711055E-01  0.12309226214E-02 -0.19393234176E-01  0.23548847515E-01  0.00000000000E+00 0. -1.
     999901    1    3    3    0    0  0.13592957412E+00 -0.67037301918E-02  0.51253340915E-01  0.89193536429E+00  0.88000000000E+00 0. -1.
        -11    1    4    4    0    0 -0.48768465063E-01  0.12041975647E-01 -0.11208085915E-01  0.51470910940E-01  0.51100000000E-03 0.  1.
         11    1    4    4    0    0 -0.73859398006E-01 -0.65691680763E-02 -0.20652020825E-01  0.76974877253E-01  0.51100000000E-03 0. -1.
</event>
<event>
 8    1  0.1042301E+005  0.1043930E+01  0.7957747E-01            NaN
         13   -1    0    0    0    0  0.00000000000E+00  0.00000000000E+00  0.74505805969E-08  0.10566000000E+00  0.10566000000E+00 0. -1.
     999900   -1    0    0    0    0 -0.00000000000E+00 -0.00000000000E+00 -0.74505805969E-08  0.93827000000E+00  0.93827000000E+00 0. -1.
     999902    2    1    2    0    0 -0.12071581504E-01 -0.10951011660E-01  0.16919618562E-01  0.10204369962E+01  0.10201665266E+01 0.  0.
     999903    2    3    3    0    0 -0.14211180534E-01  0.18619152980E-01 -0.12481555841E+00  0.12860302457E+00  0.20277667455E-01 0.  0.
         14    1    1    2    0    0  0.12071581504E-01  0.10951011660E-01 -0.16919618562E-01  0.23493003824E-01  0.00000000000E+00 0.  1.
     999901    1    3    3    0    0  0.21395990300E-02 -0.29570164640E-01  0.14173517697E+00  0.89183397161E+00  0.88000000000E+00 0.  1.
        -11    1    4    4    0    0 -0.28071068348E-02  0.11263068444E-01 -0.96525210334E-01  0.97221982651E-01  0.51100000000E-03 0. -1.
         11    1    4    4    0    0 -0.11404073700E-01  0.73560845356E-02 -0.28290348075E-01  0.31381041918E-01  0.51100000000E-03 0.  1.
</event>
<event>
 8    1  0.1042301E+005  0.1043930E+01  0.7957747E-01            NaN
         13   -1    0    0    0    0  0.00000000000E+00  0.00000000000E+00  0.74505805969E-08  0.10566000000E+00  0.10566000000E+00 0.  1.
     999900   -1    0    0    0    0 -0.00000000000E+00 -0.00000000000E+00 -0.74505805969E-08  0.93827000000E+00  0.93827000000E+00 0. -1.
     999902    2    1    2    0    0  0.16061934396E-01  0.21846383464E-01  0.12582526195E-01  0.10140373559E+01  0.10135966599E+01 0.  0.
     999903    2    3    3    0    0 -0.36147077901E-01 -0.89447516488E-01 -0.71059568844E-01  0.12156432369E+00  0.20517139726E-01 0.  0.
         14    1    1    2    0    0 -0.16061934396E-01 -0.21846383464E-01 -0.12582526195E-01  0.29892644119E-01  0.00000000000E+00 0. -1.
     999901    1    3    3    0    0  0.52209012296E-01  0.11129389995E+00  0.83642095039E-01  0.89247303219E+00  0.88000000000E+00 0.  1.
        -11    1    4    4    0    0 -0.38031562135E-01 -0.81894749386E-01 -0.61618194835E-01  0.10931702864E+00  0.51100000000E-03 0. -1.
         11    1    4    4    0    0  0.18844842348E-02 -0.75527671014E-02 -0.94413740095E-02  0.12247295044E-01  0.51100000000E-03 0.  1.
</event>
<event>
 8    1  0.1042301E+005  0.1043930E+01  0.7957747E-01            NaN
         13   -1    0    0    0    0  0.00000000000E+00  0.00000000000E+00  0.74505805969E-08  0.10566000000E+00  0.10566000000E+00 0.  1.
     999900   -1    0    0    0    0 -0.00000000000E+00 -0.00000000000E+00 -0.74505805969E-08  0.93827000000E+00  0.93827000000E+00 0.  1.
     999902    2    1    2    0    0 -0.13150982241E-01 -0.18851075732E-01  0.29747067737E-02  0.10207532817E+01  0.10204901283E+01 0.  0.
     999903    2    3    3    0    0  0.11577947008E+00  0.51946378400E-01  0.44798057760E-02  0.12854388568E+00  0.20003748779E-01 0.  0.
         14    1    1    2    0    0  0.13150982241E-01  0.18851075732E-01 -0.29747067737E-02  0.23176718287E-01  0.00000000000E+00 0.  1.
     999901    1    3    3    0    0 -0.12893045232E+00 -0.70797454132E-01 -0.15050990022E-02  0.89220939603E+00  0.88000000000E+00 0. -1.
        -11    1    4    4    0    0  0.45832562614E-01  0.23149446664E-01 -0.77044418093E-02  0.51924370205E-01  0.51100000000E-03 0.  1.
         11    1    4    4    0    0  0.69946907466E-01  0.28796931736E-01  0.12184247585E-01  0.76619515475E-01  0.51100000000E-03 0. -1.
</event>
<event>
 8    1  0.1042301E+005  0.1043930E+01  0.7957747E-01            NaN
         13   -1    0    0    0    0  0.00000000000E+00  0.00000000000E+00  0.74505805969E-08  0.10566000000E+00  0.10566000000E+00 0.  1.
     999900   -1    0    0    0    0 -0.00000000000E+00 -0.00000000000E+00 -0.74505805969E-08  0.93827000000E+00  0.93827000000E+00 0.  1.
     999902    2    1    2    0    0  0.12285051991E-01 -0.19813270097E-01  0.25008630515E-02  0.10204834120E+01  0.10202140225E+01 0.  0.
     999903    2    3    3    0    0 -0.36839024333E-01  0.17439763391E-01  0.12229516273E+00  0.13022971913E+00  0.18504428043E-01 0.  0.
         14    1    1    2    0    0 -0.12285051991E-01  0.19813270097E-01 -0.25008630515E-02  0.23446588033E-01  0.00000000000E+00 0.  1.
     999901    1    3    3    0    0  0.49124076324E-01 -0.37253033488E-01 -0.11979429967E+00  0.89025369284E+00  0.88000000000E+00 0.  1.
        -11    1    4    4    0    0 -0.33875402900E-01  0.20815460296E-01  0.10292049613E+00  0.11033456373E+00  0.51100000000E-03 0. -1.
         11    1    4    4    0    0 -0.29636214330E-02 -0.33756969055E-02  0.19374666599E-01  0.19895155401E-01  0.51100000000E-03 0.  1.
</event>
<event>
 8    1  0.1042301E+005  0.1043930E+01  0.7957747E-01            NaN
         13   -1    0    0    0    0  0.00000000000E+00  0.00000000000E+00  0.74505805969E-08  0.10566000000E+00  0.10566000000E+00 0.  1.
     999900   -1    0    0    0    0 -0.00000000000E+00 -0.00000000000E+00 -0.74505805969E-08  0.93827000000E+00  0.93827000000E+00 0.  1.
     999902    2    1    2    0    0 -0.10826061678E-01  0.19322138329E-01 -0.75954262049E-02  0.10205154930E+01  0.10202468487E+01 0.  0.
     999903    2    3    3    0    0  0.73500275051E-01  0.98722921713E-02 -0.10602196116E+00  0.13097178214E+00  0.20327294085E-01 0.  0.
         14    1    1    2    0    0  0.10826061678E-01 -0.19322138329E-01  0.75954262049E-02  0.23414507048E-01  0.00000000000E+00 0.  1.
     999901    1    3    3    0    0 -0.84326336729E-01  0.94498461578E-02  0.98426534952E-01  0.88954371081E+00  0.88000000000E+00 0. -1.
        -11    1    4    4    0    0  0.57064198931E-01  0.68354645906E-02 -0.65534482975E-01  0.87166943020E-01  0.51100000000E-03 0.  1.
         11    1    4    4    0    0  0.16436076121E-01  0.30368275807E-02 -0.40487478182E-01  0.43804839122E-01  0.51100000000E-03 0. -1.
</event>
<event>
 8    1  0.1042301E+005  0.1043930E+01  0.7957747E-01            NaN
         13   -1    0    0    0    0  0.00000000000E+00  0.00000000000E+00  0.74505805969E-08  0.10566000000E+00  0.10566000000E+00 0. -1.
     999900   -1    0    0    0    0 -0.00000000000E+00 -0.00000000000E+00 -0.74505805969E-08  0.93827000000E+00  0.93827000000E+00 0.  1.
     999902    2    1    2    0    0 -0.26523469950E-02  0.15388939648E-01 -0.17130291813E-01  0.10207502393E+01  0.10204870160E+01 0.  0.
     999903    2    3    3    0    0 -0.99366922037E-01 -0.13382619520E-01 -0.84236045868E-01  0.13244584673E+00  0.19832074859E-01 0.  0.
         14    1    1    2    0    0  0.26523469950E-02 -0.15388939648E-01  0.17130291813E-01  0.23179760690E-01  0.00000000000E+00 0. -1.
     999901    1    3    3    0    0  0.96714575042E-01  0.28771559167E-01  0.67105754055E-01  0.88830439258E+00  0.88000000000E+00 0. -1.
        -11    1    4    4    0    0 -0.53589844562E-01 -0.17021847998E-01 -0.44267611345E-01  0.71564637110E-01  0.51100000000E-03 0. -1.
         11    1    4    4    0    0 -0.45777077475E-01  0.36392284781E-02 -0.39968434523E-01  0.60881209624E-01  0.51100000000E-03 0.  1.
</event>
<event>
 8    1  0.1042301E+005  0.1043930E+01  0.7957747E-01            NaN
         13   -1    0    0    0    0  0.00000000000E+00  0.00000000000E+00  0.74505805969E-08  0.10566000000E+00  0.10566000000E+00 0. -1.
     999900   -1    0    0    0    0 -0.00000000000E+00 -0.00000000000E+00 -0.74505805969E-08  0.93827000000E+00  0.93827000000E+00 0. -1.
     999902    2    1    2    0    0 -0.14175723855E-01 -0.97875250474E-02 -0.15859660069E-01  0.10205147142E+01  0.10202460518E+01 0.  0.
     999903    2    3    3    0    0 -0.12272124751E+00 -0.23614158647E-01 -0.44531863725E-01  0.13327438496E+00  0.12682338869E-01 0.  0.
         14    1    1    2    0    0  0.14175723855E-01  0.97875250474E-02  0.15859660069E-01  0.23415285838E-01  0.00000000000E+00 0. -1.
     999901    1    3    3    0    0  0.10854552366E+00  0.13826633600E-01  0.28672203656E-01  0.88724032920E+00  0.88000000000E+00 0. -1.
        -11    1    4    4    0    0 -0.63657272798E-01 -0.70510462199E-02 -0.26696678091E-01  0.69389764195E-01  0.51100000000E-03 0. -1.
         11    1    4    4    0    0 -0.59063974716E-01 -0.16563112427E-01 -0.17835185633E-01  0.63884620764E-01  0.51100000000E-03 0.  1.
</event>
<event>
 8    1  0.1042301E+005  0.1043930E+01  0.7957747E-01            NaN
         13   -1    0    0    0    0  0.00000000000E+00  0.00000000000E+00  0.74505805969E-08  0.10566000000E+00  0.10566000000E+00 0. -1.
     999900   -1    0    0    0    0 -0.00000000000E+00 -0.00000000000E+00 -0.74505805969E-08  0.93827000000E+00  0.93827000000E+00 0.  1.
     999902    2    1    2    0    0  0.21219222615E-01  0.37005394588E-02  0.10603651273E-01  0.10199219426E+01  0.10196393392E+01 0.  0.
     999903    2    3    3    0    0  0.69510136255E-01 -0.25160093660E-01 -0.10542019931E+00  0.13052524684E+00  0.21418036466E-01 0.  0.
         14    1    1    2    0    0 -0.21219222615E-01 -0.37005394588E-02 -0.10603651273E-01  0.24008057418E-01  0.00000000000E+00 0.  1.
     999901    1    3    3    0    0 -0.48290913640E-01  0.28860633119E-01  0.11602385058E+00  0.88939669574E+00  0.88000000000E+00 0. -1.
        -11    1    4    4    0    0  0.19679439502E-01 -0.35341472148E-02 -0.14843065960E-01  0.24906791518E-01  0.51100000000E-03 0.  1.
         11    1    4    4    0    0  0.49830696753E-01 -0.21625946445E-01 -0.90577133350E-01  0.10561845533E+00  0.51100000000E-03 0. -1.
</event>
<event>
 8    1  0.1042301E+005  0.1043930E+01  0.7957747E-01            NaN
         13   -1    0    0    0    0  0.00000000000E+00  0.00000000000E+00  0.74505805969E-08  0.10566000000E+00  0.10566000000E+00 0. -1.
     999900   -1    0    0    0    0 -0.00000000000E+00 -0.00000000000E+00 -0.74505805969E-08  0.93827000000E+00  0.93827000000E+00 0. -1.
     999902    2    1    2    0    0  0.42731567985E-02  0.12385427407E-01  0.18203039753E-01  0.10215021303E+01  0.10212558900E+01 0.  0.
     999903    2    3    3    0    0  0.58831356256E-01  0.63532196946E-01 -0.96152616834E-01  0.13095746254E+00  0.20175795964E-01 0.  0.
         14    1    1    2    0    0 -0.42731567985E-02 -0.12385427407E-01 -0.18203039753E-01  0.22427869656E-01  0.00000000000E+00 0.  1.
     999901    1    3    3    0    0 -0.54558199458E-01 -0.51146769539E-01  0.11435565659E+00  0.89054466780E+00  0.88000000000E+00 0.  1.
        -11    1    4    4    0    0  0.35318094536E-01  0.47086068497E-01 -0.53458962050E-01  0.79514699223E-01  0.51100000000E-03 0.  1.
         11    1    4    4    0    0  0.23513261720E-01  0.16446128450E-01 -0.42693654784E-01  0.51442763315E-01  0.51100000000E-03 0. -1.
</event>
<event>
 8    1  0.1042301E+005  0.1043930E+01  0.7957747E-01            NaN
         13   -1    0    0    0    0  0.00000000000E+00  0.00000000000E+00  0.74505805969E-08  0.10566000000E+00  0.10566000000E+00 0. -1.
     999900   -1    0    0    0    0 -0.00000000000E+00 -0.00000000000E+00 -0.74505805969E-08  0.93827000000E+00  0.93827000000E+00 0.  1.
     999902    2    1    2    0    0  0.81251796076E-02  0.41429201082E-02  0.21344419428E-01  0.10207186543E+01  0.10204547048E+01 0.  0.
     999903    2    3    3    0    0  0.10553982286E-01  0.12423458141E+00 -0.36856594307E-01  0.13065390144E+00  0.12900219282E-01 0.  0.
         14    1    1    2    0    0 -0.81251796076E-02 -0.41429201082E-02 -0.21344419428E-01  0.23211345747E-01  0.00000000000E+00 0.  1.
     999901    1    3    3    0    0 -0.24288026786E-02 -0.12009166130E+00  0.58201013735E-01  0.89006475281E+00  0.88000000000E+00 0.  1.
        -11    1    4    4    0    0  0.10795248005E-01  0.56173588175E-01 -0.19165540722E-01  0.60329001816E-01  0.51100000000E-03 0.  1.
         11    1    4    4    0    0 -0.24126571838E-03  0.68060993236E-01 -0.17691053586E-01  0.70324899626E-01  0.51100000000E-03 0. -1.
</event>
<event>
 8    1  0.1042301E+005  0.1043930E+01  0.7957747E-01            NaN
         13   -1    0    0    0    0  0.00000000000E+00  0.00000000000E+00  0.74505805969E-08  0.10566000000E+00  0.10566000000E+00 0. -1.
     999900   -1    0    0    0    0 -0.00000000000E+00 -0.00000000000E+00 -0.74505805969E-08  0.93827000000E+00  0.93827000000E+00 0. -1.
     999902    2    1    2    0    0  0.17425748047E-02  0.18139917390E-01  0.13878884021E-01  0.10210233068E+01  0.10207663183E+01 0.  0.
     999903    2    3    3    0    0 -0.90940054189E-01 -0.48434955783E-01  0.78370802683E-01  0.13131465170E+00  0.22034442151E-01 0.  0.
         14    1    1    2    0    0 -0.17425748047E-02 -0.18139917390E-01 -0.13878884021E-01  0.22906693160E-01  0.00000000000E+00 0.  1.
     999901    1    3    3    0    0  0.92682628994E-01  0.66574873172E-01 -0.64491918662E-01  0.88970865514E+00  0.88000000000E+00 0. -1.
        -11    1    4    4    0    0 -0.16296145552E-01 -0.17857086008E-01  0.23767755564E-01  0.33905857991E-01  0.51100000000E-03 0. -1.
         11    1    4    4    0    0 -0.74643908638E-01 -0.30577869774E-01  0.54603047119E-01  0.97408793712E-01  0.51100000000E-03 0.  1.
</event>
<event>
 8    1  0.1042301E+005  0.1043930E+01  0.7957747E-01            NaN
         13   -1    0    0    0    0  0.00000000000E+00  0.00000000000E+00  0.74505805969E-08  0.10566000000E+00  0.10566000000E+00 0. -1.
     999900   -1    0    0    0    0 -0.00000000000E+00 -0.00000000000E+00 -0.74505805969E-08  0.93827000000E+00  0.93827000000E+00 0.  1.
     999902    2    1    2    0    0  0.11947552591E-01  0.32354436009E-03  0.19923745669E-01  0.10206963103E+01  0.10204318466E+01 0.  0.
     999903    2    3    3    0    0  0.78167455285E-01  0.53786447622E-01 -0.87656863489E-01  0.13006903420E+00  0.15201806692E-01 0.  0.
         14    1    1    2    0    0 -0.11947552591E-01 -0.32354436009E-03 -0.19923745669E-01  0.23233689662E-01  0.00000000000E+00 0.  1.
     999901    1    3    3    0    0 -0.66219902694E-01 -0.53462903262E-01  0.10758060916E+00  0.89062727614E+00  0.88000000000E+00 0. -1.
        -11    1    4    4    0    0  0.70480940721E-01  0.45789158542E-01 -0.70865034254E-01  0.10993781991E+00  0.51100000000E-03 0. -1.
         11    1    4    4    0    0  0.76865145647E-02  0.79972890797E-02 -0.16791829235E-01  0.20131214291E-01  0.51100000000E-03 0.  1.
</event>
<event>
 8    1  0.1042301E+005  0.1043930E+01  0.7957747E-01            NaN
         13   -1    0    0    0    0  0.00000000000E+00  0.00000000000E+00  0.74505805969E-08  0.10566000000E+00  0.10566000000E+00 0.  1.
     999900   -1    0    0    0    0 -0.00000000000E+00 -0.00000000000E+00 -0.74505805969E-08  0.93827000000E+00  0.93827000000E+00 0.  1.
     999902    2    1    2    0    0 -0.22852017916E-01  0.53534829883E-02 -0.66869511790E-02  0.10195252910E+01  0.10192331575E+01 0.  0.
     999903    2    3    3    0    0  0.84136112821E-01 -0.54219037394E-01  0.75815763022E-01  0.12722374832E+00  0.20475905783E-01 0.  0.
         14    1    1    2    0    0  0.22852017916E-01 -0.53534829883E-02  0.66869511790E-02  0.24404708952E-01  0.00000000000E+00 0. -1.
     999901    1    3    3    0    0 -0.10698813074E+00  0.59572520383E-01 -0.82502714201E-01  0.89230154273E+00  0.88000000000E+00 0.  1.
        -11    1    4    4    0    0  0.41403803342E-01 -0.25855532352E-01  0.49708050835E-01  0.69670186761E-01  0.51100000000E-03 0.  1.
         11    1    4    4    0    0  0.42732309478E-01 -0.28363505042E-01  0.26107712187E-01  0.57553561560E-01  0.51100000000E-03 0. -1.
</event>
<event>
 8    1  0.1042301E+005  0.1043930E+01  0.7957747E-01            NaN
         13   -1    0    0    0    0  0.00000000000E+00  0.00000000000E+00  0.74505805969E-08  0.10566000000E+00  0.10566000000E+00 0. -1.
     999900   -1    0    0    0    0 -0.00000000000E+00 -0.00000000000E+00 -0.74505805969E-08  0.93827000000E+00  0.93827000000E+00 0.  1.
     999902    2    1    2    0    0 -0.10217796176E-01 -0.19939378594E-01 -0.61475576265E-02  0.10206969494E+01  0.10204325004E+01 0.  0.
     999903    2    3    3    0    0  0.74805865110E-01 -0.86528807660E-01 -0.63229286955E-01  0.13225927632E+00  0.20283526191E-01 0.  0.
         14    1    1    2    0    0  0.10217796176E-01  0.19939378594E-01  0.61475576265E-02  0.23233050643E-01  0.00000000000E+00 0. -1.
     999901    1    3    3    0    0 -0.85023661287E-01  0.66589429066E-01  0.57081729328E-01  0.88843767303E+00  0.88000000000E+00 0. -1.
        -11    1    4    4    0    0  0.62094270708E-01 -0.73603187073E-01 -0.44154024259E-01  0.10593850377E+00  0.51100000000E-03 0. -1.
         11    1    4    4    0    0  0.12711594402E-01 -0.12925620587E-01 -0.19075262696E-01  0.26320772552E-01  0.51100000000E-03 0.  1.
</event>
<event>
 8    1  0.1042301E+005  0.1043930E+01  0.7957747E-01            NaN
         13   -1    0    0    0    0  0.00000000000E+00  0.00000000000E+00  0.74505805969E-08  0.10566000000E+00  0.10566000000E+00 0. -1.
     999900   -1    0    0    0    0 -0.00000000000E+00 -0.00000000000E+00 -0.74505805969E-08  0.93827000000E+00  0.93827000000E+00 0. -1.
     999902    2    1    2    0    0  0.20137186751E-01  0.11034710834E-01 -0.11769510346E-02  0.10209374719E+01  0.10206785318E+01 0.  0.
     999903    2    3    3    0    0 -0.94872477584E-01 -0.71052855006E-01 -0.45444029250E-01  0.12856694038E+00  0.20371626277E-01 0.  0.
         14    1    1    2    0    0 -0.20137186751E-01 -0.11034710834E-01  0.11769510346E-02  0.22992528073E-01  0.00000000000E+00 0. -1.
     999901    1    3    3    0    0  0.11500966434E+00  0.82087565840E-01  0.44267078215E-01  0.89237053155E+00  0.88000000000E+00 0.  1.
        -11    1    4    4    0    0 -0.71764643640E-01 -0.63712920598E-01 -0.37741361752E-01  0.10312212098E+00  0.51100000000E-03 0. -1.
         11    1    4    4    0    0 -0.23107833945E-01 -0.73399344083E-02 -0.77026674976E-02  0.25444819400E-01  0.51100000000E-03 0.  1.
</event>
<event>
 8    1  0.1042301E+005  0.1043930E+01  0.7957747E-01            NaN
         13   -1    0    0    0    0  0.00000000000E+00  0.00000000000E+00  0.74505805969E-08  0.10566000000E+00  0.10566000000E+00 0.  1.
     999900   -1    0    0    0    0 -0.00000000000E+00 -0.00000000000E+00 -0.74505805969E-08  0.93827000000E+00  0.93827000000E+00 0.  1.
     999902    2    1    2    0    0  0.18992944650E-02  0.51969789822E-02  0.22184286666E-01  0.10210660877E+01  0.10208100690E+01 0.  0.
     999903    2    3    3    0    0  0.20771626925E-01 -0.95627578073E-01 -0.81483355365E-01  0.12906343288E+00  0.21017571959E-01 0.  0.
         14    1    1    2    0    0 -0.18992944650E-02 -0.51969789822E-02 -0.22184286666E-01  0.22863912283E-01  0.00000000000E+00 0. -1.
     999901    1    3    3    0    0 -0.18872332460E-01  0.10082455706E+00  0.10366764203E+00  0.89200265484E+00  0.88000000000E+00 0. -1.
        -11    1    4    4    0    0  0.76512775012E-02 -0.21021542367E-01 -0.86899370932E-02  0.24004654102E-01  0.51100000000E-03 0. -1.
         11    1    4    4    0    0  0.13120349423E-01 -0.74606035706E-01 -0.72793418272E-01  0.10505877877E+00  0.51100000000E-03 0.  1.
</event>
<event>
 8    1  0.1042301E+005  0.1043930E+01  0.7957747E-01            NaN
         13   -1    0    0    0    0  0.00000000000E+00  0.00000000000E+00  0.74505805969E-08  0.10566000000E+00  0.10566000000E+00 0.  1.
     999900   -1    0    0    0    0 -0.00000000000E+00 -0.00000000000E+00 -0.74505805969E-08  0.93827000000E+00  0.93827000000E+00 0. -1.
     999902    2    1    2    0    0  0.14806329996E-01  0.17481264008E-01  0.47490788987E-02  0.10205339373E+01  0.10202657210E+01 0.  0.
     999903    2    3    3    0    0 -0.62192498772E-01  0.99484764350E-01 -0.55743837387E-01  0.13131361218E+00  0.19255235514E-01 0.  0.
         14    1    1    2    0    0 -0.14806329996E-01 -0.17481264008E-01 -0.47490788987E-02  0.23396062696E-01  0.00000000000E+00 0.  1.
     999901    1    3    3    0    0  0.76998828769E-01 -0.82003500342E-01  0.60492916286E-01  0.88922032513E+00  0.88000000000E+00 0.  1.
        -11    1    4    4    0    0 -0.38434179679E-01  0.76704991671E-01 -0.43474349095E-01  0.96182753470E-01  0.51100000000E-03 0.  1.
         11    1    4    4    0    0 -0.23758319094E-01  0.22779772679E-01 -0.12269488292E-01  0.35130858706E-01  0.51100000000E-03 0. -1.
</event>
<event>
 8    1  0.1042301E+005  0.1043930E+01  0.7957747E-01            NaN
         13   -1    0    0    0    0  0.00000000000E+00  0.00000000000E+00  0.74505805969E-08  0.10566000000E+00  0.10566000000E+00 0.  1.
     999900   -1    0    0    0    0 -0.00000000000E+00 -0.00000000000E+00 -0.74505805969E-08  0.93827000000E+00  0.93827000000E+00 0.  1.
     999902    2    1    2    0    0  0.11842295827E-01  0.13136991161E-01  0.71111631443E-02  0.10248672314E+01  0.10246899301E+01 0.  0.
     999903    2    3    3    0    0 -0.71927081090E-01 -0.36567836977E-01  0.10519197562E+00  0.13407672611E+00  0.20012622382E-01 0.  0.
         14    1    1    2    0    0 -0.11842295827E-01 -0.13136991161E-01 -0.71111631443E-02  0.19062768647E-01  0.00000000000E+00 0. -1.
     999901    1    3    3    0    0  0.83769376917E-01  0.49704828138E-01 -0.98080812478E-01  0.89079050524E+00  0.88000000000E+00 0.  1.
        -11    1    4    4    0    0 -0.43634106064E-01 -0.19457497312E-01  0.46277524892E-01  0.66516162283E-01  0.51100000000E-03 0. -1.
         11    1    4    4    0    0 -0.28292975026E-01 -0.17110339665E-01  0.58914450730E-01  0.67560563831E-01  0.51100000000E-03 0.  1.
</event>
<event>
 8    1  0.1042301E+005  0.1043930E+01  0.7957747E-01            NaN
         13   -1    0    0    0    0  0.00000000000E+00  0.00000000000E+00  0.74505805969E-08  0.10566000000E+00  0.10566000000E+00 0. -1.
     999900   -1    0    0    0    0 -0.00000000000E+00 -0.00000000000E+00 -0.74505805969E-08  0.93827000000E+00  0.93827000000E+00 0.  1.
     999902    2    1    2    0    0 -0.19667231250E-01  0.37745438638E-02  0.11206041962E-01  0.10209817421E+01  0.10207238094E+01 0.  0.
     999903    2    3    3    0    0  0.84874164527E-01 -0.13280724383E-01  0.96203334428E-01  0.13056367994E+00  0.20292646954E-01 0.  0.
         14    1    1    2    0    0  0.19667231250E-01 -0.37745438638E-02 -0.11206041962E-01  0.22948257949E-01  0.00000000000E+00 0.  1.
     999901    1    3    3    0    0 -0.10454139578E+00  0.17055268247E-01 -0.84997292465E-01  0.89041806211E+00  0.88000000000E+00 0. -1.
        -11    1    4    4    0    0  0.37996111892E-01 -0.12277244823E-01  0.56103024504E-01  0.68863965460E-01  0.51100000000E-03 0.  1.
         11    1    4    4    0    0  0.46878052635E-01 -0.10034795604E-02  0.40100309923E-01  0.61699714481E-01  0.51100000000E-03 0. -1.
</event>
<event>
 8    1  0.1042301E+005  0.1043930E+01  0.7957747E-01            NaN
         13   -1    0    0    0    0  0.00000000000E+00  0.00000000000E+00  0.74505805969E-08  0.10566000000E+00  0.10566000000E+00 0.  1.
     999900   -1    0    0    0    0 -0.00000000000E+00 -0.00000000000E+00 -0.74505805969E-08  0.93827000000E+00  0.93827000000E+00 0.  1.
     999902    2    1    2    0    0  0.15876149764E-01 -0.30923542657E-02 -0.17158385515E-01  0.10203498181E+01  0.10200773139E+01 0.  0.
     999903    2    3    3    0    0  0.30398629135E-02 -0.11762759205E-01 -0.13093689269E+00  0.13288968101E+00  0.19172745810E-01 0.  0.
         14    1    1    2    0    0 -0.15876149764E-01  0.30923542657E-02  0.17158385515E-01  0.23580181927E-01  0.00000000000E+00 0.  1.
     999901    1    3    3    0    0  0.12836286850E-01  0.86704049394E-02  0.11377850717E+00  0.88746013706E+00  0.88000000000E+00 0. -1.
        -11    1    4    4    0    0  0.11672710993E-02 -0.13811567270E-03 -0.96188280633E-01  0.96196819334E-01  0.51100000000E-03 0.  1.
         11    1    4    4    0    0  0.18725918143E-02 -0.11624643532E-01 -0.34748612053E-01  0.36692861676E-01  0.51100000000E-03 0. -1.
</event>
<event>
 8    1  0.1042301E+005  0.1043930E+01  0.7957747E-01            NaN
         13   -1    0    0    0    0  0.00000000000E+00  0.00000000000E+00  0.74505805969E-08  0.10566000000E+00  0.10566000000E+00 0.  1.
     999900   -1    0    0    0    0 -0.00000000000E+00 -0.00000000000E+00 -0.74505805969E-08  0.93827000000E+00  0.93827000000E+00 0. -1.
     999902    2    1    2    0    0 -0.16453859318E-01 -0.12404150739E-01 -0.13166063000E-01  0.10194772362E+01  0.10191839370E+01 0.  0.
     999903    2    3    3    0    0  0.12409298557E+00  0.11707332359E-01 -0.22641614081E-01  0.12794789553E+00  0.17941309416E-01 0.  0.
         14    1    1    2    0    0  0.16453859318E-01  0.12404150739E-01  0.13166063000E-01  0.24452763789E-01  0.00000000000E+00 0.  1.
     999901    1    3    3    0    0 -0.14054684489E+00 -0.24111483097E-01  0.94755510810E-02  0.89152934068E+00  0.88000000000E+00 0.  1.
        -11    1    4    4    0    0  0.11252922988E+00  0.15807203932E-01 -0.20992901467E-01  0.11555803004E+00  0.51100000000E-03 0. -1.
         11    1    4    4    0    0  0.11563755688E-01 -0.40998715735E-02 -0.16487126141E-02  0.12389865488E-01  0.51100000000E-03 0.  1.
</event>
<event>
 8    1  0.1042301E+005  0.1043930E+01  0.7957747E-01            NaN
         13   -1    0    0    0    0  0.00000000000E+00  0.00000000000E+00  0.74505805969E-08  0.10566000000E+00  0.10566000000E+00 0.  1.
     999900   -1    0    0    0    0 -0.00000000000E+00 -0.00000000000E+00 -0.74505805969E-08  0.93827000000E+00  0.93827000000E+00 0. -1.
     999902    2    1    2    0    0 -0.18135178362E-01 -0.28444223780E-02  0.14855030744E-01  0.10203154415E+01  0.10200421329E+01 0.  0.
     999903    2    3    3    0    0 -0.71679818815E-01  0.10351717915E+00 -0.30574871188E-01  0.13113396693E+00  0.20186424385E-01 0.  0.
         14    1    1    2    0    0  0.18135178362E-01  0.28444223780E-02 -0.14855030744E-01  0.23614558461E-01  0.00000000000E+00 0. -1.
     999901    1    3    3    0    0  0.53544640453E-01 -0.10636160153E+00  0.45429901933E-01  0.88918147461E+00  0.88000000000E+00 0. -1.
        -11    1    4    4    0    0 -0.14713140687E-01  0.31897168021E-01 -0.16982296179E-02  0.35171734980E-01  0.51100000000E-03 0. -1.
         11    1    4    4    0    0 -0.56966678128E-01  0.71620011130E-01 -0.28876641570E-01  0.95962231949E-01  0.51100000000E-03 0.  1.
</event>
<event>
 8    1  0.1042301E+005  0.1043930E+01  0.7957747E-01            NaN
         13   -1    0    0    0    0  0.00000000000E+00  0.00000000000E+00  0.74505805969E-08  0.10566000000E+00  0.10566000000E+00 0.  1.
     999900   -1    0    0    0    0 -0.00000000000E+00 -0.00000000000E+00 -0.74505805969E-08  0.93827000000E+00  0.93827000000E+00 0.  1.
     999902    2    1    2    0    0 -0.73438962990E-02  0.20811351095E-01 -0.75762948818E-02  0.10205966464E+01  0.10203298825E+01 0.  0.
     999903    2    3    3    0    0  0.23024204616E-01 -0.25044694141E-01  0.12305135165E+00  0.12925575733E+00  0.20200617758E-01 0.  0.
         14    1    1    2    0    0  0.73438962990E-02 -0.20811351095E-01  0.75762948818E-02  0.23333353625E-01  0.00000000000E+00 0.  1.
     999901    1    3    3    0    0 -0.30368100915E-01  0.45856045236E-01 -0.13062764653E+00  0.89134088904E+00  0.88000000000E+00 0.  1.
        -11    1    4    4    0    0  0.20262783456E-01 -0.73314754241E-02  0.71143582483E-01  0.74337079407E-01  0.51100000000E-03 0. -1.
         11    1    4    4    0    0  0.27614211601E-02 -0.17713218717E-01  0.51907769169E-01  0.54918677927E-01  0.51100000000E-03 0.  1.
</event>
<event>
 8    1  0.1042301E+005  0.1043930E+01  0.7957747E-01            NaN
         13   -1    0    0    0    0  0.00000000000E+00  0.00000000000E+00  0.74505805969E-08  0.10566000000E+00  0.10566000000E+00 0. -1.
     999900   -1    0    0    0    0 -0.00000000000E+00 -0.00000000000E+00 -0.74505805969E-08  0.93827000000E+00  0.93827000000E+00 0. -1.
     999902    2    1    2    0    0  0.12331627588E-01 -0.16217474382E-01 -0.99021744805E-02  0.10212776585E+01  0.10210264087E+01 0.  0.
     999903    2    3    3    0    0 -0.26031704718E-01  0.11715324643E+00 -0.44467853002E-01  0.12973165268E+00  0.21222133652E-01 0.  0.
         14    1    1    2    0    0 -0.12331627588E-01  0.16217474382E-01  0.99021744805E-02  0.22652341462E-01  0.00000000000E+00 0. -1.
     999901    1    3    3    0    0  0.38363332305E-01 -0.13337072081E+00  0.34565678521E-01  0.89154600586E+00  0.88000000000E+00 0.  1.
        -11    1    4    4    0    0 -0.60336412901E-02  0.37349058678E-01 -0.40092407637E-02  0.38048549826E-01  0.51100000000E-03 0.  1.
         11    1    4    4    0    0 -0.19998063428E-01  0.79804187749E-01 -0.40458612238E-01  0.91683102851E-01  0.51100000000E-03 0. -1.
</event>
<event>
 8    1  0.1042301E+005  0.1043930E+01  0.7957747E-01            NaN
         13   -1    0    0    0    0  0.00000000000E+00  0.00000000000E+00  0.74505805969E-08  0.10566000000E+00  0.10566000000E+00 0.  1.
     999900   -1    0    0    0    0 -0.00000000000E+00 -0.00000000000E+00 -0.74505805969E-08  0.93827000000E+00  0.93827000000E+00 0. -1.
     999902    2    1    2    0    0  0.58217819493E-02  0.26194843299E-01 -0.28958461464E-02  0.10169402078E+01  0.10165819875E+01 0.  0.
     999903    2    3    3    0    0  0.10264287504E+00 -0.66486111324E-01 -0.25148701812E-01  0.12651375206E+00  0.20428153681E-01 0.  0.
         14    1    1    2    0    0 -0.58217819493E-02 -0.26194843299E-01  0.28958461464E-02  0.26989792245E-01  0.00000000000E+00 0. -1.
     999901    1    3    3    0    0 -0.96821093086E-01  0.92680954624E-01  0.22252855665E-01  0.89042645570E+00  0.88000000000E+00 0. -1.
        -11    1    4    4    0    0  0.24406778165E-01 -0.75939230772E-02 -0.98616468317E-02  0.27402038014E-01  0.51100000000E-03 0. -1.
         11    1    4    4    0    0  0.78236096871E-01 -0.58892188247E-01 -0.15287054980E-01  0.99111714046E-01  0.51100000000E-03 0.  1.
</event>
<event>
 8    1  0.1042301E+005  0.1043930E+01  0.7957747E-01            NaN
         13   -1    0    0    0    0  0.00000000000E+00  0.00000000000E+00  0.74505805969E-08  0.10566000000E+00  0.10566000000E+00 0. -1.
     999900   -1    0    0    0    0 -0.00000000000E+00 -0.00000000000E+00 -0.74505805969E-08  0.93827000000E+00  0.93827000000E+00 0.  1.
     999902    2    1    2    0    0  0.96702320738E-03  0.51759656530E-02 -0.22017565619E-01  0.10212915603E+01  0.10210406222E+01 0.  0.
     999903    2    3    3    0    0  0.34932833907E-01  0.67982136594E-01 -0.10918232688E+00  0.13410725761E+00  0.14903095641E-01 0.  0.
         14    1    1    2    0    0 -0.96702320738E-03 -0.51759656530E-02  0.22017565619E-01  0.22638439657E-01  0.00000000000E+00 0. -1.
     999901    1    3    3    0    0 -0.33965810700E-01 -0.62806170941E-01  0.87164761265E-01  0.88718430273E+00  0.88000000000E+00 0. -1.
        -11    1    4    4    0    0 -0.12952483820E-02  0.48355747068E-02 -0.60877700807E-02  0.78982603573E-02  0.51100000000E-03 0. -1.
         11    1    4    4    0    0  0.36228082289E-01  0.63146561887E-01 -0.10309455680E+00  0.12620899726E+00  0.51100000000E-03 0.  1.
</event>
<event>
 8    1  0.1042301E+005  0.1043930E+01  0.7957747E-01            NaN
         13   -1    0    0    0    0  0.00000000000E+00  0.00000000000E+00  0.74505805969E-08  0.10566000000E+00  0.10566000000E+00 0.  1.
     999900   -1    0    0    0    0 -0.00000000000E+00 -0.00000000000E+00 -0.74505805969E-08  0.93827000000E+00  0.93827000000E+00 0.  1.
     999902    2    1    2    0    0 -0.22907669362E-01 -0.56600305154E-03  0.59250759786E-02  0.10202617047E+01  0.10199871362E+01 0.  0.
     999903    2    3    3    0    0 -0.12618418561E+00 -0.14171381594E-01 -0.23021667689E-01  0.13364506881E+00  0.34752416891E-01 0.  0.
         14    1    1    2    0    0  0.22907669362E-01  0.56600305154E-03 -0.59250759786E-02  0.23668295258E-01  0.00000000000E+00 0.  1.
     999901    1    3    3    0    0  0.10327651625E+00  0.13605378543E-01  0.28946743668E-01  0.88661663593E+00  0.88000000000E+00 0. -1.
        -11    1    4    4    0    0 -0.37630753117E-01 -0.15188893331E-01  0.46805536312E-02  0.40852720399E-01  0.51100000000E-03 0.  1.
         11    1    4    4    0    0 -0.88553432498E-01  0.10175117367E-02 -0.27702221321E-01  0.92792348415E-01  0.51100000000E-03 0. -1.
</event>
<event>
 8    1  0.1042301E+005  0.1043930E+01  0.7957747E-01            NaN
         13   -1    0    0    0    0  0.00000000000E+00  0.00000000000E+00  0.74505805969E-08  0.10566000000E+00  0.10566000000E+00 0.  1.
     999900   -1    0    0    0    0 -0.00000000000E+00 -0.00000000000E+00 -0.74505805969E-08  0.93827000000E+00  0.93827000000E+00 0. -1.
     999902    2    1    2    0    0 -0.10959677716E-01  0.13560814395E-01  0.16302649065E-01  0.10200597970E+01  0.10197804680E+01 0.  0.
     999903    2    3    3    0    0 -0.11275979254E+00  0.61240372949E-01  0.28030148235E-01  0.13283145106E+00  0.19833080660E-01 0.  0.
         14    1    1    2    0    0  0.10959677716E-01 -0.13560814395E-01 -0.16302649065E-01  0.23870202957E-01  0.00000000000E+00 0. -1.
     999901    1    3    3    0    0  0.10180011482E+00 -0.47679558554E-01 -0.11727499171E-01  0.88722834598E+00  0.88000000000E+00 0.  1.
        -11    1    4    4    0    0 -0.36811189651E-01  0.30664597712E-01  0.85093786008E-02  0.48662633319E-01  0.51100000000E-03 0. -1.
         11    1    4    4    0    0 -0.75948602884E-01  0.30575775237E-01  0.19520769635E-01  0.84168817739E-01  0.51100000000E-03 0.  1.
</event>
<event>
 8    1  0.1042301E+005  0.1043930E+01  0.7957747E-01            NaN
         13   -1    0    0    0    0  0.00000000000E+00  0.00000000000E+00  0.74505805969E-08  0.10566000000E+00  0.10566000000E+00 0.  1.
     999900   -1    0    0    0    0 -0.00000000000E+00 -0.00000000000E+00 -0.74505805969E-08  0.93827000000E+00  0.93827000000E+00 0. -1.
     999902    2    1    2    0    0  0.16224139062E-01 -0.11375316684E-01  0.12383957595E-01  0.10205637225E+01  0.10202961966E+01 0.  0.
     999903    2    3    3    0    0 -0.20604205036E-01  0.81858602780E-01  0.97842703258E-01  0.13075920023E+00  0.19985238275E-01 0.  0.
         14    1    1    2    0    0 -0.16224139062E-01  0.11375316684E-01 -0.12383957595E-01  0.23366277488E-01  0.00000000000E+00 0. -1.
     999901    1    3    3    0    0  0.36828344097E-01 -0.93233919464E-01 -0.85458745664E-01  0.88980452228E+00  0.88000000000E+00 0. -1.
        -11    1    4    4    0    0 -0.15951184678E-01  0.47102690133E-01  0.70567169363E-01  0.86331281835E-01  0.51100000000E-03 0.  1.
         11    1    4    4    0    0 -0.46530203571E-02  0.34755912647E-01  0.27275533895E-01  0.44427918392E-01  0.51100000000E-03 0. -1.
</event>
<event>
 8    1  0.1042301E+005  0.1043930E+01  0.7957747E-01            NaN
         13   -1    0    0    0    0  0.00000000000E+00  0.00000000000E+00  0.74505805969E-08  0.10566000000E+00  0.10566000000E+00 0.  1.
     999900   -1    0    0    0    0 -0.00000000000E+00 -0.00000000000E+00 -0.74505805969E-08  0.93827000000E+00  0.93827000000E+00 0. -1.
     999902    2    1    2    0    0 -0.22401190081E-01  0.59101213477E-02  0.74176403976E-02  0.10196037952E+01  0.10193135607E+01 0.  0.
     999903    2    3    3    0    0  0.54403781439E-02 -0.80022340406E-01 -0.98660550868E-01  0.12864244723E+00  0.19539760805E-01 0.  0.
         14    1    1    2    0    0  0.22401190081E-01 -0.59101213477E-02 -0.74176403976E-02  0.24326204810E-01  0.00000000000E+00 0. -1.
     999901    1    3    3    0    0 -0.27841568224E-01  0.85932461754E-01  0.10607819127E+00  0.89096134796E+00  0.88000000000E+00 0.  1.
        -11    1    4    4    0    0  0.41287117102E-02 -0.55454147013E-01 -0.81407956532E-01  0.98588666636E-01  0.51100000000E-03 0. -1.
         11    1    4    4    0    0  0.13116664337E-02 -0.24568193394E-01 -0.17252594336E-01  0.30053780590E-01  0.51100000000E-03 0.  1.
</event>
<event>
 8    1  0.1042301E+005  0.1043930E+01  0.7957747E-01            NaN
         13   -1    0    0    0    0  0.00000000000E+00  0.00000000000E+00  0.74505805969E-08  0.10566000000E+00  0.10566000000E+00 0. -1.
     999900   -1    0    0    0    0 -0.00000000000E+00 -0.00000000000E+00 -0.74505805969E-08  0.93827000000E+00  0.93827000000E+00 0.  1.
     999902    2    1    2    0    0  0.85426425063E-02 -0.87055183081E-03 -0.23549239892E-01  0.10188640609E+01  0.10185556801E+01 0.  0.
     999903    2    3    3    0    0 -0.11046370305E+00 -0.40251268707E-01  0.43487194146E-01  0.12745661503E+00  0.23057717470E-01 0.  0.
         14    1    1    2    0    0 -0.85426425063E-02  0.87055183081E-03  0.23549239892E-01  0.25065939060E-01  0.00000000000E+00 0. -1.
     999901    1    3    3    0    0  0.11900634556E+00  0.39380716876E-01 -0.67036434038E-01  0.89140744592E+00  0.88000000000E+00 0.  1.
        -11    1    4    4    0    0 -0.46545801717E-01 -0.51522830094E-02  0.15161409892E-01  0.49225878850E-01  0.51100000000E-03 0. -1.
         11    1    4    4    0    0 -0.63917901333E-01 -0.35098985698E-01  0.28325784254E-01  0.78230736175E-01  0.51100000000E-03 0.  1.
</event>
<event>
 8    1  0.1042301E+005  0.1043930E+01  0.7957747E-01            NaN
         13   -1    0    0    0    0  0.00000000000E+00  0.00000000000E+00  0.74505805969E-08  0.10566000000E+00  0.10566000000E+00 0.  1.
     999900   -1    0    0    0    0 -0.00000000000E+00 -0.00000000000E+00 -0.74505805969E-08  0.93827000000E+00  0.93827000000E+00 0. -1.
     999902    2    1    2    0    0  0.94762645965E-02 -0.69606438812E-02  0.20780954373E-01  0.10200532704E+01  0.10197737867E+01 0.  0.
     999903    2    3    3    0    0  0.69745522432E-02  0.63727645010E-01 -0.10876364297E+00  0.12776133637E+00  0.19584992230E-01 0.  0.
         14    1    1    2    0    0 -0.94762645965E-02  0.69606438812E-02 -0.20780954373E-01  0.23876729646E-01  0.00000000000E+00 0. -1.
     999901    1    3    3    0    0  0.25017123533E-02 -0.70688288891E-01  0.12954459735E+00  0.89229193398E+00  0.88000000000E+00 0.  1.
        -11    1    4    4    0    0 -0.11343975086E-03  0.57684030487E-01 -0.94623679574E-01  0.11082130706E+00  0.51100000000E-03 0. -1.
         11    1    4    4    0    0  0.70879919940E-02  0.60436145226E-02 -0.14139963399E-01  0.16940029308E-01  0.51100000000E-03 0.  1.
</event>
<event>
 8    1  0.1042301E+005  0.1043930E+01  0.7957747E-01            NaN
         13   -1    0    0    0    0  0.00000000000E+00  0.00000000000E+00  0.74505805969E-08  0.10566000000E+00  0.10566000000E+00 0.  1.
     999900   -1    0    0    0    0 -0.00000000000E+00 -0.00000000000E+00 -0.74505805969E-08  0.93827000000E+00  0.93827000000E+00 0. -1.
     999902    2    1    2    0    0  0.47096166525E-02  0.92009275619E-03  0.23124785142E-01  0.10203125753E+01  0.10200391996E+01 0.  0.
     999903    2    3    3    0    0 -0.41697512900E-01 -0.11481780789E+00  0.43682643763E-01  0.13128416810E+00  0.20138218324E-01 0.  0.
         14    1    1    2    0    0 -0.47096166525E-02 -0.92009275619E-03 -0.23124785142E-01  0.23617424660E-01  0.00000000000E+00 0. -1.
     999901    1    3    3    0    0  0.46407129553E-01  0.11573790065E+00 -0.20557858621E-01  0.88902840724E+00  0.88000000000E+00 0. -1.
        -11    1    4    4    0    0 -0.13713288243E-01 -0.26440443780E-01  0.26547672669E-02  0.29907528349E-01  0.51100000000E-03 0.  1.
         11    1    4    4    0    0 -0.27984224658E-01 -0.88377364115E-01  0.41027876496E-01  0.10137663976E+00  0.51100000000E-03 0. -1.
</event>
<event>
 8    1  0.1042301E+005  0.1043930E+01  0.7957747E-01            NaN
         13   -1    0    0    0    0  0.00000000000E+00  0.00000000000E+00  0.74505805969E-08  0.10566000000E+00  0.10566000000E+00 0.  1.
     999900   -1    0    0    0    0 -0.00000000000E+00 -0.00000000000E+00 -0.74505805969E-08  0.93827000000E+00  0.93827000000E+00 0.  1.
     999902    2    1    2    0    0 -0.10983761038E-01  0.16539394312E-01  0.13661889739E-01  0.10198293402E+01  0.10195445264E+01 0.  0.
     999903    2    3    3    0    0 -0.62642026208E-01 -0.90602076878E-01  0.66732954321E-01  0.13024268952E+00  0.19419351120E-01 0.  0.
         14    1    1    2    0    0  0.10983761038E-01 -0.16539394312E-01 -0.13661889739E-01  0.24100659783E-01  0.00000000000E+00 0. -1.
     999901    1    3    3    0    0  0.51658265169E-01  0.10714147119E+00 -0.53071064582E-01  0.88958665070E+00  0.88000000000E+00 0.  1.
        -11    1    4    4    0    0 -0.33499448599E-01 -0.36699825829E-01  0.21842680000E-01  0.54281249644E-01  0.51100000000E-03 0. -1.
         11    1    4    4    0    0 -0.29142577609E-01 -0.53902251048E-01  0.44890274321E-01  0.75961439872E-01  0.51100000000E-03 0.  1.
</event>
<event>
 8    1  0.1042301E+005  0.1043930E+01  0.7957747E-01            NaN
         13   -1    0    0    0    0  0.00000000000E+00  0.00000000000E+00  0.74505805969E-08  0.10566000000E+00  0.10566000000E+00 0.  1.
     999900   -1    0    0    0    0 -0.00000000000E+00 -0.00000000000E+00 -0.74505805969E-08  0.93827000000E+00  0.93827000000E+00 0. -1.
     999902    2    1    2    0    0 -0.17324704767E-01 -0.16066931763E-01 -0.14767291650E-02  0.10202557013E+01  0.10199809918E+01 0.  0.
     999903    2    3    3    0    0 -0.49104201508E-01  0.31154392470E-01  0.11530509987E+00  0.13071773947E+00  0.20249508197E-01 0.  0.
         14    1    1    2    0    0  0.17324704767E-01  0.16066931763E-01  0.14767291650E-02  0.23674298735E-01  0.00000000000E+00 0.  1.
     999901    1    3    3    0    0  0.31779496741E-01 -0.47221324233E-01 -0.11678182903E+00  0.88953796179E+00  0.88000000000E+00 0. -1.
        -11    1    4    4    0    0 -0.42868530086E-01  0.20305467105E-01  0.77224245264E-01  0.90630392495E-01  0.51100000000E-03 0.  1.
         11    1    4    4    0    0 -0.62356714220E-02  0.10848925365E-01  0.38080854602E-01  0.40087346980E-01  0.51100000000E-03 0. -1.
</event>
<event>
 8    1  0.1042301E+005  0.1043930E+01  0.7957747E-01            NaN
         13   -1    0    0    0    0  0.00000000000E+00  0.00000000000E+00  0.74505805969E-08  0.10566000000E+00  0.10566000000E+00 0. -1.
     999900   -1    0    0    0    0 -0.00000000000E+00 -0.00000000000E+00 -0.74505805969E-08  0.93827000000E+00  0.93827000000E+00 0.  1.
     999902    2    1    2    0    0 -0.98699614191E-02 -0.20521877092E-01 -0.44982989110E-02  0.10207179714E+01  0.10204540063E+01 0.  0.
     999903    2    3    3    0    0 -0.98441912796E-01 -0.88353368792E-01  0.64406305962E-02  0.13360706403E+00  0.17670253622E-01 0.  0.
         14    1    1    2    0    0  0.98699614191E-02  0.20521877092E-01  0.44982989110E-02  0.23212028582E-01  0.00000000000E+00 0.  1.
     999901    1    3    3    0    0  0.88571951377E-01  0.67831491700E-01 -0.10938929507E-01  0.88711090739E+00  0.88000000000E+00 0.  1.
        -11    1    4    4    0    0 -0.48205339875E-01 -0.44847010633E-01  0.11957077752E-01  0.66919668144E-01  0.51100000000E-03 0.  1.
         11    1    4    4    0    0 -0.50236572921E-01 -0.43506358159E-01 -0.55164471560E-02  0.66687395881E-01  0.51100000000E-03 0. -1.
</event>
<event>
 8    1  0.1042301E+005  0.1043930E+01  0.7957747E-01            NaN
         13   -1    0    0    0    0  0.00000000000E+00  0.00000000000E+00  0.74505805969E-08  0.10566000000E+00  0.10566000000E+00 0.  1.
     999900   -1    0    0    0    0 -0.00000000000E+00 -0.00000000000E+00 -0.74505805969E-08  0.93827000000E+00  0.93827000000E+00 0.  1.
     999902    2    1    2    0    0  0.19187951204E-01 -0.11232964851E-01  0.76414678342E-02  0.10204193853E+01  0.10201485054E+01 0.  0.
     999903    2    3    3    0    0 -0.58639752473E-02  0.55492898648E-01  0.11517986277E+00  0.13101259076E+00  0.28000895394E-01 0.  0.
         14    1    1    2    0    0 -0.19187951204E-01  0.11232964851E-01 -0.76414678342E-02  0.23510614654E-01  0.00000000000E+00 0. -1.
     999901    1    3    3    0    0  0.25051926452E-01 -0.66725863499E-01 -0.10753839493E+00  0.88940679459E+00  0.88000000000E+00 0.  1.
        -11    1    4    4    0    0 -0.14520304696E-01  0.21297089297E-01  0.35514743049E-01  0.43885799023E-01  0.51100000000E-03 0. -1.
         11    1    4    4    0    0  0.86563294488E-02  0.34195809351E-01  0.79665119719E-01  0.87126791732E-01  0.51100000000E-03 0.  1.
</event>
<event>
 8    1  0.1042301E+005  0.1043930E+01  0.7957747E-01            NaN
         13   -1    0    0    0    0  0.00000000000E+00  0.00000000000E+00  0.74505805969E-08  0.10566000000E+00  0.10566000000E+00 0.  1.
     999900   -1    0    0    0    0 -0.00000000000E+00 -0.00000000000E+00 -0.74505805969E-08  0.93827000000E+00  0.93827000000E+00 0.  1.
     999902    2    1    2    0    0  0.12072597620E-01 -0.11110170249E-01  0.17069675781E-01  0.10202539081E+01  0.10199791565E+01 0.  0.
     999903    2    3    3    0    0 -0.16127127967E-02  0.10064498802E+00  0.81034074788E-01  0.13077768725E+00  0.20106410663E-01 0.  0.
         14    1    1    2    0    0 -0.12072597620E-01  0.11110170249E-01 -0.17069675781E-01  0.23676091897E-01  0.00000000000E+00 0. -1.
     999901    1    3    3    0    0  0.13685310417E-01 -0.11175515827E+00 -0.63964399007E-01  0.88947622085E+00  0.88000000000E+00 0.  1.
        -11    1    4    4    0    0  0.27195925795E-03  0.83272745765E-02  0.15308770262E-01  0.17436657697E-01  0.51100000000E-03 0. -1.
         11    1    4    4    0    0 -0.18846720546E-02  0.92317713444E-01  0.65725304526E-01  0.11334102955E+00  0.51100000000E-03 0.  1.
</event>
<event>
 8    1  0.1042301E+005  0.1043930E+01  0.7957747E-01            NaN
         13   -1    0    0    0    0  0.00000000000E+00  0.00000000000E+00  0.74505805969E-08  0.10566000000E+00  0.10566000000E+00 0. -1.
     999900   -1    0    0    0    0 -0.00000000000E+00 -0.00000000000E+00 -0.74505805969E-08  0.93827000000E+00  0.93827000000E+00 0.  1.
     999902    2    1    2    0    0  0.20423053829E-01  0.45928852719E-02 -0.10350979195E-01  0.10205775163E+01  0.10203103098E+01 0.  0.
     999903    2    3    3    0    0 -0.65281740771E-01  0.96526884574E-01 -0.55327800597E-01  0.13051005457E+00  0.19813220338E-01 0.  0.
         14    1    1    2    0    0 -0.20423053829E-01 -0.45928852719E-02  0.10350979195E-01  0.23352483661E-01  0.00000000000E+00 0. -1.
     999901    1    3    3    0    0  0.85704794600E-01 -0.91933999302E-01  0.44976821402E-01  0.89006746177E+00  0.88000000000E+00 0. -1.
        -11    1    4    4    0    0 -0.43826887930E-01  0.51166412525E-01 -0.24912628195E-01  0.71831038144E-01  0.51100000000E-03 0.  1.
         11    1    4    4    0    0 -0.21454852841E-01  0.45360472049E-01 -0.30415172402E-01  0.58679016422E-01  0.51100000000E-03 0. -1.
</event>
<event>
 8    1  0.1042301E+005  0.1043930E+01  0.7957747E-01            NaN
         13   -1    0    0    0    0  0.00000000000E+00  0.00000000000E+00  0.74505805969E-08  0.10566000000E+00  0.10566000000E+00 0. -1.
     999900   -1    0    0    0    0 -0.00000000000E+00 -0.00000000000E+00 -0.74505805969E-08  0.93827000000E+00  0.93827000000E+00 0. -1.
     999902    2    1    2    0    0  0.72791598455E-02  0.63845860541E-02  0.20638446668E-01  0.10211331891E+01  0.10208786878E+01 0.  0.
     999903    2    3    3    0    0 -0.33905935811E-01 -0.53344020437E-01  0.11522640505E+00  0.13309568964E+00  0.21027153448E-01 0.  0.
         14    1    1    2    0    0 -0.72791598455E-02 -0.63845860541E-02 -0.20638446668E-01  0.22796810918E-01  0.00000000000E+00 0.  1.
     999901    1    3    3    0    0  0.41185095656E-01  0.59728606491E-01 -0.94587958380E-01  0.88803749944E+00  0.88000000000E+00 0. -1.
        -11    1    4    4    0    0 -0.10885173444E-01 -0.28351986513E-01  0.37448288306E-01  0.48217813702E-01  0.51100000000E-03 0.  1.
         11    1    4    4    0    0 -0.23020762367E-01 -0.24992033924E-01  0.77778116742E-01  0.84877875943E-01  0.51100000000E-03 0. -1.
</event>
<event>
 8    1  0.1042301E+005  0.1043930E+01  0.7957747E-01            NaN
         13   -1    0    0    0    0  0.00000000000E+00  0.00000000000E+00  0.74505805969E-08  0.10566000000E+00  0.10566000000E+00 0. -1.
     999900   -1    0    0    0    0 -0.00000000000E+00 -0.00000000000E+00 -0.74505805969E-08  0.93827000000E+00  0.93827000000E+00 0. -1.
     999902    2    1    2    0    0  0.20214123920E-01 -0.10461222420E-01 -0.54912732368E-02  0.10205162847E+01  0.10202476588E+01 0.  0.
     999903    2    3    3    0    0  0.91441398412E-02  0.36745758115E-02 -0.12971860159E+00  0.13160976860E+00  0.19927312642E-01 0.  0.
         14    1    1    2    0    0 -0.20214123920E-01  0.10461222420E-01  0.54912732368E-02  0.23413715257E-01  0.00000000000E+00 0.  1.
     999901    1    3    3    0    0  0.11069984079E-01 -0.14135798231E-01  0.12422732836E+00  0.88890651615E+00  0.88000000000E+00 0.  1.
        -11    1    4    4    0    0 -0.50155944613E-02  0.56372273129E-02 -0.56812958788E-01  0.57314116296E-01  0.51100000000E-03 0.  1.
         11    1    4    4    0    0  0.14159734302E-01 -0.19626515014E-02 -0.72905642807E-01  0.74295652299E-01  0.51100000000E-03 0. -1.
</event>
<event>
 8    1  0.1042301E+005  0.1043930E+01  0.7957747E-01            NaN
         13   -1    0    0    0    0  0.00000000000E+00  0.00000000000E+00  0.74505805969E-08  0.10566000000E+00  0.10566000000E+00 0. -1.
     999900   -1    0    0    0    0 -0.00000000000E+00 -0.00000000000E+00 -0.74505805969E-08  0.93827000000E+00  0.93827000000E+00 0. -1.
     999902    2    1    2    0    0  0.74695917211E-02 -0.12486767714E-01 -0.18161947401E-01  0.10206583326E+01  0.10203929936E+01 0.  0.
     999903    2    3    3    0    0 -0.12013461091E+00 -0.46262189427E-01 -0.11355391805E-01  0.13078758874E+00  0.20098097853E-01 0.  0.
         14    1    1    2    0    0 -0.74695917211E-02  0.12486767714E-01  0.18161947401E-01  0.23271667363E-01  0.00000000000E+00 0. -1.
     999901    1    3    3    0    0  0.12760420263E+00  0.33775421713E-01 -0.68065555967E-02  0.88987074389E+00  0.88000000000E+00 0. -1.
        -11    1    4    4    0    0 -0.61252354942E-01 -0.13172754909E-01 -0.29818422573E-02  0.62725791841E-01  0.51100000000E-03 0. -1.
         11    1    4    4    0    0 -0.58882255967E-01 -0.33089434518E-01 -0.83735495473E-02  0.68061796901E-01  0.51100000000E-03 0.  1.
</event>
<event>
 8    1  0.1042301E+005  0.1043930E+01  0.7957747E-01            NaN
         13   -1    0    0    0    0  0.00000000000E+00  0.00000000000E+00  0.74505805969E-08  0.10566000000E+00  0.10566000000E+00 0.  1.
     999900   -1    0    0    0    0 -0.00000000000E+00 -0.00000000000E+00 -0.74505805969E-08  0.93827000000E+00  0.93827000000E+00 0.  1.
     999902    2    1    2    0    0  0.18874011073E-01  0.11472161649E-01  0.76987102488E-02  0.10205396403E+01  0.10202715563E+01 0.  0.
     999903    2    3    3    0    0 -0.33470192550E-02 -0.75518081962E-01  0.10482281102E+00  0.13065528399E+00  0.19204121503E-01 0.  0.
         14    1    1    2    0    0 -0.18874011073E-01 -0.11472161649E-01 -0.76987102488E-02  0.23390359689E-01  0.00000000000E+00 0. -1.
     999901    1    3    3    0    0  0.22221030328E-01  0.86990243610E-01 -0.97124100775E-01  0.88988435632E+00  0.88000000000E+00 0.  1.
        -11    1    4    4    0    0  0.42014592535E-02 -0.48261275991E-01  0.54443474444E-01  0.72877678687E-01  0.51100000000E-03 0. -1.
         11    1    4    4    0    0 -0.75484785085E-02 -0.27256805970E-01  0.50379336580E-01  0.57777605304E-01  0.51100000000E-03 0.  1.
</event>
<event>
 8    1  0.1042301E+005  0.1043930E+01  0.7957747E-01            NaN
         13   -1    0    0    0    0  0.00000000000E+00  0.00000000000E+00  0.74505805969E-08  0.10566000000E+00  0.10566000000E+00 0.  1.
     999900   -1    0    0    0    0 -0.00000000000E+00 -0.00000000000E+00 -0.74505805969E-08  0.93827000000E+00  0.93827000000E+00 0.  1.
     999902    2    1    2    0    0 -0.69846367610E-02  0.38318624128E-02 -0.22007684208E-01  0.10205247338E+01  0.10202563040E+01 0.  0.
     999903    2    3    3    0    0  0.38927346088E-01  0.16709744779E-01  0.11908545966E+00  0.12801085424E+00  0.20270132111E-01 0.  0.
         14    1    1    2    0    0  0.69846367610E-02 -0.38318624128E-02  0.22007684208E-01  0.23405266169E-01  0.00000000000E+00 0.  1.
     999901    1    3    3    0    0 -0.45911982849E-01 -0.12877882366E-01 -0.14109314387E+00  0.89251387960E+00  0.88000000000E+00 0.  1.
        -11    1    4    4    0    0  0.36705340006E-01  0.13752989970E-01  0.83655362725E-01  0.92384563384E-01  0.51100000000E-03 0.  1.
         11    1    4    4    0    0  0.22220060820E-02  0.29567548089E-02  0.35430096935E-01  0.35626290852E-01  0.51100000000E-03 0. -1.
</event>
<event>
 8    1  0.1042301E+005  0.1043930E+01  0.7957747E-01            NaN
         13   -1    0    0    0    0  0.00000000000E+00  0.00000000000E+00  0.74505805969E-08  0.10566000000E+00  0.10566000000E+00 0. -1.
     999900   -1    0    0    0    0 -0.00000000000E+00 -0.00000000000E+00 -0.74505805969E-08  0.93827000000E+00  0.93827000000E+00 0. -1.
     999902    2    1    2    0    0 -0.13053538650E-01  0.17425994052E-02  0.19277478552E-01  0.10205836362E+01  0.10203165713E+01 0.  0.
     999903    2    3    3    0    0  0.71434484077E-01  0.10695979149E+00 -0.75769280514E-02  0.12989286906E+00  0.16476197457E-01 0.  0.
         14    1    1    2    0    0  0.13053538650E-01 -0.17425994052E-02 -0.19277478552E-01  0.23346363814E-01  0.00000000000E+00 0.  1.
     999901    1    3    3    0    0 -0.84488022727E-01 -0.10521719208E+00  0.26854406604E-01  0.89069076713E+00  0.88000000000E+00 0.  1.
        -11    1    4    4    0    0  0.37510874629E-01  0.70466582692E-01 -0.37536247597E-02  0.79918432239E-01  0.51100000000E-03 0. -1.
         11    1    4    4    0    0  0.33923609448E-01  0.36493208797E-01 -0.38233032916E-02  0.49974436819E-01  0.51100000000E-03 0.  1.
</event>
<event>
 8    1  0.1042301E+005  0.1043930E+01  0.7957747E-01            NaN
         13   -1    0    0    0    0  0.00000000000E+00  0.00000000000E+00  0.74505805969E-08  0.10566000000E+00  0.10566000000E+00 0. -1.
     999900   -1    0    0    0    0 -0.00000000000E+00 -0.00000000000E+00 -0.74505805969E-08  0.93827000000E+00  0.93827000000E+00 0. -1.
     999902    2    1    2    0    0  0.99275688352E-02 -0.92901872285E-02 -0.28664603670E-01  0.10122042422E+01  0.10117069261E+01 0.  0.
     999903    2    3    3    0    0  0.13682978449E-02 -0.12190857983E+00  0.11012999444E-01  0.12409925089E+00  0.20390287890E-01 0.  0.
         14    1    1    2    0    0 -0.99275688352E-02  0.92901872285E-02  0.28664603670E-01  0.31725757758E-01  0.00000000000E+00 0. -1.
     999901    1    3    3    0    0  0.85592709902E-02  0.11261839260E+00 -0.39677603115E-01  0.88810499135E+00  0.88000000000E+00 0.  1.
        -11    1    4    4    0    0 -0.22450889090E-03 -0.59847186939E-01 -0.47729877780E-02  0.60039809477E-01  0.51100000000E-03 0. -1.
         11    1    4    4    0    0  0.15928067358E-02 -0.62061392890E-01  0.15785987222E-01  0.64059441415E-01  0.51100000000E-03 0.  1.
</event>
<event>
 8    1  0.1042301E+005  0.1043930E+01  0.7957747E-01            NaN
         13   -1    0    0    0    0  0.00000000000E+00  0.00000000000E+00  0.74505805969E-08  0.10566000000E+00  0.10566000000E+00 0. -1.
     999900   -1    0    0    0    0 -0.00000000000E+00 -0.00000000000E+00 -0.74505805969E-08  0.93827000000E+00  0.93827000000E+00 0. -1.
     999902    2    1    2    0    0  0.92422851117E-02  0.12688582357E-01 -0.17231565271E-01  0.10206201995E+01  0.10203539802E+01 0.  0.
     999903    2    3    3    0    0 -0.36817628868E-01 -0.90832449548E-01  0.79860142975E-01  0.12805932232E+00  0.20383226177E-01 0.  0.
         14    1    1    2    0    0 -0.92422851117E-02 -0.12688582357E-01  0.17231565271E-01  0.23309800471E-01  0.00000000000E+00 0.  1.
     999901    1    3    3    0    0  0.46059913980E-01  0.10352103191E+00 -0.97091708246E-01  0.89256087721E+00  0.88000000000E+00 0. -1.
        -11    1    4    4    0    0 -0.31185806139E-01 -0.57205314793E-01  0.60139915856E-01  0.88668332257E-01  0.51100000000E-03 0. -1.
         11    1    4    4    0    0 -0.56318227288E-02 -0.33627134756E-01  0.19720227119E-01  0.39390990058E-01  0.51100000000E-03 0.  1.
</event>
<event>
 8    1  0.1042301E+005  0.1043930E+01  0.7957747E-01            NaN
         13   -1    0    0    0    0  0.00000000000E+00  0.00000000000E+00  0.74505805969E-08  0.10566000000E+00  0.10566000000E+00 0. -1.
     999900   -1    0    0    0    0 -0.00000000000E+00 -0.00000000000E+00 -0.74505805969E-08  0.93827000000E+00  0.93827000000E+00 0. -1.
     999902    2    1    2    0    0 -0.54675255941E-02  0.17566364809E-01  0.15830002274E-01  0.10196594421E+01  0.10193705498E+01 0.  0.
     999903    2    3    3    0    0 -0.12542459324E+00  0.25674219807E-01 -0.20156816709E-01  0.13075534911E+00  0.17325412246E-01 0.  0.
         14    1    1    2    0    0  0.54675255941E-02 -0.17566364809E-01 -0.15830002274E-01  0.24270557899E-01  0.00000000000E+00 0.  1.
     999901    1    3    3    0    0  0.11995706765E+00 -0.81078549972E-02  0.35986818983E-01  0.88890409299E+00  0.88000000000E+00 0. -1.
        -11    1    4    4    0    0 -0.40131848209E-01  0.66512515844E-02 -0.14475258773E-01  0.43180998435E-01  0.51100000000E-03 0. -1.
         11    1    4    4    0    0 -0.85292745031E-01  0.19022968222E-01 -0.56815579359E-02  0.87574350677E-01  0.51100000000E-03 0.  1.
</event>
<event>
 8    1  0.1042301E+005  0.1043930E+01  0.7957747E-01            NaN
         13   -1    0    0    0    0  0.00000000000E+00  0.00000000000E+00  0.74505805969E-08  0.10566000000E+00  0.10566000000E+00 0.  1.
     999900   -1    0    0    0    0 -0.00000000000E+00 -0.00000000000E+00 -0.74505805969E-08  0.93827000000E+00  0.93827000000E+00 0.  1.
     999902    2    1    2    0    0  0.13963245198E-01  0.50935485798E-02  0.17835079190E-01  0.10207134864E+01  0.10204494181E+01 0.  0.
     999903    2    3    3    0    0 -0.10315898035E+00 -0.51634416936E-01 -0.52069527300E-01  0.12840057504E+00  0.21623685133E-01 0.  0.
         14    1    1    2    0    0 -0.13963245198E-01 -0.50935485798E-02 -0.17835079190E-01  0.23216513591E-01  0.00000000000E+00 0. -1.
     999901    1    3    3    0    0  0.11712222554E+00  0.56727965516E-01  0.69904606491E-01  0.89231291137E+00  0.88000000000E+00 0. -1.
        -11    1    4    4    0    0 -0.80409260210E-01 -0.48388932322E-01 -0.46564810404E-01  0.10476488242E+00  0.51100000000E-03 0. -1.
         11    1    4    4    0    0 -0.22749720136E-01 -0.32454846142E-02 -0.55047168966E-02  0.23635692623E-01  0.51100000000E-03 0.  1.
</event>
<event>
 8    1  0.1042301E+005  0.1043930E+01  0.7957747E-01            NaN
         13   -1    0    0    0    0  0.00000000000E+00  0.00000000000E+00  0.74505805969E-08  0.10566000000E+00  0.10566000000E+00 0. -1.
     999900   -1    0    0    0    0 -0.00000000000E+00 -0.00000000000E+00 -0.74505805969E-08  0.93827000000E+00  0.93827000000E+00 0. -1.
     999902    2    1    2    0    0  0.42092144378E-02  0.11900061717E-01 -0.18190310235E-01  0.10217891703E+01  0.10215492607E+01 0.  0.
     999903    2    3    3    0    0  0.53299466634E-01 -0.11632766896E+00  0.16607775507E-01  0.13046256876E+00  0.19279624793E-01 0.  0.
         14    1    1    2    0    0 -0.42092144378E-02 -0.11900061717E-01  0.18190310235E-01  0.22140829738E-01  0.00000000000E+00 0. -1.
     999901    1    3    3    0    0 -0.49090252197E-01  0.12822773067E+00 -0.34798085742E-01  0.89132660150E+00  0.88000000000E+00 0. -1.
        -11    1    4    4    0    0  0.40852751049E-01 -0.95406986628E-01  0.61671904952E-02  0.10396987893E+00  0.51100000000E-03 0.  1.
         11    1    4    4    0    0  0.12446715585E-01 -0.20920682327E-01  0.10440585012E-01  0.26492689827E-01  0.51100000000E-03 0. -1.
</event>
<event>
 8    1  0.1042301E+005  0.1043930E+01  0.7957747E-01            NaN
         13   -1    0    0    0    0  0.00000000000E+00  0.00000000000E+00  0.74505805969E-08  0.10566000000E+00  0.10566000000E+00 0.  1.
     999900   -1    0    0    0    0 -0.00000000000E+00 -0.00000000000E+00 -0.74505805969E-08  0.93827000000E+00  0.93827000000E+00 0.  1.
     999902    2    1    2    0    0  0.26126245480E-01 -0.10887044624E-01  0.16328267988E-01  0.10112540030E+01  0.10107259460E+01 0.  0.
     999903    2    3    3    0    0  0.11590883259E+00 -0.21558064298E-01  0.40495001394E-01  0.12629139668E+00  0.20250040186E-01 0.  0.
         14    1    1    2    0    0 -0.26126245480E-01  0.10887044624E-01 -0.16328267988E-01  0.32675996986E-01  0.00000000000E+00 0. -1.
     999901    1    3    3    0    0 -0.89782587113E-01  0.10671019675E-01 -0.24166733406E-01  0.88496260634E+00  0.88000000000E+00 0. -1.
        -11    1    4    4    0    0  0.86532747386E-01 -0.80778572826E-02  0.33973766149E-01  0.93314768691E-01  0.51100000000E-03 0.  1.
         11    1    4    4    0    0  0.29376085207E-01 -0.13480207016E-01  0.65212352451E-02  0.32976627987E-01  0.51100000000E-03 0. -1.
</event>
<event>
 8    1  0.1042301E+005  0.1043930E+01  0.7957747E-01            NaN
         13   -1    0    0    0    0  0.00000000000E+00  0.00000000000E+00  0.74505805969E-08  0.10566000000E+00  0.10566000000E+00 0.  1.
     999900   -1    0    0    0    0 -0.00000000000E+00 -0.00000000000E+00 -0.74505805969E-08  0.93827000000E+00  0.93827000000E+00 0. -1.
     999902    2    1    2    0    0  0.51640700705E-02  0.52698938521E-02 -0.20047008753E-01  0.10225683062E+01  0.10223451565E+01 0.  0.
     999903    2    3    3    0    0 -0.12973366255E+00 -0.12769090499E-01 -0.15523658883E-02  0.13191413370E+00  0.20126002067E-01 0.  0.
         14    1    1    2    0    0 -0.51640700705E-02 -0.52698938521E-02  0.20047008753E-01  0.21361693772E-01  0.00000000000E+00 0.  1.
     999901    1    3    3    0    0  0.13489773262E+00  0.18038984351E-01 -0.18494642864E-01  0.89065417253E+00  0.88000000000E+00 0. -1.
        -11    1    4    4    0    0 -0.66211136470E-01 -0.15947426293E-01 -0.43806129424E-02  0.68247240888E-01  0.51100000000E-03 0.  1.
         11    1    4    4    0    0 -0.63522526081E-01  0.31783357938E-02  0.28282470541E-02  0.63666892814E-01  0.51100000000E-03 0. -1.
</event>
<event>
 8    1  0.1042301E+005  0.1043930E+01  0.7957747E-01            NaN
         13   -1    0    0    0    0  0.00000000000E+00  0.00000000000E+00  0.74505805969E-08  0.10566000000E+00  0.10566000000E+00 0. -1.
     999900   -1    0    0    0    0 -0.00000000000E+00 -0.00000000000E+00 -0.74505805969E-08  0.93827000000E+00  0.93827000000E+00 0.  1.
     999902    2    1    2    0    0  0.79028690056E-02  0.54092314170E-02  0.21787991223E-01  0.10201301747E+01  0.10198525097E+01 0.  0.
     999903    2    3    3    0    0 -0.12506623083E+00  0.41961338523E-02  0.29460388272E-01  0.13010707455E+00  0.20019159272E-01 0.  0.
         14    1    1    2    0    0 -0.79028690056E-02 -0.54092314170E-02 -0.21787991223E-01  0.23799825305E-01  0.00000000000E+00 0.  1.
     999901    1    3    3    0    0  0.13296909983E+00  0.12130975648E-02 -0.76723970489E-02  0.89002310015E+00  0.88000000000E+00 0. -1.
        -11    1    4    4    0    0 -0.78660124547E-01 -0.26083397552E-03  0.89403722262E-02  0.79168646601E-01  0.51100000000E-03 0.  1.
         11    1    4    4    0    0 -0.46406106281E-01  0.44569678278E-02  0.20520016045E-01  0.50938427948E-01  0.51100000000E-03 0. -1.
</event>
<event>
 8    1  0.1042301E+005  0.1043930E+01  0.7957747E-01            NaN
         13   -1    0    0    0    0  0.00000000000E+00  0.00000000000E+00  0.74505805969E-08  0.10566000000E+00  0.10566000000E+00 0. -1.
     999900   -1    0    0    0    0 -0.00000000000E+00 -0.00000000000E+00 -0.74505805969E-08  0.93827000000E+00  0.93827000000E+00 0.  1.
     999902    2    1    2    0    0  0.21455147223E-01  0.87815448025E-02  0.91943099223E-03  0.10207290469E+01  0.10204653365E+01 0.  0.
     999903    2    3    3    0    0  0.45091463715E-01 -0.10820469517E+00 -0.52121717493E-01  0.13108989576E+00  0.26951645240E-01 0.  0.
         14    1    1    2    0    0 -0.21455147223E-01 -0.87815448025E-02 -0.91943099223E-03  0.23200953101E-01  0.00000000000E+00 0. -1.
     999901    1    3    3    0    0 -0.23636316493E-01  0.11698623997E+00  0.53041148485E-01  0.88963915113E+00  0.88000000000E+00 0.  1.
        -11    1    4    4    0    0  0.15697876976E-01 -0.53292468213E-01 -0.11525108011E-01  0.56741516947E-01  0.51100000000E-03 0. -1.
         11    1    4    4    0    0  0.29393586739E-01 -0.54912226953E-01 -0.40596609482E-01  0.74348378817E-01  0.51100000000E-03 0.  1.
</event>
<event>
 8    1  0.1042301E+005  0.1043930E+01  0.7957747E-01            NaN
         13   -1    0    0    0    0  0.00000000000E+00  0.00000000000E+00  0.74505805969E-08  0.10566000000E+00  0.10566000000E+00 0. -1.
     999900   -1    0    0    0    0 -0.00000000000E+00 -0.00000000000E+00 -0.74505805969E-08  0.93827000000E+00  0.93827000000E+00 0. -1.
     999902    2    1    2    0    0 -0.75632898978E-02  0.11995730208E-01 -0.14685943073E-01  0.10235148629E+01  0.10233112414E+01 0.  0.
     999903    2    3    3    0    0 -0.12738947309E+00 -0.35164138708E-01 -0.13010793480E-01  0.13414139046E+00  0.18974651096E-01 0.  0.
         14    1    1    2    0    0  0.75632898978E-02 -0.11995730208E-01  0.14685943073E-01  0.20415137061E-01  0.00000000000E+00 0. -1.
     999901    1    3    3    0    0  0.11982618319E+00  0.47159868916E-01 -0.16751495925E-02  0.88937347247E+00  0.88000000000E+00 0.  1.
        -11    1    4    4    0    0 -0.17956463404E-01 -0.80585376561E-02 -0.81112923173E-02  0.21293867455E-01  0.51100000000E-03 0. -1.
         11    1    4    4    0    0 -0.10943300968E+00 -0.27105601052E-01 -0.48995011629E-02  0.11284752301E+00  0.51100000000E-03 0.  1.
</event>
<event>
 8    1  0.1042301E+005  0.1043930E+01  0.7957747E-01            NaN
         13   -1    0    0    0    0  0.00000000000E+00  0.00000000000E+00  0.74505805969E-08  0.10566000000E+00  0.10566000000E+00 0. -1.
     999900   -1    0    0    0    0 -0.00000000000E+00 -0.00000000000E+00 -0.74505805969E-08  0.93827000000E+00  0.93827000000E+00 0. -1.
     999902    2    1    2    0    0  0.30643110659E-02 -0.58228652045E-02  0.22521401436E-01  0.10204670657E+01  0.10201972961E+01 0.  0.
     999903    2    3    3    0    0  0.77744030586E-01  0.72090927842E-01  0.76605268693E-01  0.13222572221E+00  0.19340068613E-01 0.  0.
         14    1    1    2    0    0 -0.30643110659E-02  0.58228652045E-02 -0.22521401436E-01  0.23462934261E-01  0.00000000000E+00 0.  1.
     999901    1    3    3    0    0 -0.74679719520E-01 -0.77913793047E-01 -0.54083867258E-01  0.88824134353E+00  0.88000000000E+00 0.  1.
        -11    1    4    4    0    0  0.36055736660E-01  0.30539750352E-01  0.45727648496E-01  0.65756911847E-01  0.51100000000E-03 0. -1.
         11    1    4    4    0    0  0.41688293925E-01  0.41551177490E-01  0.30877620197E-01  0.66468810364E-01  0.51100000000E-03 0.  1.
</event>
<event>
 8    1  0.1188535E+005  0.1043930E+01  0.7957747E-01            NaN
         13   -1    0    0    0    0  0.00000000000E+00  0.00000000000E+00  0.74505805969E-08  0.10566000000E+00  0.10566000000E+00 0. -1.
     999900   -1    0    0    0    0 -0.00000000000E+00 -0.00000000000E+00 -0.74505805969E-08  0.93827000000E+00  0.93827000000E+00 0. -1.
     999902    2    1    2    0    0  0.17740748782E-01 -0.14934767651E-01  0.13582397538E-02  0.10207001428E+01  0.10204357673E+01 0.  0.
     999903    2    3    3    0    0 -0.47250012986E-01  0.14473682631E-02 -0.11931313538E+00  0.12993993133E+00  0.20349517861E-01 0.  0.
         14    1    1    2    0    0 -0.17740748782E-01  0.14934767651E-01 -0.13582397538E-02  0.23229857240E-01  0.00000000000E+00 0. -1.
     999901    1    3    3    0    0  0.64990761769E-01 -0.16382135914E-01  0.12067137514E+00  0.89076021143E+00  0.88000000000E+00 0.  1.
        -11    1    4    4    0    0 -0.24483178372E-01  0.10684354463E-01 -0.67460746447E-01  0.72558906315E-01  0.51100000000E-03 0.  1.
         11    1    4    4    0    0 -0.22766834615E-01 -0.92369862003E-02 -0.51852388935E-01  0.57381025014E-01  0.51100000000E-03 0. -1.
</event>
<event>
 8    1  0.1042301E+005  0.1043930E+01  0.7957747E-01            NaN
         13   -1    0    0    0    0  0.00000000000E+00  0.00000000000E+00  0.74505805969E-08  0.10566000000E+00  0.10566000000E+00 0.  1.
     999900   -1    0    0    0    0 -0.00000000000E+00 -0.00000000000E+00 -0.74505805969E-08  0.93827000000E+00  0.93827000000E+00 0.  1.
     999902    2    1    2    0    0 -0.10109756007E-01  0.12512828888E-01 -0.20268807445E-01  0.10180533192E+01  0.10177244019E+01 0.  0.
     999903    2    3    3    0    0  0.59268846354E-01 -0.67821855638E-02 -0.11403574497E+00  0.13014683392E+00  0.19371449631E-01 0.  0.
         14    1    1    2    0    0  0.10109756007E-01 -0.12512828888E-01  0.20268807445E-01  0.25876680786E-01  0.00000000000E+00 0.  1.
     999901    1    3    3    0    0 -0.69378602361E-01  0.19295014452E-01  0.93766937523E-01  0.88790648529E+00  0.88000000000E+00 0. -1.
        -11    1    4    4    0    0  0.23276568990E-01 -0.33707446881E-03 -0.64509091536E-01  0.68582769665E-01  0.51100000000E-03 0.  1.
         11    1    4    4    0    0  0.35992277364E-01 -0.64451110950E-02 -0.49526653431E-01  0.61564064258E-01  0.51100000000E-03 0. -1.
</event>
<event>
 8    1  0.1042301E+005  0.1043930E+01  0.7957747E-01            NaN
         13   -1    0    0    0    0  0.00000000000E+00  0.00000000000E+00  0.74505805969E-08  0.10566000000E+00  0.10566000000E+00 0. -1.
     999900   -1    0    0    0    0 -0.00000000000E+00 -0.00000000000E+00 -0.74505805969E-08  0.93827000000E+00  0.93827000000E+00 0.  1.
     999902    2    1    2    0    0 -0.15642826133E-01 -0.36551695134E-02  0.17388006631E-01  0.10202572087E+01  0.10199825346E+01 0.  0.
     999903    2    3    3    0    0 -0.35166184100E-02 -0.59315387820E-01  0.11723004232E+00  0.13278127274E+00  0.18902426566E-01 0.  0.
         14    1    1    2    0    0  0.15642826133E-01  0.36551695134E-02 -0.17388006631E-01  0.23672791305E-01  0.00000000000E+00 0.  1.
     999901    1    3    3    0    0 -0.12126207723E-01  0.55660218306E-01 -0.99842035688E-01  0.88747593596E+00  0.88000000000E+00 0.  1.
        -11    1    4    4    0    0 -0.82933634981E-02 -0.23367646916E-01  0.61240702650E-01  0.66072018152E-01  0.51100000000E-03 0. -1.
         11    1    4    4    0    0  0.47767450881E-02 -0.35947740904E-01  0.55989339668E-01  0.66709254584E-01  0.51100000000E-03 0.  1.
</event>
<event>
 8    1  0.1042301E+005  0.1043930E+01  0.7957747E-01            NaN
         13   -1    0    0    0    0  0.00000000000E+00  0.00000000000E+00  0.74505805969E-08  0.10566000000E+00  0.10566000000E+00 0. -1.
     999900   -1    0    0    0    0 -0.00000000000E+00 -0.00000000000E+00 -0.74505805969E-08  0.93827000000E+00  0.93827000000E+00 0. -1.
     999902    2    1    2    0    0 -0.16587090229E-01 -0.31375206219E-02 -0.16037539268E-01  0.10206452783E+01  0.10203796381E+01 0.  0.
     999903    2    3    3    0    0 -0.86847921702E-01 -0.46637013359E-01 -0.88266669325E-01  0.13382746302E+00  0.20030287705E-01 0.  0.
         14    1    1    2    0    0  0.16587090229E-01  0.31375206219E-02  0.16037539268E-01  0.23284721679E-01  0.00000000000E+00 0. -1.
     999901    1    3    3    0    0  0.70260831473E-01  0.43499492737E-01  0.72229130057E-01  0.88681781530E+00  0.88000000000E+00 0. -1.
        -11    1    4    4    0    0 -0.64053127498E-01 -0.31898591997E-01 -0.74819579126E-01  0.10353044893E+00  0.51100000000E-03 0. -1.
         11    1    4    4    0    0 -0.22794794204E-01 -0.14738421362E-01 -0.13447090199E-01  0.30297014091E-01  0.51100000000E-03 0.  1.
</event>
<event>
 8    1  0.1042301E+005  0.1043930E+01  0.7957747E-01            NaN
         13   -1    0    0    0    0  0.00000000000E+00  0.00000000000E+00  0.74505805969E-08  0.10566000000E+00  0.10566000000E+00 0.  1.
     999900   -1    0    0    0    0 -0.00000000000E+00 -0.00000000000E+00 -0.74505805969E-08  0.93827000000E+00  0.93827000000E+00 0.  1.
     999902    2    1    2    0    0  0.17612120032E-02 -0.47399458310E-02  0.22727272138E-01  0.10206470051E+01  0.10203814047E+01 0.  0.
     999903    2    3    3    0    0 -0.79565680083E-01  0.88554801855E-02  0.10437051548E+00  0.13302967864E+00  0.19863884850E-01 0.  0.
         14    1    1    2    0    0 -0.17612120032E-02  0.47399458310E-02 -0.22727272138E-01  0.23282994933E-01  0.00000000000E+00 0. -1.
     999901    1    3    3    0    0  0.81326892086E-01 -0.13595426016E-01 -0.81643243344E-01  0.88761732642E+00  0.88000000000E+00 0.  1.
        -11    1    4    4    0    0 -0.42790472997E-01 -0.48233466708E-02  0.58985125581E-01  0.73032837910E-01  0.51100000000E-03 0. -1.
         11    1    4    4    0    0 -0.36775207086E-01  0.13678826856E-01  0.45385389902E-01  0.59996840733E-01  0.51100000000E-03 0.  1.
</event>
<event>
 8    1  0.1042301E+005  0.1043930E+01  0.7957747E-01            NaN
         13   -1    0    0    0    0  0.00000000000E+00  0.00000000000E+00  0.74505805969E-08  0.10566000000E+00  0.10566000000E+00 0.  1.
     999900   -1    0    0    0    0 -0.00000000000E+00 -0.00000000000E+00 -0.74505805969E-08  0.93827000000E+00  0.93827000000E+00 0. -1.
     999902    2    1    2    0    0 -0.18695636283E-01  0.15074060821E-01  0.10221426665E-02  0.10198925521E+01  0.10196092482E+01 0.  0.
     999903    2    3    3    0    0  0.60364497396E-01 -0.11000997104E+00 -0.10176852299E-01  0.12746780051E+00  0.19960099453E-01 0.  0.
         14    1    1    2    0    0  0.18695636283E-01 -0.15074060821E-01 -0.10221426665E-02  0.24037447894E-01  0.00000000000E+00 0.  1.
     999901    1    3    3    0    0 -0.79060133679E-01  0.12508403186E+00  0.11198994966E-01  0.89242475159E+00  0.88000000000E+00 0. -1.
        -11    1    4    4    0    0  0.33456617325E-01 -0.40708043299E-01 -0.30566052446E-02  0.52783463212E-01  0.51100000000E-03 0.  1.
         11    1    4    4    0    0  0.26907880071E-01 -0.69301927745E-01 -0.71202470548E-02  0.74684337302E-01  0.51100000000E-03 0. -1.
</event>
<event>
 8    1  0.1042301E+005  0.1043930E+01  0.7957747E-01            NaN
         13   -1    0    0    0    0  0.00000000000E+00  0.00000000000E+00  0.74505805969E-08  0.10566000000E+00  0.10566000000E+00 0. -1.
     999900   -1    0    0    0    0 -0.00000000000E+00 -0.00000000000E+00 -0.74505805969E-08  0.93827000000E+00  0.93827000000E+00 0. -1.
     999902    2    1    2    0    0 -0.10552495053E-01  0.20965057720E-01  0.31358112982E-02  0.10202504284E+01  0.10199755951E+01 0.  0.
     999903    2    3    3    0    0  0.45910218023E-02  0.88743034789E-03  0.12921540540E+00  0.13090881731E+00  0.20460509397E-01 0.  0.
         14    1    1    2    0    0  0.10552495053E-01 -0.20965057720E-01 -0.31358112982E-02  0.23679571566E-01  0.00000000000E+00 0.  1.
     999901    1    3    3    0    0 -0.15143516855E-01  0.20077627373E-01 -0.12607959410E+00  0.88934161112E+00  0.88000000000E+00 0. -1.
        -11    1    4    4    0    0 -0.43044208389E-02 -0.73245281154E-02  0.41808835872E-01  0.42666340701E-01  0.51100000000E-03 0.  1.
         11    1    4    4    0    0  0.88954426413E-02  0.82119584633E-02  0.87406569524E-01  0.88242476611E-01  0.51100000000E-03 0. -1.
</event>
<event>
 8    1  0.1042301E+005  0.1043930E+01  0.7957747E-01            NaN
         13   -1    0    0    0    0  0.00000000000E+00  0.00000000000E+00  0.74505805969E-08  0.10566000000E+00  0.10566000000E+00 0. -1.
     999900   -1    0    0    0    0 -0.00000000000E+00 -0.00000000000E+00 -0.74505805969E-08  0.93827000000E+00  0.93827000000E+00 0. -1.
     999902    2    1    2    0    0 -0.13107489983E-02  0.22609607027E-01  0.36332860326E-02  0.10209928432E+01  0.10207351629E+01 0.  0.
     999903    2    3    3    0    0  0.11121240930E+00 -0.56396537711E-01 -0.29642414639E-01  0.12969564011E+00  0.19837259610E-01 0.  0.
         14    1    1    2    0    0  0.13107489983E-02 -0.22609607027E-01 -0.36332860326E-02  0.22937156760E-01  0.00000000000E+00 0. -1.
     999901    1    3    3    0    0 -0.11252315830E+00  0.79006144738E-01  0.33275700672E-01  0.89129720313E+00  0.88000000000E+00 0.  1.
        -11    1    4    4    0    0  0.50020493510E-01 -0.32366219964E-01 -0.21986455426E-01  0.63508167261E-01  0.51100000000E-03 0.  1.
         11    1    4    4    0    0  0.61191915790E-01 -0.24030317747E-01 -0.76559592133E-02  0.66187472844E-01  0.51100000000E-03 0. -1.
</event>
<event>
 8    1  0.1042301E+005  0.1043930E+01  0.7957747E-01            NaN
         13   -1    0    0    0    0  0.00000000000E+00  0.00000000000E+00  0.74505805969E-08  0.10566000000E+00  0.10566000000E+00 0.  1.
     999900   -1    0    0    0    0 -0.00000000000E+00 -0.00000000000E+00 -0.74505805969E-08  0.93827000000E+00  0.93827000000E+00 0.  1.
     999902    2    1    2    0    0 -0.20418296538E-01  0.34770892262E-02 -0.11269602960E-01  0.10203503280E+01  0.10200778357E+01 0.  0.
     999903    2    3    3    0    0 -0.73891184699E-02 -0.10332054938E+00  0.75405191453E-01  0.12957088551E+00  0.19311563321E-01 0.  0.
         14    1    1    2    0    0  0.20418296538E-01 -0.34770892262E-02  0.11269602960E-01  0.23579672048E-01  0.00000000000E+00 0.  1.
     999901    1    3    3    0    0 -0.13029178068E-01  0.10679763861E+00 -0.86674794413E-01  0.89077944244E+00  0.88000000000E+00 0.  1.
        -11    1    4    4    0    0  0.36799094346E-02 -0.43629838939E-01  0.23492704533E-01  0.49691778662E-01  0.51100000000E-03 0.  1.
         11    1    4    4    0    0 -0.11069027904E-01 -0.59690710440E-01  0.51912486919E-01  0.79879106847E-01  0.51100000000E-03 0. -1.
</event>
<event>
 8    1  0.1042301E+005  0.1043930E+01  0.7957747E-01            NaN
         13   -1    0    0    0    0  0.00000000000E+00  0.00000000000E+00  0.74505805969E-08  0.10566000000E+00  0.10566000000E+00 0.  1.
     999900   -1    0    0    0    0 -0.00000000000E+00 -0.00000000000E+00 -0.74505805969E-08  0.93827000000E+00  0.93827000000E+00 0.  1.
     999902    2    1    2    0    0 -0.20842665378E-02  0.13785376212E-01  0.20024998740E-01  0.10195295627E+01  0.10192375326E+01 0.  0.
     999903    2    3    3    0    0  0.32494511664E-02 -0.97183621132E-01 -0.79150896865E-01  0.12701713975E+00  0.20329145716E-01 0.  0.
         14    1    1    2    0    0  0.20842665378E-02 -0.13785376212E-01 -0.20024998740E-01  0.24400437268E-01  0.00000000000E+00 0. -1.
     999901    1    3    3    0    0 -0.53337177041E-02  0.11096899734E+00  0.99175895605E-01  0.89251242299E+00  0.88000000000E+00 0. -1.
        -11    1    4    4    0    0 -0.32939817773E-02 -0.47235834762E-01 -0.49771891720E-01  0.68699175599E-01  0.51100000000E-03 0.  1.
         11    1    4    4    0    0  0.65434329436E-02 -0.49947786370E-01 -0.29379005146E-01  0.58317964147E-01  0.51100000000E-03 0. -1.
</event>
<event>
 8    1  0.1042301E+005  0.1043930E+01  0.7957747E-01            NaN
         13   -1    0    0    0    0  0.00000000000E+00  0.00000000000E+00  0.74505805969E-08  0.10566000000E+00  0.10566000000E+00 0.  1.
     999900   -1    0    0    0    0 -0.00000000000E+00 -0.00000000000E+00 -0.74505805969E-08  0.93827000000E+00  0.93827000000E+00 0. -1.
     999902    2    1    2    0    0 -0.52231674021E-02  0.18674341720E-01 -0.13759272045E-01  0.10201533290E+01  0.10198762104E+01 0.  0.
     999903    2    3    3    0    0 -0.26104962535E-01 -0.11439976330E+00  0.46537127529E-01  0.12786390141E+00  0.20364138407E-01 0.  0.
         14    1    1    2    0    0  0.52231674021E-02 -0.18674341720E-01  0.13759272045E-01  0.23776670995E-01  0.00000000000E+00 0.  1.
     999901    1    3    3    0    0  0.20881795133E-01  0.13307410502E+00 -0.60296399575E-01  0.89228942759E+00  0.88000000000E+00 0. -1.
        -11    1    4    4    0    0 -0.14019456687E-01 -0.52686155369E-01  0.32345643131E-01  0.63394620307E-01  0.51100000000E-03 0. -1.
         11    1    4    4    0    0 -0.12085505848E-01 -0.61713607931E-01  0.14191484399E-01  0.64469281103E-01  0.51100000000E-03 0.  1.
</event>
<event>
 8    1  0.1042301E+005  0.1043930E+01  0.7957747E-01            NaN
         13   -1    0    0    0    0  0.00000000000E+00  0.00000000000E+00  0.74505805969E-08  0.10566000000E+00  0.10566000000E+00 0.  1.
     999900   -1    0    0    0    0 -0.00000000000E+00 -0.00000000000E+00 -0.74505805969E-08  0.93827000000E+00  0.93827000000E+00 0.  1.
     999902    2    1    2    0    0 -0.16646766824E-01 -0.21709222178E-01  0.84442989642E-02  0.10152993982E+01  0.10148956383E+01 0.  0.
     999903    2    3    3    0    0  0.11810074652E+00 -0.78832794404E-02  0.33809978651E-01  0.12457415060E+00  0.19122549985E-01 0.  0.
         14    1    1    2    0    0  0.16646766824E-01  0.21709222178E-01 -0.84442989642E-02  0.28630601780E-01  0.00000000000E+00 0. -1.
     999901    1    3    3    0    0 -0.13474751334E+00 -0.13825942737E-01 -0.25365679687E-01  0.89072524762E+00  0.88000000000E+00 0. -1.
        -11    1    4    4    0    0  0.22694314567E-01  0.27343425996E-03 -0.90512613606E-03  0.22719750312E-01  0.51100000000E-03 0.  1.
         11    1    4    4    0    0  0.95406431952E-01 -0.81567137003E-02  0.34715104787E-01  0.10185440029E+00  0.51100000000E-03 0. -1.
</event>
<event>
 8    1  0.1042301E+005  0.1043930E+01  0.7957747E-01            NaN
         13   -1    0    0    0    0  0.00000000000E+00  0.00000000000E+00  0.74505805969E-08  0.10566000000E+00  0.10566000000E+00 0. -1.
     999900   -1    0    0    0    0 -0.00000000000E+00 -0.00000000000E+00 -0.74505805969E-08  0.93827000000E+00  0.93827000000E+00 0.  1.
     999902    2    1    2    0    0  0.99372977540E-02 -0.18019867139E-01 -0.10534029050E-01  0.10208122305E+01  0.10205504293E+01 0.  0.
     999903    2    3    3    0    0  0.78307824105E-01  0.41651040362E-01  0.93554814029E-01  0.13004310591E+00  0.17081618429E-01 0.  0.
         14    1    1    2    0    0 -0.99372977540E-02  0.18019867139E-01  0.10534029050E-01  0.23117769494E-01  0.00000000000E+00 0.  1.
     999901    1    3    3    0    0 -0.68370526351E-01 -0.59670907500E-01 -0.10408884308E+00  0.89076912459E+00  0.88000000000E+00 0.  1.
        -11    1    4    4    0    0  0.11800724935E-01  0.40938236363E-02  0.22411110725E-01  0.25661946650E-01  0.51100000000E-03 0. -1.
         11    1    4    4    0    0  0.66507099170E-01  0.37557216725E-01  0.71143703304E-01  0.10438115926E+00  0.51100000000E-03 0.  1.
</event>
<event>
 8    1  0.1042301E+005  0.1043930E+01  0.7957747E-01            NaN
         13   -1    0    0    0    0  0.00000000000E+00  0.00000000000E+00  0.74505805969E-08  0.10566000000E+00  0.10566000000E+00 0.  1.
     999900   -1    0    0    0    0 -0.00000000000E+00 -0.00000000000E+00 -0.74505805969E-08  0.93827000000E+00  0.93827000000E+00 0. -1.
     999902    2    1    2    0    0 -0.14007213774E-01 -0.18636259377E-01 -0.50262513768E-02  0.10200809874E+01  0.10198021599E+01 0.  0.
     999903    2    3    3    0    0  0.16375541721E-01  0.12441125703E+00 -0.12969387068E-01  0.12797740750E+00  0.21533522417E-01 0.  0.
         14    1    1    2    0    0  0.14007213774E-01  0.18636259377E-01  0.50262513768E-02  0.23849012645E-01  0.00000000000E+00 0.  1.
     999901    1    3    3    0    0 -0.30382755495E-01 -0.14304751641E+00  0.79431356910E-02  0.89210357985E+00  0.88000000000E+00 0. -1.
        -11    1    4    4    0    0 -0.67325883301E-03  0.51307181635E-01  0.23287348751E-02  0.51366957199E-01  0.51100000000E-03 0. -1.
         11    1    4    4    0    0  0.17048800554E-01  0.73104075394E-01 -0.15298121943E-01  0.76610450303E-01  0.51100000000E-03 0.  1.
</event>
<event>
 8    1  0.1042301E+005  0.1043930E+01  0.7957747E-01            NaN
         13   -1    0    0    0    0  0.00000000000E+00  0.00000000000E+00  0.74505805969E-08  0.10566000000E+00  0.10566000000E+00 0.  1.
     999900   -1    0    0    0    0 -0.00000000000E+00 -0.00000000000E+00 -0.74505805969E-08  0.93827000000E+00  0.93827000000E+00 0.  1.
     999902    2    1    2    0    0  0.73212596297E-02  0.15997204957E-01  0.90032440457E-02  0.10241671608E+01  0.10239764663E+01 0.  0.
     999903    2    3    3    0    0 -0.42260850469E-01  0.99919839603E-01  0.79809936090E-01  0.13595829919E+00  0.18576312628E-01 0.  0.
         14    1    1    2    0    0 -0.73212596297E-02 -0.15997204957E-01 -0.90032440457E-02  0.19762839177E-01  0.00000000000E+00 0.  1.
     999901    1    3    3    0    0  0.49582110099E-01 -0.83922634646E-01 -0.70806692045E-01  0.88820886163E+00  0.88000000000E+00 0.  1.
        -11    1    4    4    0    0 -0.28903530451E-01  0.63713053428E-01  0.61872256007E-01  0.93398096523E-01  0.51100000000E-03 0. -1.
         11    1    4    4    0    0 -0.13357320018E-01  0.36206786175E-01  0.17937680083E-01  0.42560202666E-01  0.51100000000E-03 0.  1.
</event>
<event>
 8    1  0.1042301E+005  0.1043930E+01  0.7957747E-01            NaN
         13   -1    0    0    0    0  0.00000000000E+00  0.00000000000E+00  0.74505805969E-08  0.10566000000E+00  0.10566000000E+00 0.  1.
     999900   -1    0    0    0    0 -0.00000000000E+00 -0.00000000000E+00 -0.74505805969E-08  0.93827000000E+00  0.93827000000E+00 0. -1.
     999902    2    1    2    0    0 -0.72969848111E-02 -0.23722150840E-01 -0.18010284275E-02  0.10190456649E+01  0.10187417912E+01 0.  0.
     999903    2    3    3    0    0  0.49541065763E-01 -0.10466823066E+00  0.59173051922E-01  0.13140797404E+00  0.18890470108E-01 0.  0.
         14    1    1    2    0    0  0.72969848111E-02  0.23722150840E-01  0.18010284275E-02  0.24884335057E-01  0.00000000000E+00 0. -1.
     999901    1    3    3    0    0 -0.56838050574E-01  0.80946079824E-01 -0.60974080350E-01  0.88763769090E+00  0.88000000000E+00 0.  1.
        -11    1    4    4    0    0  0.35773626844E-01 -0.67093635971E-01  0.29380281552E-01  0.81515461297E-01  0.51100000000E-03 0. -1.
         11    1    4    4    0    0  0.13767438919E-01 -0.37574594693E-01  0.29792770370E-01  0.49892512746E-01  0.51100000000E-03 0.  1.
</event>
<event>
 8    1  0.1042301E+005  0.1043930E+01  0.7957747E-01            NaN
         13   -1    0    0    0    0  0.00000000000E+00  0.00000000000E+00  0.74505805969E-08  0.10566000000E+00  0.10566000000E+00 0.  1.
     999900   -1    0    0    0    0 -0.00000000000E+00 -0.00000000000E+00 -0.74505805969E-08  0.93827000000E+00  0.93827000000E+00 0. -1.
     999902    2    1    2    0    0 -0.16467452504E-01  0.53577182233E-02 -0.18783889528E-01  0.10183816802E+01  0.10180611622E+01 0.  0.
     999903    2    3    3    0    0 -0.12173175434E+00  0.44141668238E-01  0.12830027934E-02  0.13103313081E+00  0.20023196139E-01 0.  0.
         14    1    1    2    0    0  0.16467452504E-01 -0.53577182233E-02  0.18783889528E-01  0.25548319756E-01  0.00000000000E+00 0.  1.
     999901    1    3    3    0    0  0.10526430184E+00 -0.38783950014E-01 -0.20066892321E-01  0.88734854944E+00  0.88000000000E+00 0. -1.
        -11    1    4    4    0    0 -0.35311901533E-01  0.19752013971E-01 -0.61513570390E-02  0.40928874407E-01  0.51100000000E-03 0. -1.
         11    1    4    4    0    0 -0.86419852807E-01  0.24389654266E-01  0.74343598323E-02  0.90104256401E-01  0.51100000000E-03 0.  1.
</event>
<event>
 8    1  0.1042301E+005  0.1043930E+01  0.7957747E-01            NaN
         13   -1    0    0    0    0  0.00000000000E+00  0.00000000000E+00  0.74505805969E-08  0.10566000000E+00  0.10566000000E+00 0.  1.
     999900   -1    0    0    0    0 -0.00000000000E+00 -0.00000000000E+00 -0.74505805969E-08  0.93827000000E+00  0.93827000000E+00 0.  1.
     999902    2    1    2    0    0 -0.28442405248E-01  0.54384583599E-02  0.57533048642E-03  0.10149666050E+01  0.10145532667E+01 0.  0.
     999903    2    3    3    0    0 -0.11399737619E+00  0.57069474157E-01  0.59848545023E-02  0.12929472568E+00  0.20711855189E-01 0.  0.
         14    1    1    2    0    0  0.28442405248E-01 -0.54384583599E-02 -0.57533048642E-03  0.28963395015E-01  0.00000000000E+00 0.  1.
     999901    1    3    3    0    0  0.85554970945E-01 -0.51631015797E-01 -0.54095240159E-02  0.88567187931E+00  0.88000000000E+00 0. -1.
        -11    1    4    4    0    0 -0.53609950123E-01  0.26808845313E-01  0.13154856695E-01  0.61368170210E-01  0.51100000000E-03 0.  1.
         11    1    4    4    0    0 -0.60387426070E-01  0.30260628844E-01 -0.71700021930E-02  0.67926555468E-01  0.51100000000E-03 0. -1.
</event>
<event>
 8    1  0.1042301E+005  0.1043930E+01  0.7957747E-01            NaN
         13   -1    0    0    0    0  0.00000000000E+00  0.00000000000E+00  0.74505805969E-08  0.10566000000E+00  0.10566000000E+00 0. -1.
     999900   -1    0    0    0    0 -0.00000000000E+00 -0.00000000000E+00 -0.74505805969E-08  0.93827000000E+00  0.93827000000E+00 0.  1.
     999902    2    1    2    0    0  0.15928448156E-01 -0.32838172451E-02  0.17922945890E-01  0.10197281219E+01  0.10194408819E+01 0.  0.
     999903    2    3    3    0    0  0.26865969251E-01 -0.11166720405E+00  0.62359447555E-01  0.13189863903E+00  0.17810264292E-01 0.  0.
         14    1    1    2    0    0 -0.15928448156E-01  0.32838172451E-02 -0.17922945890E-01  0.24201878145E-01  0.00000000000E+00 0.  1.
     999901    1    3    3    0    0 -0.10937521095E-01  0.10838338680E+00 -0.44436501665E-01  0.88782948283E+00  0.88000000000E+00 0.  1.
        -11    1    4    4    0    0  0.89892485495E-02 -0.22748244564E-01  0.20880608413E-01  0.32164423653E-01  0.51100000000E-03 0. -1.
         11    1    4    4    0    0  0.17876720701E-01 -0.88918959482E-01  0.41478839142E-01  0.99734215372E-01  0.51100000000E-03 0.  1.
</event>
<event>
 8    1  0.1072025E+005  0.1043930E+01  0.7957747E-01            NaN
         13   -1    0    0    0    0  0.00000000000E+00  0.00000000000E+00  0.74505805969E-08  0.10566000000E+00  0.10566000000E+00 0.  1.
     999900   -1    0    0    0    0 -0.00000000000E+00 -0.00000000000E+00 -0.74505805969E-08  0.93827000000E+00  0.93827000000E+00 0. -1.
     999902    2    1    2    0    0  0.25104848814E-02 -0.81386304281E-02  0.21691609735E-01  0.10206262284E+01  0.10203601483E+01 0.  0.
     999903    2    3    3    0    0 -0.11665394320E+00  0.20430972529E-01 -0.48249260645E-01  0.12938658131E+00  0.19680680022E-01 0.  0.
         14    1    1    2    0    0 -0.25104848814E-02  0.81386304281E-02 -0.21691609735E-01  0.23303771637E-01  0.00000000000E+00 0. -1.
     999901    1    3    3    0    0  0.11916442809E+00 -0.28569602957E-01  0.69940870381E-01  0.89123964706E+00  0.88000000000E+00 0. -1.
        -11    1    4    4    0    0 -0.63801914617E-01  0.21000333365E-01 -0.25688597160E-01  0.71915669052E-01  0.51100000000E-03 0.  1.
         11    1    4    4    0    0 -0.52852028587E-01 -0.56936083626E-03 -0.22560663485E-01  0.57470912255E-01  0.51100000000E-03 0. -1.
</event>
<event>
 8    1  0.1042301E+005  0.1043930E+01  0.7957747E-01            NaN
         13   -1    0    0    0    0  0.00000000000E+00  0.00000000000E+00  0.74505805969E-08  0.10566000000E+00  0.10566000000E+00 0. -1.
     999900   -1    0    0    0    0 -0.00000000000E+00 -0.00000000000E+00 -0.74505805969E-08  0.93827000000E+00  0.93827000000E+00 0. -1.
     999902    2    1    2    0    0 -0.20758360863E-01  0.29519942356E-02  0.10672673878E-01  0.10204027863E+01  0.10201315192E+01 0.  0.
     999903    2    3    3    0    0 -0.12634168585E+00  0.37382993509E-01  0.27919367171E-02  0.13338788327E+00  0.20611227656E-01 0.  0.
         14    1    1    2    0    0  0.20758360863E-01 -0.29519942356E-02 -0.10672673878E-01  0.23527213676E-01  0.00000000000E+00 0.  1.
     999901    1    3    3    0    0  0.10558332498E+00 -0.34430999273E-01  0.78807371605E-02  0.88701490306E+00  0.88000000000E+00 0.  1.
        -11    1    4    4    0    0 -0.39541320109E-01  0.32036271259E-02  0.55372903340E-02  0.40058730983E-01  0.51100000000E-03 0.  1.
         11    1    4    4    0    0 -0.86800365738E-01  0.34179366383E-01 -0.27453536169E-02  0.93329152284E-01  0.51100000000E-03 0. -1.
</event>
<event>
 8    1  0.1042301E+005  0.1043930E+01  0.7957747E-01            NaN
         13   -1    0    0    0    0  0.00000000000E+00  0.00000000000E+00  0.74505805969E-08  0.10566000000E+00  0.10566000000E+00 0.  1.
     999900   -1    0    0    0    0 -0.00000000000E+00 -0.00000000000E+00 -0.74505805969E-08  0.93827000000E+00  0.93827000000E+00 0. -1.
     999902    2    1    2    0    0 -0.18174535846E-01  0.89142277181E-02  0.10914761772E-01  0.10209319733E+01  0.10206729078E+01 0.  0.
     999903    2    3    3    0    0 -0.65799877976E-01  0.10504774326E+00  0.46407374223E-01  0.13370621194E+00  0.18948731472E-01 0.  0.
         14    1    1    2    0    0  0.18174535846E-01 -0.89142277181E-02 -0.10914761772E-01  0.22998026732E-01  0.00000000000E+00 0. -1.
     999901    1    3    3    0    0  0.47625342130E-01 -0.96133515539E-01 -0.35492612452E-01  0.88722576133E+00  0.88000000000E+00 0.  1.
        -11    1    4    4    0    0 -0.74234527806E-02  0.68749299493E-02  0.89045785599E-02  0.13487955862E-01  0.51100000000E-03 0. -1.
         11    1    4    4    0    0 -0.58376425195E-01  0.98172813307E-01  0.37502795664E-01  0.12021825608E+00  0.51100000000E-03 0.  1.
</event>
<event>
 8    1  0.1042301E+005  0.1043930E+01  0.7957747E-01            NaN
         13   -1    0    0    0    0  0.00000000000E+00  0.00000000000E+00  0.74505805969E-08  0.10566000000E+00  0.10566000000E+00 0.  1.
     999900   -1    0    0    0    0 -0.00000000000E+00 -0.00000000000E+00 -0.74505805969E-08  0.93827000000E+00  0.93827000000E+00 0.  1.
     999902    2    1    2    0    0  0.17882948396E-01 -0.11385845372E-02  0.14508723292E-01  0.10208735634E+01  0.10206131653E+01 0.  0.
     999903    2    3    3    0    0  0.37234733901E-01 -0.49703980242E-01  0.11669050787E+00  0.13341978635E+00  0.18090154849E-01 0.  0.
         14    1    1    2    0    0 -0.17882948396E-01  0.11385845372E-02 -0.14508723292E-01  0.23056436620E-01  0.00000000000E+00 0. -1.
     999901    1    3    3    0    0 -0.19351785505E-01  0.48565395704E-01 -0.10218178458E+00  0.88745377703E+00  0.88000000000E+00 0.  1.
        -11    1    4    4    0    0  0.21924841177E-01 -0.24799493794E-01  0.43953913972E-01  0.55026550206E-01  0.51100000000E-03 0. -1.
         11    1    4    4    0    0  0.15309892723E-01 -0.24904486447E-01  0.72736593899E-01  0.78393236146E-01  0.51100000000E-03 0.  1.
</event>
<event>
 8    1  0.1042301E+005  0.1043930E+01  0.7957747E-01            NaN
         13   -1    0    0    0    0  0.00000000000E+00  0.00000000000E+00  0.74505805969E-08  0.10566000000E+00  0.10566000000E+00 0.  1.
     999900   -1    0    0    0    0 -0.00000000000E+00 -0.00000000000E+00 -0.74505805969E-08  0.93827000000E+00  0.93827000000E+00 0.  1.
     999902    2    1    2    0    0  0.13927029337E-01  0.22149609376E-02  0.20092072121E-01  0.10193829114E+01  0.10190873174E+01 0.  0.
     999903    2    3    3    0    0 -0.69634642209E-01  0.81976932874E-01 -0.65926240455E-01  0.12767462094E+00  0.19630046690E-01 0.  0.
         14    1    1    2    0    0 -0.13927029337E-01 -0.22149609376E-02 -0.20092072121E-01  0.24547088630E-01  0.00000000000E+00 0. -1.
     999901    1    3    3    0    0  0.83561671546E-01 -0.79761971937E-01  0.86018312576E-01  0.89170829043E+00  0.88000000000E+00 0. -1.
        -11    1    4    4    0    0 -0.10183121783E-02  0.91447964305E-02 -0.44467280583E-02  0.10232241830E-01  0.51100000000E-03 0.  1.
         11    1    4    4    0    0 -0.68616330031E-01  0.72832136444E-01 -0.61479512397E-01  0.11744237911E+00  0.51100000000E-03 0. -1.
</event>
<event>
 8    1  0.1042301E+005  0.1043930E+01  0.7957747E-01            NaN
         13   -1    0    0    0    0  0.00000000000E+00  0.00000000000E+00  0.74505805969E-08  0.10566000000E+00  0.10566000000E+00 0.  1.
     999900   -1    0    0    0    0 -0.00000000000E+00 -0.00000000000E+00 -0.74505805969E-08  0.93827000000E+00  0.93827000000E+00 0. -1.
     999902    2    1    2    0    0 -0.72330605854E-02  0.22363835884E-01 -0.49023443593E-02  0.10199197667E+01  0.10196371116E+01 0.  0.
     999903    2    3    3    0    0  0.92611422312E-01 -0.79271548060E-01  0.32979811086E-01  0.12765650417E+00  0.18645676260E-01 0.  0.
         14    1    1    2    0    0  0.72330605854E-02 -0.22363835884E-01  0.49023443593E-02  0.24010233258E-01  0.00000000000E+00 0.  1.
     999901    1    3    3    0    0 -0.99844482898E-01  0.10163538394E+00 -0.37882155445E-01  0.89226326257E+00  0.88000000000E+00 0. -1.
        -11    1    4    4    0    0  0.21292880015E-01 -0.10478213418E-01  0.10974334415E-01  0.26151038844E-01  0.51100000000E-03 0. -1.
         11    1    4    4    0    0  0.71318542297E-01 -0.68793334642E-01  0.22005476671E-01  0.10150546533E+00  0.51100000000E-03 0.  1.
</event>
<event>
 8    1  0.1295066E+005  0.1043930E+01  0.7957747E-01            NaN
         13   -1    0    0    0    0  0.00000000000E+00  0.00000000000E+00  0.74505805969E-08  0.10566000000E+00  0.10566000000E+00 0. -1.
     999900   -1    0    0    0    0 -0.00000000000E+00 -0.00000000000E+00 -0.74505805969E-08  0.93827000000E+00  0.93827000000E+00 0. -1.
     999902    2    1    2    0    0  0.22907540287E-01  0.48299321209E-03  0.14156179953E-01  0.10169970069E+01  0.10166403130E+01 0.  0.
     999903    2    3    3    0    0 -0.13975578933E-01 -0.93614312341E-01 -0.81031595679E-01  0.12611240160E+00  0.19474651674E-01 0.  0.
         14    1    1    2    0    0 -0.22907540287E-01 -0.48299321209E-03 -0.14156179953E-01  0.26932993063E-01  0.00000000000E+00 0.  1.
     999901    1    3    3    0    0  0.36883119220E-01  0.94097305553E-01  0.95187775631E-01  0.89088460534E+00  0.88000000000E+00 0.  1.
        -11    1    4    4    0    0  0.24088408666E-02 -0.49175299257E-01 -0.39688798367E-01  0.63241397898E-01  0.51100000000E-03 0. -1.
         11    1    4    4    0    0 -0.16384419799E-01 -0.44439013084E-01 -0.41342797312E-01  0.62871003703E-01  0.51100000000E-03 0.  1.
</event>
<event>
 8    1  0.1042301E+005  0.1043930E+01  0.7957747E-01            NaN
         13   -1    0    0    0    0  0.00000000000E+00  0.00000000000E+00  0.74505805969E-08  0.10566000000E+00  0.10566000000E+00 0. -1.
     999900   -1    0    0    0    0 -0.00000000000E+00 -0.00000000000E+00 -0.74505805969E-08  0.93827000000E+00  0.93827000000E+00 0.  1.
     999902    2    1    2    0    0  0.60511004341E-02  0.23344185217E-01 -0.27249782373E-02  0.10196608363E+01  0.10193719776E+01 0.  0.
     999903    2    3    3    0    0 -0.74454117257E-01  0.69641767779E-01 -0.80057326309E-01  0.13140138756E+00  0.21535035681E-01 0.  0.
         14    1    1    2    0    0 -0.60511004341E-02 -0.23344185217E-01  0.27249782373E-02  0.24269163692E-01  0.00000000000E+00 0. -1.
     999901    1    3    3    0    0  0.80505217692E-01 -0.46297582562E-01  0.77332348071E-01  0.88825944875E+00  0.88000000000E+00 0. -1.
        -11    1    4    4    0    0 -0.30173718629E-01  0.33178740269E-01 -0.22645637316E-01  0.50243090193E-01  0.51100000000E-03 0. -1.
         11    1    4    4    0    0 -0.44280398629E-01  0.36463027510E-01 -0.57411688993E-01  0.81158297369E-01  0.51100000000E-03 0.  1.
</event>
<event>
 8    1  0.1042301E+005  0.1043930E+01  0.7957747E-01            NaN
         13   -1    0    0    0    0  0.00000000000E+00  0.00000000000E+00  0.74505805969E-08  0.10566000000E+00  0.10566000000E+00 0. -1.
     999900   -1    0    0    0    0 -0.00000000000E+00 -0.00000000000E+00 -0.74505805969E-08  0.93827000000E+00  0.93827000000E+00 0. -1.
     999902    2    1    2    0    0  0.22470939916E-01 -0.54663297187E-02  0.24595895959E-02  0.10206733132E+01  0.10204083196E+01 0.  0.
     999903    2    3    3    0    0  0.78337733577E-01 -0.75251401595E-01  0.74451165764E-01  0.13321974147E+00  0.20123356794E-01 0.  0.
         14    1    1    2    0    0 -0.22470939916E-01  0.54663297187E-02 -0.24595895959E-02  0.23256686830E-01  0.00000000000E+00 0. -1.
     999901    1    3    3    0    0 -0.55866793661E-01  0.69785071877E-01 -0.71991576168E-01  0.88745357170E+00  0.88000000000E+00 0. -1.
        -11    1    4    4    0    0  0.55541273412E-01 -0.51789672591E-01  0.62616825853E-01  0.98428305076E-01  0.51100000000E-03 0. -1.
         11    1    4    4    0    0  0.22796460165E-01 -0.23461729005E-01  0.11834339911E-01  0.34791436390E-01  0.51100000000E-03 0.  1.
</event>
<event>
 8    1  0.1110854E+005  0.1043930E+01  0.7957747E-01            NaN
         13   -1    0    0    0    0  0.00000000000E+00  0.00000000000E+00  0.74505805969E-08  0.10566000000E+00  0.10566000000E+00 0.  1.
     999900   -1    0    0    0    0 -0.00000000000E+00 -0.00000000000E+00 -0.74505805969E-08  0.93827000000E+00  0.93827000000E+00 0.  1.
     999902    2    1    2    0    0  0.11293545508E-01 -0.16402470108E-01 -0.78057264073E-02  0.10225404100E+01  0.10223166709E+01 0.  0.
     999903    2    3    3    0    0 -0.11827534673E+00 -0.28332542588E-01  0.44674621483E-01  0.13142615729E+00  0.22027764351E-01 0.  0.
         14    1    1    2    0    0 -0.11293545508E-01  0.16402470108E-01  0.78057264073E-02  0.21389590004E-01  0.00000000000E+00 0.  1.
     999901    1    3    3    0    0  0.12956889223E+00  0.11930072479E-01 -0.52480347890E-01  0.89111425271E+00  0.88000000000E+00 0. -1.
        -11    1    4    4    0    0 -0.78544311825E-01 -0.25211293740E-01  0.38716557864E-01  0.91126567070E-01  0.51100000000E-03 0. -1.
         11    1    4    4    0    0 -0.39731034902E-01 -0.31212488476E-02  0.59580636183E-02  0.40299590219E-01  0.51100000000E-03 0.  1.
</event>
<event>
 8    1  0.1042301E+005  0.1043930E+01  0.7957747E-01            NaN
         13   -1    0    0    0    0  0.00000000000E+00  0.00000000000E+00  0.74505805969E-08  0.10566000000E+00  0.10566000000E+00 0. -1.
     999900   -1    0    0    0    0 -0.00000000000E+00 -0.00000000000E+00 -0.74505805969E-08  0.93827000000E+00  0.93827000000E+00 0. -1.
     999902    2    1    2    0    0  0.13411476420E-01 -0.16320441787E-01  0.16743284165E-01  0.10169751844E+01  0.10166179044E+01 0.  0.
     999903    2    3    3    0    0  0.30602993651E-01 -0.35905825864E-02  0.12462520279E+00  0.13012902753E+00  0.21276445450E-01 0.  0.
         14    1    1    2    0    0 -0.13411476420E-01  0.16320441787E-01 -0.16743284165E-01  0.26954815609E-01  0.00000000000E+00 0.  1.
     999901    1    3    3    0    0 -0.17191517232E-01 -0.12729859201E-01 -0.10788191862E+00  0.88684615686E+00  0.88000000000E+00 0. -1.
        -11    1    4    4    0    0  0.11306378599E-01 -0.11767901764E-01  0.60471888573E-01  0.62637274346E-01  0.51100000000E-03 0.  1.
         11    1    4    4    0    0  0.19296615052E-01  0.81773191774E-02  0.64153314216E-01  0.67491753180E-01  0.51100000000E-03 0. -1.
</event>
<event>
 8    1  0.1042301E+005  0.1043930E+01  0.7957747E-01            NaN
         13   -1    0    0    0    0  0.00000000000E+00  0.00000000000E+00  0.74505805969E-08  0.10566000000E+00  0.10566000000E+00 0.  1.
     999900   -1    0    0    0    0 -0.00000000000E+00 -0.00000000000E+00 -0.74505805969E-08  0.93827000000E+00  0.93827000000E+00 0. -1.
     999902    2    1    2    0    0  0.18564944541E-01 -0.53424430163E-02 -0.12287564645E-01  0.10210349545E+01  0.10207782302E+01 0.  0.
     999903    2    3    3    0    0 -0.15778744354E-01 -0.26736134719E-01  0.12420516122E+00  0.12959373759E+00  0.20095399338E-01 0.  0.
         14    1    1    2    0    0 -0.18564944541E-01  0.53424430163E-02  0.12287564645E-01  0.22895045492E-01  0.00000000000E+00 0.  1.
     999901    1    3    3    0    0  0.34343688895E-01  0.21393691703E-01 -0.13649272587E+00  0.89144121692E+00  0.88000000000E+00 0. -1.
        -11    1    4    4    0    0 -0.18846787132E-01 -0.24311481521E-01  0.11977242484E+00  0.12366060162E+00  0.51100000000E-03 0.  1.
         11    1    4    4    0    0  0.30680427779E-02 -0.24246531985E-02  0.44327363804E-02  0.59331359700E-02  0.51100000000E-03 0. -1.
</event>
<event>
 8    1  0.1042301E+005  0.1043930E+01  0.7957747E-01            NaN
         13   -1    0    0    0    0  0.00000000000E+00  0.00000000000E+00  0.74505805969E-08  0.10566000000E+00  0.10566000000E+00 0.  1.
     999900   -1    0    0    0    0 -0.00000000000E+00 -0.00000000000E+00 -0.74505805969E-08  0.93827000000E+00  0.93827000000E+00 0. -1.
     999902    2    1    2    0    0  0.11940255334E-02  0.17567024786E-01  0.14066486335E-01  0.10213935386E+01  0.10211448812E+01 0.  0.
     999903    2    3    3    0    0  0.11209301958E+00  0.59233072318E-01 -0.31906635663E-01  0.13226577814E+00  0.20069897175E-01 0.  0.
         14    1    1    2    0    0 -0.11940255334E-02 -0.17567024786E-01 -0.14066486335E-01  0.22536461448E-01  0.00000000000E+00 0. -1.
     999901    1    3    3    0    0 -0.11089899404E+00 -0.41666047533E-01  0.45973121998E-01  0.88912776042E+00  0.88000000000E+00 0.  1.
        -11    1    4    4    0    0  0.39805893600E-01  0.10833544411E-01 -0.12799291952E-01  0.43196734197E-01  0.51100000000E-03 0.  1.
         11    1    4    4    0    0  0.72287125976E-01  0.48399527907E-01 -0.19107343710E-01  0.89069043939E-01  0.51100000000E-03 0. -1.
</event>
<event>
 8    1  0.1042301E+005  0.1043930E+01  0.7957747E-01            NaN
         13   -1    0    0    0    0  0.00000000000E+00  0.00000000000E+00  0.74505805969E-08  0.10566000000E+00  0.10566000000E+00 0. -1.
     999900   -1    0    0    0    0 -0.00000000000E+00 -0.00000000000E+00 -0.74505805969E-08  0.93827000000E+00  0.93827000000E+00 0.  1.
     999902    2    1    2    0    0  0.12391357161E-02  0.13241232227E-01 -0.19914936678E-01  0.10199827582E+01  0.10197016017E+01 0.  0.
     999903    2    3    3    0    0 -0.10319522329E+00  0.70658591078E-01  0.27853619150E-01  0.13066553504E+00  0.25607954708E-01 0.  0.
         14    1    1    2    0    0 -0.12391357161E-02 -0.13241232227E-01  0.19914936678E-01  0.23947241827E-01  0.00000000000E+00 0. -1.
     999901    1    3    3    0    0  0.10443435901E+00 -0.57417358852E-01 -0.47768555828E-01  0.88931722313E+00  0.88000000000E+00 0.  1.
        -11    1    4    4    0    0 -0.28722489554E-01  0.10474773600E-01 -0.12047818968E-02  0.30600897186E-01  0.51100000000E-03 0. -1.
         11    1    4    4    0    0 -0.74472733735E-01  0.60183817479E-01  0.29058401046E-01  0.10006463785E+00  0.51100000000E-03 0.  1.
</event>
<event>
 8    1  0.1042301E+005  0.1043930E+01  0.7957747E-01            NaN
         13   -1    0    0    0    0  0.00000000000E+00  0.00000000000E+00  0.74505805969E-08  0.10566000000E+00  0.10566000000E+00 0.  1.
     999900   -1    0    0    0    0 -0.00000000000E+00 -0.00000000000E+00 -0.74505805969E-08  0.93827000000E+00  0.93827000000E+00 0. -1.
     999902    2    1    2    0    0 -0.56510502816E-02 -0.21136423027E-01  0.45946807116E-02  0.10215739306E+01  0.10213292818E+01 0.  0.
     999903    2    3    3    0    0 -0.99549033732E-01 -0.49394814460E-01 -0.70233514749E-01  0.13297130468E+00  0.19969062594E-01 0.  0.
         14    1    1    2    0    0  0.56510502816E-02  0.21136423027E-01 -0.45946807116E-02  0.22356069389E-01  0.00000000000E+00 0. -1.
     999901    1    3    3    0    0  0.93897983451E-01  0.28258391433E-01  0.74828195460E-01  0.88860262593E+00  0.88000000000E+00 0.  1.
        -11    1    4    4    0    0 -0.59702354612E-01 -0.27315187686E-01 -0.29978483155E-01  0.72176597300E-01  0.51100000000E-03 0. -1.
         11    1    4    4    0    0 -0.39846679120E-01 -0.22079626774E-01 -0.40255031594E-01  0.60794707377E-01  0.51100000000E-03 0.  1.
</event>
<event>
 8    1  0.1042301E+005  0.1043930E+01  0.7957747E-01            NaN
         13   -1    0    0    0    0  0.00000000000E+00  0.00000000000E+00  0.74505805969E-08  0.10566000000E+00  0.10566000000E+00 0.  1.
     999900   -1    0    0    0    0 -0.00000000000E+00 -0.00000000000E+00 -0.74505805969E-08  0.93827000000E+00  0.93827000000E+00 0.  1.
     999902    2    1    2    0    0 -0.17780584818E-01  0.75004841778E-02 -0.11788100799E-01  0.10213166018E+01  0.10210662247E+01 0.  0.
     999903    2    3    3    0    0 -0.91706554093E-01 -0.89027845574E-01  0.26585238713E-01  0.13212861232E+00  0.20375130090E-01 0.  0.
         14    1    1    2    0    0  0.17780584818E-01 -0.75004841778E-02  0.11788100799E-01  0.22613398237E-01  0.00000000000E+00 0.  1.
     999901    1    3    3    0    0  0.73925969274E-01  0.96528329752E-01 -0.38373339511E-01  0.88918798944E+00  0.88000000000E+00 0.  1.
        -11    1    4    4    0    0 -0.11681454005E-03 -0.44481927847E-02 -0.62831195176E-03  0.45228267262E-02  0.51100000000E-03 0.  1.
         11    1    4    4    0    0 -0.91589739553E-01 -0.84579652789E-01  0.27213550664E-01  0.12760578560E+00  0.51100000000E-03 0. -1.
</event>
<event>
 8    1  0.1042301E+005  0.1043930E+01  0.7957747E-01            NaN
         13   -1    0    0    0    0  0.00000000000E+00  0.00000000000E+00  0.74505805969E-08  0.10566000000E+00  0.10566000000E+00 0.  1.
     999900   -1    0    0    0    0 -0.00000000000E+00 -0.00000000000E+00 -0.74505805969E-08  0.93827000000E+00  0.93827000000E+00 0.  1.
     999902    2    1    2    0    0  0.52303018176E-02 -0.22704755319E-01 -0.36016904303E-02  0.10203538649E+01  0.10200814553E+01 0.  0.
     999903    2    3    3    0    0 -0.10940457298E-01 -0.69581615625E-01  0.10977762236E+00  0.13169543670E+00  0.18200737324E-01 0.  0.
         14    1    1    2    0    0 -0.52303018176E-02  0.22704755319E-01  0.36016904303E-02  0.23576135077E-01  0.00000000000E+00 0.  1.
     999901    1    3    3    0    0  0.16170759116E-01  0.46876860305E-01 -0.11337931279E+00  0.88865842822E+00  0.88000000000E+00 0.  1.
        -11    1    4    4    0    0 -0.89967905102E-03 -0.54974076433E-01  0.81272552762E-01  0.98124652639E-01  0.51100000000E-03 0. -1.
         11    1    4    4    0    0 -0.10040778247E-01 -0.14607539192E-01  0.28505069593E-01  0.33570784062E-01  0.51100000000E-03 0.  1.
</event>
<event>
 8    1  0.1042301E+005  0.1043930E+01  0.7957747E-01            NaN
         13   -1    0    0    0    0  0.00000000000E+00  0.00000000000E+00  0.74505805969E-08  0.10566000000E+00  0.10566000000E+00 0. -1.
     999900   -1    0    0    0    0 -0.00000000000E+00 -0.00000000000E+00 -0.74505805969E-08  0.93827000000E+00  0.93827000000E+00 0. -1.
     999902    2    1    2    0    0 -0.45057178489E-02  0.91077221466E-02  0.21925780792E-01  0.10197640744E+01  0.10194776974E+01 0.  0.
     999903    2    3    3    0    0  0.12217786790E+00  0.29640699850E-01  0.29450587023E-01  0.13042333163E+00  0.18354995671E-01 0.  0.
         14    1    1    2    0    0  0.45057178489E-02 -0.91077221466E-02 -0.21925780792E-01  0.24165925585E-01  0.00000000000E+00 0. -1.
     999901    1    3    3    0    0 -0.12668358574E+00 -0.20532977703E-01 -0.75248062318E-02  0.88934074279E+00  0.88000000000E+00 0. -1.
        -11    1    4    4    0    0  0.32638845649E-01  0.31917947072E-02  0.97746648189E-03  0.32813082155E-01  0.51100000000E-03 0.  1.
         11    1    4    4    0    0  0.89539022247E-01  0.26448905143E-01  0.28473120542E-01  0.97610249475E-01  0.51100000000E-03 0. -1.
</event>
<event>
 8    1  0.1042301E+005  0.1043930E+01  0.7957747E-01            NaN
         13   -1    0    0    0    0  0.00000000000E+00  0.00000000000E+00  0.74505805969E-08  0.10566000000E+00  0.10566000000E+00 0. -1.
     999900   -1    0    0    0    0 -0.00000000000E+00 -0.00000000000E+00 -0.74505805969E-08  0.93827000000E+00  0.93827000000E+00 0. -1.
     999902    2    1    2    0    0 -0.21021077486E-01 -0.12812661666E-02  0.11241146910E-01  0.10200576158E+01  0.10197782352E+01 0.  0.
     999903    2    3    3    0    0  0.11921853706E+00  0.20969282900E-01 -0.34521354593E-01  0.12750148709E+00  0.20301105489E-01 0.  0.
         14    1    1    2    0    0  0.21021077486E-01  0.12812661666E-02 -0.11241146910E-01  0.23872384161E-01  0.00000000000E+00 0.  1.
     999901    1    3    3    0    0 -0.14023961454E+00 -0.22250549066E-01  0.45762501503E-01  0.89255612875E+00  0.88000000000E+00 0. -1.
        -11    1    4    4    0    0  0.63856536812E-01  0.17542939591E-01 -0.27027368685E-01  0.71527280126E-01  0.51100000000E-03 0. -1.
         11    1    4    4    0    0  0.55362000246E-01  0.34263433088E-02 -0.74939859076E-02  0.55974206966E-01  0.51100000000E-03 0.  1.
</event>
<event>
 8    1  0.1042301E+005  0.1043930E+01  0.7957747E-01            NaN
         13   -1    0    0    0    0  0.00000000000E+00  0.00000000000E+00  0.74505805969E-08  0.10566000000E+00  0.10566000000E+00 0.  1.
     999900   -1    0    0    0    0 -0.00000000000E+00 -0.00000000000E+00 -0.74505805969E-08  0.93827000000E+00  0.93827000000E+00 0. -1.
     999902    2    1    2    0    0 -0.15428763065E-01 -0.78797821315E-02 -0.15349480438E-01  0.10207838503E+01  0.10205213985E+01 0.  0.
     999903    2    3    3    0    0 -0.98175601628E-01  0.16881651199E-01 -0.86874808685E-01  0.13366714972E+00  0.19905668223E-01 0.  0.
         14    1    1    2    0    0  0.15428763065E-01  0.78797821315E-02  0.15349480438E-01  0.23146149699E-01  0.00000000000E+00 0.  1.
     999901    1    3    3    0    0  0.82746838563E-01 -0.24761433331E-01  0.71525328247E-01  0.88711670058E+00  0.88000000000E+00 0.  1.
        -11    1    4    4    0    0 -0.31371001131E-01 -0.14139214480E-03 -0.37359696800E-01  0.48786963112E-01  0.51100000000E-03 0. -1.
         11    1    4    4    0    0 -0.66804600497E-01  0.17023043344E-01 -0.49515111885E-01  0.84880186606E-01  0.51100000000E-03 0.  1.
</event>
<event>
 7    1  0.1042301E+005  0.1043930E+01  0.7957747E-01            NaN
         13   -1    0    0    0    0  0.00000000000E+00  0.00000000000E+00  0.74505805969E-08  0.10566000000E+00  0.10566000000E+00 0. -1.
     999900   -1    0    0    0    0 -0.00000000000E+00 -0.00000000000E+00 -0.74505805969E-08  0.93827000000E+00  0.93827000000E+00 0.  1.
     999902    2    1    2    0    0 -0.85161401237E-02  0.12118819880E-01  0.17592487433E-01  0.10209324773E+01  0.10206734233E+01 0.  0.
         14    1    1    2    0    0  0.85161401237E-02 -0.12118819880E-01 -0.17592487433E-01  0.22997522735E-01  0.00000000000E+00 0.  1.
     999901    1    3    3    0    0 -0.23736759634E-01  0.13469245867E+00  0.53814583985E-01  0.89218916247E+00  0.88000000000E+00 0.  1.
        -11    1    3    3    0    0  0.48951572336E-02 -0.48875320692E-01 -0.14258465606E-01  0.51150019546E-01  0.51100000000E-03 0.  1.
         11    1    3    3    0    0  0.10325462277E-01 -0.73698318101E-01 -0.21963630947E-01  0.77593295248E-01  0.51100000000E-03 0. -1.
</event>
<event>
 7    1  0.1134781E+005  0.1043930E+01  0.7957747E-01            NaN
         13   -1    0    0    0    0  0.00000000000E+00  0.00000000000E+00  0.74505805969E-08  0.10566000000E+00  0.10566000000E+00 0.  1.
     999900   -1    0    0    0    0 -0.00000000000E+00 -0.00000000000E+00 -0.74505805969E-08  0.93827000000E+00  0.93827000000E+00 0.  1.
     999903    2    1    2    0    0  0.13480309763E-01 -0.10176216818E+00  0.50486558639E-01  0.11603982512E+00  0.19470253905E-01 0.  0.
         14    1    1    2    0    0 -0.25620542409E-01  0.31055380371E-01 -0.18720568646E-01  0.44399420421E-01  0.00000000000E+00 0. -1.
     999901    1    1    2    0    0  0.12140232646E-01  0.70706787809E-01 -0.31765989993E-01  0.88349075446E+00  0.88000000000E+00 0. -1.
        -11    1    3    3    0    0  0.88903107912E-02 -0.59607190496E-01  0.40065403347E-01  0.72370936509E-01  0.51100000000E-03 0.  1.
         11    1    3    3    0    0  0.45899989720E-02 -0.42154977684E-01  0.10421155292E-01  0.43668888613E-01  0.51100000000E-03 0. -1.
</event>
<event>
 8    1  0.1042301E+005  0.1043930E+01  0.7957747E-01            NaN
         13   -1    0    0    0    0  0.00000000000E+00  0.00000000000E+00  0.74505805969E-08  0.10566000000E+00  0.10566000000E+00 0. -1.
     999900   -1    0    0    0    0 -0.00000000000E+00 -0.00000000000E+00 -0.74505805969E-08  0.93827000000E+00  0.93827000000E+00 0. -1.
     999902    2    1    2    0    0 -0.65397881918E-02  0.10364699771E-01 -0.20646430074E-01  0.10199201915E+01  0.10196375464E+01 0.  0.
     999903    2    3    3    0    0 -0.34745672820E-01  0.15683794966E-01  0.11954644780E+00  0.12836093505E+00  0.27054265108E-01 0.  0.
         14    1    1    2    0    0  0.65397881918E-02 -0.10364699771E-01  0.20646430074E-01  0.24009808532E-01  0.00000000000E+00 0. -1.
     999901    1    3    3    0    0  0.28205884628E-01 -0.53190951954E-02 -0.14019287787E+00  0.89155925642E+00  0.88000000000E+00 0. -1.
        -11    1    4    4    0    0 -0.45673571092E-02 -0.51821822392E-02  0.42050075310E-01  0.42616730497E-01  0.51100000000E-03 0. -1.
         11    1    4    4    0    0 -0.30178315711E-01  0.20865977205E-01  0.77496372490E-01  0.85744204551E-01  0.51100000000E-03 0.  1.
</event>
<event>
 8    1  0.1042301E+005  0.1043930E+01  0.7957747E-01            NaN
         13   -1    0    0    0    0  0.00000000000E+00  0.00000000000E+00  0.74505805969E-08  0.10566000000E+00  0.10566000000E+00 0.  1.
     999900   -1    0    0    0    0 -0.00000000000E+00 -0.00000000000E+00 -0.74505805969E-08  0.93827000000E+00  0.93827000000E+00 0.  1.
     999902    2    1    2    0    0 -0.22569358845E-01 -0.19281142463E-02 -0.91662724328E-02  0.10194940811E+01  0.10192011907E+01 0.  0.
     999903    2    3    3    0    0  0.91420795892E-01  0.86853437687E-01 -0.44682583792E-02  0.12769926685E+00  0.19643214160E-01 0.  0.
         14    1    1    2    0    0  0.22569358845E-01  0.19281142463E-02  0.91662724328E-02  0.24435918922E-01  0.00000000000E+00 0.  1.
     999901    1    3    3    0    0 -0.11399015474E+00 -0.88781551934E-01 -0.46980140536E-02  0.89179481422E+00  0.88000000000E+00 0.  1.
        -11    1    4    4    0    0  0.59867623265E-01  0.44870605651E-01 -0.68019183146E-02  0.75126764742E-01  0.51100000000E-03 0. -1.
         11    1    4    4    0    0  0.31553172627E-01  0.41982832036E-01  0.23336599354E-02  0.52572502112E-01  0.51100000000E-03 0.  1.
</event>
<event>
 8    1  0.1538895E+005  0.1043930E+01  0.7957747E-01            NaN
         13   -1    0    0    0    0  0.00000000000E+00  0.00000000000E+00  0.74505805969E-08  0.10566000000E+00  0.10566000000E+00 0. -1.
     999900   -1    0    0    0    0 -0.00000000000E+00 -0.00000000000E+00 -0.74505805969E-08  0.93827000000E+00  0.93827000000E+00 0. -1.
     999902    2    1    2    0    0  0.55453104509E-02  0.59557902204E-02  0.21817329163E-01  0.10206444303E+01  0.10203787705E+01 0.  0.
     999903    2    3    3    0    0  0.25363821356E-01  0.91384639305E-01  0.93591447909E-01  0.13337762388E+00  0.59796065931E-02 0.  0.
         14    1    1    2    0    0 -0.55453104509E-02 -0.59557902204E-02 -0.21817329163E-01  0.23285569715E-01  0.00000000000E+00 0.  1.
     999901    1    3    3    0    0 -0.19818510905E-01 -0.85428849085E-01 -0.71774118746E-01  0.88726680641E+00  0.88000000000E+00 0. -1.
        -11    1    4    4    0    0  0.20937750088E-01  0.68485054700E-01  0.68160586355E-01  0.98867177310E-01  0.51100000000E-03 0. -1.
         11    1    4    4    0    0  0.44260712678E-02  0.22899584605E-01  0.25430861554E-01  0.34510446568E-01  0.51100000000E-03 0.  1.
</event>
<event>
 8    1  0.1042301E+005  0.1043930E+01  0.7957747E-01            NaN
         13   -1    0    0    0    0  0.00000000000E+00  0.00000000000E+00  0.74505805969E-08  0.10566000000E+00  0.10566000000E+00 0.  1.
     999900   -1    0    0    0    0 -0.00000000000E+00 -0.00000000000E+00 -0.74505805969E-08  0.93827000000E+00  0.93827000000E+00 0. -1.
     999902    2    1    2    0    0  0.19654105936E-01  0.22817039172E-02  0.12668336792E-01  0.10204358133E+01  0.10201653161E+01 0.  0.
     999903    2    3    3    0    0  0.11700947162E+00 -0.58765764385E-01 -0.72460512250E-02  0.13274135939E+00  0.20570165805E-01 0.  0.
         14    1    1    2    0    0 -0.19654105936E-01 -0.22817039172E-02 -0.12668336792E-01  0.23494186727E-01  0.00000000000E+00 0. -1.
     999901    1    3    3    0    0 -0.97355365681E-01  0.61047468302E-01  0.19914388017E-01  0.88769445389E+00  0.88000000000E+00 0. -1.
        -11    1    4    4    0    0  0.75638372291E-01 -0.34160271483E-01 -0.13879262763E-01  0.84148574359E-01  0.51100000000E-03 0. -1.
         11    1    4    4    0    0  0.41371099326E-01 -0.24605492901E-01  0.66332115384E-02  0.48592785027E-01  0.51100000000E-03 0.  1.
</event>
<event>
 8    1  0.1042301E+005  0.1043930E+01  0.7957747E-01            NaN
         13   -1    0    0    0    0  0.00000000000E+00  0.00000000000E+00  0.74505805969E-08  0.10566000000E+00  0.10566000000E+00 0.  1.
     999900   -1    0    0    0    0 -0.00000000000E+00 -0.00000000000E+00 -0.74505805969E-08  0.93827000000E+00  0.93827000000E+00 0.  1.
     999902    2    1    2    0    0 -0.19249701610E-01  0.97865061510E-02 -0.10617395866E-01  0.10198664215E+01  0.10195824939E+01 0.  0.
     999903    2    3    3    0    0 -0.73645162229E-01 -0.55826862511E-01 -0.92062600377E-01  0.13200533912E+00  0.20239532379E-01 0.  0.
         14    1    1    2    0    0  0.19249701610E-01 -0.97865061510E-02  0.10617395866E-01  0.24063578489E-01  0.00000000000E+00 0.  1.
     999901    1    3    3    0    0  0.54395460619E-01  0.65613368662E-01  0.81445204511E-01  0.88786108239E+00  0.88000000000E+00 0. -1.
        -11    1    4    4    0    0 -0.32118391923E-01 -0.12784918375E-01 -0.29446814412E-01  0.45413888157E-01  0.51100000000E-03 0.  1.
         11    1    4    4    0    0 -0.41526770306E-01 -0.43041944137E-01 -0.62615785965E-01  0.86591450965E-01  0.51100000000E-03 0. -1.
</event>
<event>
 8    1  0.1042301E+005  0.1043930E+01  0.7957747E-01            NaN
         13   -1    0    0    0    0  0.00000000000E+00  0.00000000000E+00  0.74505805969E-08  0.10566000000E+00  0.10566000000E+00 0. -1.
     999900   -1    0    0    0    0 -0.00000000000E+00 -0.00000000000E+00 -0.74505805969E-08  0.93827000000E+00  0.93827000000E+00 0.  1.
     999902    2    1    2    0    0  0.16288359931E-01 -0.56770643522E-02  0.16282432036E-01  0.10202096011E+01  0.10199338081E+01 0.  0.
     999903    2    3    3    0    0 -0.42962650370E-01 -0.10960882385E+00  0.54585214834E-01  0.13128913450E+00  0.19935083805E-01 0.  0.
         14    1    1    2    0    0 -0.16288359931E-01  0.56770643522E-02 -0.16282432036E-01  0.23720398856E-01  0.00000000000E+00 0.  1.
     999901    1    3    3    0    0  0.59251010300E-01  0.10393175950E+00 -0.38302782798E-01  0.88892046665E+00  0.88000000000E+00 0.  1.
        -11    1    4    4    0    0 -0.10722433826E-01 -0.54517639626E-01  0.26051245820E-01  0.61368331796E-01  0.51100000000E-03 0. -1.
         11    1    4    4    0    0 -0.32240216543E-01 -0.55091184222E-01  0.28533969013E-01  0.69920802701E-01  0.51100000000E-03 0.  1.
</event>
<event>
 8    1  0.1042301E+005  0.1043930E+01  0.7957747E-01            NaN
         13   -1    0    0    0    0  0.00000000000E+00  0.00000000000E+00  0.74505805969E-08  0.10566000000E+00  0.10566000000E+00 0.  1.
     999900   -1    0    0    0    0 -0.00000000000E+00 -0.00000000000E+00 -0.74505805969E-08  0.93827000000E+00  0.93827000000E+00 0.  1.
     999902    2    1    2    0    0  0.23388892065E-01  0.30705022024E-02 -0.14406799253E-02  0.10202964684E+01  0.10200227153E+01 0.  0.
     999903    2    3    3    0    0  0.41132369579E-01 -0.11246616572E+00  0.49439502051E-01  0.13111012938E+00  0.20126882618E-01 0.  0.
         14    1    1    2    0    0 -0.23388892065E-01 -0.30705022024E-02  0.14406799253E-02  0.23633531570E-01  0.00000000000E+00 0. -1.
     999901    1    3    3    0    0 -0.17743477514E-01  0.11553666793E+00 -0.50880181976E-01  0.88918633905E+00  0.88000000000E+00 0.  1.
        -11    1    4    4    0    0  0.75092189628E-03 -0.18122326805E-01  0.12528198361E-01  0.22049931694E-01  0.51100000000E-03 0. -1.
         11    1    4    4    0    0  0.40381447683E-01 -0.94343838919E-01  0.36911303690E-01  0.10906019769E+00  0.51100000000E-03 0.  1.
</event>
<event>
 8    1  0.1042301E+005  0.1043930E+01  0.7957747E-01            NaN
         13   -1    0    0    0    0  0.00000000000E+00  0.00000000000E+00  0.74505805969E-08  0.10566000000E+00  0.10566000000E+00 0.  1.
     999900   -1    0    0    0    0 -0.00000000000E+00 -0.00000000000E+00 -0.74505805969E-08  0.93827000000E+00  0.93827000000E+00 0.  1.
     999902    2    1    2    0    0 -0.48323748237E-02  0.22467226446E-01 -0.74254581143E-02  0.10197791089E+01  0.10194930924E+01 0.  0.
     999903    2    3    3    0    0 -0.71796441650E-01  0.73828641007E-01  0.79485599920E-01  0.13147977135E+00  0.19067574943E-01 0.  0.
         14    1    1    2    0    0  0.48323748237E-02 -0.22467226446E-01  0.74254581143E-02  0.24150891057E-01  0.00000000000E+00 0. -1.
     999901    1    3    3    0    0  0.66964066827E-01 -0.51361414561E-01 -0.86911058035E-01  0.88829933759E+00  0.88000000000E+00 0. -1.
        -11    1    4    4    0    0 -0.41005528276E-01  0.54336471274E-01  0.47730698785E-01  0.83140761286E-01  0.51100000000E-03 0.  1.
         11    1    4    4    0    0 -0.30790913374E-01  0.19492169734E-01  0.31754901135E-01  0.48339010069E-01  0.51100000000E-03 0. -1.
</event>
<event>
 8    1  0.1078124E+005  0.1043930E+01  0.7957747E-01            NaN
         13   -1    0    0    0    0  0.00000000000E+00  0.00000000000E+00  0.74505805969E-08  0.10566000000E+00  0.10566000000E+00 0. -1.
     999900   -1    0    0    0    0 -0.00000000000E+00 -0.00000000000E+00 -0.74505805969E-08  0.93827000000E+00  0.93827000000E+00 0.  1.
     999902    2    1    2    0    0 -0.11018896081E-01 -0.13972024344E-01  0.16821298755E-01  0.10194434807E+01  0.10191493613E+01 0.  0.
     999903    2    3    3    0    0  0.10298672643E+00  0.72710290293E-01  0.17734346555E-01  0.12786513907E+00  0.11913631081E-01 0.  0.
         14    1    1    2    0    0  0.11018896081E-01  0.13972024344E-01 -0.16821298755E-01  0.24486519290E-01  0.00000000000E+00 0.  1.
     999901    1    3    3    0    0 -0.11400562251E+00 -0.86682314637E-01 -0.91304780027E-03  0.89157834165E+00  0.88000000000E+00 0.  1.
        -11    1    4    4    0    0  0.60621566150E-01  0.49785136032E-01  0.10196067857E-01  0.79105973055E-01  0.51100000000E-03 0. -1.
         11    1    4    4    0    0  0.42365160279E-01  0.22925154261E-01  0.75382786979E-02  0.48759166010E-01  0.51100000000E-03 0.  1.
</event>
<event>
 8    1  0.1042301E+005  0.1043930E+01  0.7957747E-01            NaN
         13   -1    0    0    0    0  0.00000000000E+00  0.00000000000E+00  0.74505805969E-08  0.10566000000E+00  0.10566000000E+00 0.  1.
     999900   -1    0    0    0    0 -0.00000000000E+00 -0.00000000000E+00 -0.74505805969E-08  0.93827000000E+00  0.93827000000E+00 0.  1.
     999902    2    1    2    0    0 -0.64926893082E-02 -0.11621526048E-01  0.17799710052E-01  0.10217028868E+01  0.10214610831E+01 0.  0.
     999903    2    3    3    0    0 -0.59901940622E-01 -0.11730140852E+00 -0.76125905619E-02  0.13340869530E+00  0.19800644315E-01 0.  0.
         14    1    1    2    0    0  0.64926893082E-02  0.11621526048E-01 -0.17799710052E-01  0.22227113175E-01  0.00000000000E+00 0. -1.
     999901    1    3    3    0    0  0.53409251314E-01  0.10567988247E+00  0.25412300614E-01  0.88829419153E+00  0.88000000000E+00 0.  1.
        -11    1    4    4    0    0 -0.23806806330E-01 -0.36704173090E-01  0.56177853325E-02  0.44111007503E-01  0.51100000000E-03 0.  1.
         11    1    4    4    0    0 -0.36095134293E-01 -0.80597235425E-01 -0.13230375894E-01  0.89297687792E-01  0.51100000000E-03 0. -1.
</event>
<event>
 8    1  0.1042301E+005  0.1043930E+01  0.7957747E-01            NaN
         13   -1    0    0    0    0  0.00000000000E+00  0.00000000000E+00  0.74505805969E-08  0.10566000000E+00  0.10566000000E+00 0. -1.
     999900   -1    0    0    0    0 -0.00000000000E+00 -0.00000000000E+00 -0.74505805969E-08  0.93827000000E+00  0.93827000000E+00 0.  1.
     999902    2    1    2    0    0  0.37341647337E-02 -0.20711528429E-01 -0.13010842583E-01  0.10191874573E+01  0.10188870789E+01 0.  0.
     999903    2    3    3    0    0  0.64976121125E-01  0.10715539818E+00 -0.15655791077E-01  0.12783594193E+00  0.19817885363E-01 0.  0.
         14    1    1    2    0    0 -0.37341647337E-02  0.20711528429E-01  0.13010842583E-01  0.24742542732E-01  0.00000000000E+00 0. -1.
     999901    1    3    3    0    0 -0.61241956391E-01 -0.12786692661E+00  0.26449484942E-02  0.89135151534E+00  0.88000000000E+00 0.  1.
        -11    1    4    4    0    0  0.17411840140E-01  0.39499234717E-01  0.22018505627E-02  0.43225813899E-01  0.51100000000E-03 0. -1.
         11    1    4    4    0    0  0.47564280985E-01  0.67656163459E-01 -0.17857641640E-01  0.84610128032E-01  0.51100000000E-03 0.  1.
</event>
<event>
 8    1  0.1042301E+005  0.1043930E+01  0.7957747E-01            NaN
         13   -1    0    0    0    0  0.00000000000E+00  0.00000000000E+00  0.74505805969E-08  0.10566000000E+00  0.10566000000E+00 0.  1.
     999900   -1    0    0    0    0 -0.00000000000E+00 -0.00000000000E+00 -0.74505805969E-08  0.93827000000E+00  0.93827000000E+00 0.  1.
     999902    2    1    2    0    0 -0.11308083807E-01  0.17954308537E-01 -0.10536613071E-01  0.10202392809E+01  0.10199641857E+01 0.  0.
     999903    2    3    3    0    0 -0.22720170383E-01 -0.82263810533E-01 -0.96357755711E-01  0.13032963630E+00  0.20431748480E-01 0.  0.
         14    1    1    2    0    0  0.11308083807E-01 -0.17954308537E-01  0.10536613071E-01  0.23690719057E-01  0.00000000000E+00 0.  1.
     999901    1    3    3    0    0  0.11412086575E-01  0.10021811907E+00  0.85821142641E-01  0.88990964465E+00  0.88000000000E+00 0. -1.
        -11    1    4    4    0    0 -0.16810842410E-01 -0.28264472747E-01 -0.29475970822E-01  0.44165357681E-01  0.51100000000E-03 0.  1.
         11    1    4    4    0    0 -0.59093279728E-02 -0.53999337786E-01 -0.66881784889E-01  0.86164278616E-01  0.51100000000E-03 0. -1.
</event>
<event>
 8    1  0.1042301E+005  0.1043930E+01  0.7957747E-01            NaN
         13   -1    0    0    0    0  0.00000000000E+00  0.00000000000E+00  0.74505805969E-08  0.10566000000E+00  0.10566000000E+00 0.  1.
     999900   -1    0    0    0    0 -0.00000000000E+00 -0.00000000000E+00 -0.74505805969E-08  0.93827000000E+00  0.93827000000E+00 0. -1.
     999902    2    1    2    0    0 -0.18895891435E-01 -0.15663591299E-01  0.32048986604E-02  0.10191777439E+01  0.10188771268E+01 0.  0.
     999903    2    3    3    0    0 -0.79606335229E-01 -0.20945872374E-01  0.10076061314E+00  0.13169209451E+00  0.20352110943E-01 0.  0.
         14    1    1    2    0    0  0.18895891435E-01  0.15663591299E-01 -0.32048986604E-02  0.24752256078E-01  0.00000000000E+00 0.  1.
     999901    1    3    3    0    0  0.60710443794E-01  0.52822810746E-02 -0.97555714475E-01  0.88748564941E+00  0.88000000000E+00 0. -1.
        -11    1    4    4    0    0 -0.58056412954E-01 -0.10535368835E-01  0.58308823426E-01  0.82956139567E-01  0.51100000000E-03 0. -1.
         11    1    4    4    0    0 -0.21549922276E-01 -0.10410503539E-01  0.42451789710E-01  0.48735954947E-01  0.51100000000E-03 0.  1.
</event>
<event>
 8    1  0.1042301E+005  0.1043930E+01  0.7957747E-01            NaN
         13   -1    0    0    0    0  0.00000000000E+00  0.00000000000E+00  0.74505805969E-08  0.10566000000E+00  0.10566000000E+00 0. -1.
     999900   -1    0    0    0    0 -0.00000000000E+00 -0.00000000000E+00 -0.74505805969E-08  0.93827000000E+00  0.93827000000E+00 0. -1.
     999902    2    1    2    0    0  0.10063791282E-01 -0.17949032484E-01 -0.12507311390E-01  0.10198492919E+01  0.10195649552E+01 0.  0.
     999903    2    3    3    0    0 -0.88199722445E-01 -0.75406039597E-01 -0.58191250704E-01  0.13134265263E+00  0.19985216911E-01 0.  0.
         14    1    1    2    0    0 -0.10063791282E-01  0.17949032484E-01  0.12507311390E-01  0.24080708052E-01  0.00000000000E+00 0.  1.
     999901    1    3    3    0    0  0.98263513727E-01  0.57457007113E-01  0.45683939315E-01  0.88850663932E+00  0.88000000000E+00 0. -1.
        -11    1    4    4    0    0 -0.45820772728E-01 -0.37031338299E-01 -0.40501279093E-01  0.71494600906E-01  0.51100000000E-03 0. -1.
         11    1    4    4    0    0 -0.42378949717E-01 -0.38374701298E-01 -0.17689971612E-01  0.59848051727E-01  0.51100000000E-03 0.  1.
</event>
<event>
 8    1  0.1042301E+005  0.1043930E+01  0.7957747E-01            NaN
         13   -1    0    0    0    0  0.00000000000E+00  0.00000000000E+00  0.74505805969E-08  0.10566000000E+00  0.10566000000E+00 0.  1.
     999900   -1    0    0    0    0 -0.00000000000E+00 -0.00000000000E+00 -0.74505805969E-08  0.93827000000E+00  0.93827000000E+00 0.  1.
     999902    2    1    2    0    0 -0.21445196786E-02  0.29183548850E-02  0.23743149941E-01  0.10199122372E+01  0.10196294026E+01 0.  0.
     999903    2    3    3    0    0  0.55260022517E-01  0.63335187737E-01 -0.94584849169E-01  0.12808995081E+00  0.19892855825E-01 0.  0.
         14    1    1    2    0    0  0.21445196786E-02 -0.29183548850E-02 -0.23743149941E-01  0.24017762781E-01  0.00000000000E+00 0. -1.
     999901    1    3    3    0    0 -0.57404542196E-01 -0.60416832852E-01  0.11832799911E+00  0.89182228641E+00  0.88000000000E+00 0. -1.
        -11    1    4    4    0    0  0.39505160088E-01  0.38073431121E-01 -0.48547472345E-01  0.73262282403E-01  0.51100000000E-03 0. -1.
         11    1    4    4    0    0  0.15754862430E-01  0.25261756617E-01 -0.46037376823E-01  0.54827668410E-01  0.51100000000E-03 0.  1.
</event>
<event>
 8    1  0.1042301E+005  0.1043930E+01  0.7957747E-01            NaN
         13   -1    0    0    0    0  0.00000000000E+00  0.00000000000E+00  0.74505805969E-08  0.10566000000E+00  0.10566000000E+00 0. -1.
     999900   -1    0    0    0    0 -0.00000000000E+00 -0.00000000000E+00 -0.74505805969E-08  0.93827000000E+00  0.93827000000E+00 0. -1.
     999902    2    1    2    0    0 -0.65494919972E-02 -0.18029208385E-01 -0.14735904920E-01  0.10197412610E+01  0.10194543365E+01 0.  0.
     999903    2    3    3    0    0  0.28350514489E-01 -0.86066517321E-01  0.91330310533E-01  0.13008001765E+00  0.19193444069E-01 0.  0.
         14    1    1    2    0    0  0.65494919972E-02  0.18029208385E-01  0.14735904920E-01  0.24188738996E-01  0.00000000000E+00 0. -1.
     999901    1    3    3    0    0 -0.34900006486E-01  0.68037308936E-01 -0.10606621545E+00  0.88966124335E+00  0.88000000000E+00 0. -1.
        -11    1    4    4    0    0  0.40441723429E-02 -0.24765303982E-01  0.36611197422E-01  0.44388247419E-01  0.51100000000E-03 0.  1.
         11    1    4    4    0    0  0.24306342146E-01 -0.61301213339E-01  0.54719113111E-01  0.85691770235E-01  0.51100000000E-03 0. -1.
</event>
<event>
 7    1  0.1042301E+005  0.1043930E+01  0.7957747E-01            NaN
         13   -1    0    0    0    0  0.00000000000E+00  0.00000000000E+00  0.74505805969E-08  0.10566000000E+00  0.10566000000E+00 0. -1.
     999900   -1    0    0    0    0 -0.00000000000E+00 -0.00000000000E+00 -0.74505805969E-08  0.93827000000E+00  0.93827000000E+00 0.  1.
     999903    2    1    2    0    0  0.66445616863E-02  0.10178226639E+00  0.31409783967E-01  0.10845949128E+00  0.19315971878E-01 0.  0.
         14    1    1    2    0    0 -0.27746408922E-01 -0.25742995649E-01  0.32143618025E-01  0.49656592843E-01  0.00000000000E+00 0. -1.
     999901    1    1    2    0    0  0.21101847235E-01 -0.76039270739E-01 -0.63553401992E-01  0.88581391587E+00  0.88000000000E+00 0.  1.
        -11    1    3    3    0    0 -0.19614559128E-03  0.86667999871E-01  0.22159304567E-01  0.89457680356E-01  0.51100000000E-03 0. -1.
         11    1    3    3    0    0  0.68407072776E-02  0.15114266516E-01  0.92504794006E-02  0.19001810928E-01  0.51100000000E-03 0.  1.
</event>
<event>
 8    1  0.1042301E+005  0.1043930E+01  0.7957747E-01            NaN
         13   -1    0    0    0    0  0.00000000000E+00  0.00000000000E+00  0.74505805969E-08  0.10566000000E+00  0.10566000000E+00 0.  1.
     999900   -1    0    0    0    0 -0.00000000000E+00 -0.00000000000E+00 -0.74505805969E-08  0.93827000000E+00  0.93827000000E+00 0.  1.
     999902    2    1    2    0    0  0.13584334612E-02  0.33620126664E-01  0.28442218800E-02  0.10101624437E+01  0.10095978976E+01 0.  0.
     999903    2    3    3    0    0 -0.59930752564E-01 -0.82895410111E-01  0.56885285942E-01  0.11872951230E+00  0.19935325779E-01 0.  0.
         14    1    1    2    0    0 -0.13584334612E-02 -0.33620126664E-01 -0.28442218800E-02  0.33767556270E-01  0.00000000000E+00 0.  1.
     999901    1    3    3    0    0  0.61289186025E-01  0.11651553677E+00 -0.54041064062E-01  0.89143293143E+00  0.88000000000E+00 0.  1.
        -11    1    4    4    0    0 -0.35549009863E-01 -0.64113020240E-01  0.37408589873E-01  0.82303555110E-01  0.51100000000E-03 0.  1.
         11    1    4    4    0    0 -0.24381742701E-01 -0.18782389871E-01  0.19476696069E-01  0.36425957189E-01  0.51100000000E-03 0. -1.
</event>
<event>
 8    1  0.1042301E+005  0.1043930E+01  0.7957747E-01            NaN
         13   -1    0    0    0    0  0.00000000000E+00  0.00000000000E+00  0.74505805969E-08  0.10566000000E+00  0.10566000000E+00 0.  1.
     999900   -1    0    0    0    0 -0.00000000000E+00 -0.00000000000E+00 -0.74505805969E-08  0.93827000000E+00  0.93827000000E+00 0.  1.
     999902    2    1    2    0    0  0.18420262177E-01  0.13146346612E-01 -0.59394176214E-02  0.10205332231E+01  0.10202649902E+01 0.  0.
     999903    2    3    3    0    0  0.68987053213E-01  0.11220790941E+00 -0.83255010804E-02  0.13352934093E+00  0.20271716152E-01 0.  0.
         14    1    1    2    0    0 -0.18420262177E-01 -0.13146346612E-01  0.59394176214E-02  0.23396776906E-01  0.00000000000E+00 0.  1.
     999901    1    3    3    0    0 -0.50566791036E-01 -0.99061562798E-01  0.23860834590E-02  0.88700388216E+00  0.88000000000E+00 0.  1.
        -11    1    4    4    0    0  0.65088394007E-01  0.10606755407E+00 -0.29701679920E-02  0.12448256135E+00  0.51100000000E-03 0.  1.
         11    1    4    4    0    0  0.38986592061E-02  0.61403553358E-02 -0.53553330884E-02  0.90467795786E-02  0.51100000000E-03 0. -1.
</event>
<event>
 8    1  0.1042301E+005  0.1043930E+01  0.7957747E-01            NaN
         13   -1    0    0    0    0  0.00000000000E+00  0.00000000000E+00  0.74505805969E-08  0.10566000000E+00  0.10566000000E+00 0.  1.
     999900   -1    0    0    0    0 -0.00000000000E+00 -0.00000000000E+00 -0.74505805969E-08  0.93827000000E+00  0.93827000000E+00 0.  1.
     999902    2    1    2    0    0  0.14885507447E-01  0.11592313550E-01 -0.14747402291E-01  0.10199832687E+01  0.10197021244E+01 0.  0.
     999903    2    3    3    0    0  0.60884071452E-01  0.11400006961E+00 -0.23327098126E-01  0.13280976393E+00  0.19783676622E-01 0.  0.
         14    1    1    2    0    0 -0.14885507447E-01 -0.11592313550E-01  0.14747402291E-01  0.23946731295E-01  0.00000000000E+00 0.  1.
     999901    1    3    3    0    0 -0.45998564005E-01 -0.10240775606E+00  0.85796958356E-02  0.88717350477E+00  0.88000000000E+00 0.  1.
        -11    1    4    4    0    0  0.45916241303E-01  0.67292982005E-01 -0.18351471066E-01  0.83508587905E-01  0.51100000000E-03 0. -1.
         11    1    4    4    0    0  0.14967830148E-01  0.46707087605E-01 -0.49756270607E-02  0.49301176026E-01  0.51100000000E-03 0.  1.
</event>
<event>
 8    1  0.1042301E+005  0.1043930E+01  0.7957747E-01            NaN
         13   -1    0    0    0    0  0.00000000000E+00  0.00000000000E+00  0.74505805969E-08  0.10566000000E+00  0.10566000000E+00 0.  1.
     999900   -1    0    0    0    0 -0.00000000000E+00 -0.00000000000E+00 -0.74505805969E-08  0.93827000000E+00  0.93827000000E+00 0.  1.
     999902    2    1    2    0    0 -0.20158356875E-01  0.30648179595E-02 -0.12995699513E-01  0.10197506562E+01  0.10194639573E+01 0.  0.
     999903    2    3    3    0    0  0.22970813248E-01 -0.55081830368E-02 -0.12767671294E+00  0.13122077122E+00  0.18961788664E-01 0.  0.
         14    1    1    2    0    0  0.20158356875E-01 -0.30648179595E-02  0.12995699513E-01  0.24179343805E-01  0.00000000000E+00 0.  1.
     999901    1    3    3    0    0 -0.43129170123E-01  0.85730009963E-02  0.11468101343E+00  0.88852988498E+00  0.88000000000E+00 0. -1.
        -11    1    4    4    0    0  0.10518360876E-01  0.14453024003E-03 -0.19326958465E-01  0.22010207837E-01  0.51100000000E-03 0.  1.
         11    1    4    4    0    0  0.12452452372E-01 -0.56527132768E-02 -0.10834975448E+00  0.10921056338E+00  0.51100000000E-03 0. -1.
</event>
<event>
 8    1  0.1042301E+005  0.1043930E+01  0.7957747E-01            NaN
         13   -1    0    0    0    0  0.00000000000E+00  0.00000000000E+00  0.74505805969E-08  0.10566000000E+00  0.10566000000E+00 0. -1.
     999900   -1    0    0    0    0 -0.00000000000E+00 -0.00000000000E+00 -0.74505805969E-08  0.93827000000E+00  0.93827000000E+00 0.  1.
     999902    2    1    2    0    0 -0.26351804123E-02  0.31310801521E-01  0.30180367348E-02  0.10123638945E+01  0.10118716499E+01 0.  0.
     999903    2    3    3    0    0  0.98449513355E-01 -0.63067579624E-01  0.25292935683E-01  0.12128501742E+00  0.20012410532E-01 0.  0.
         14    1    1    2    0    0  0.26351804123E-02 -0.31310801521E-01 -0.30180367348E-02  0.31566105453E-01  0.00000000000E+00 0. -1.
     999901    1    3    3    0    0 -0.10108469377E+00  0.94378381146E-01 -0.22274898948E-01  0.89107887713E+00  0.88000000000E+00 0.  1.
        -11    1    4    4    0    0  0.59548442078E-01 -0.44284807838E-01  0.75965241759E-02  0.74599795306E-01  0.51100000000E-03 0. -1.
         11    1    4    4    0    0  0.38901071277E-01 -0.18782771786E-01  0.17696411507E-01  0.46685222113E-01  0.51100000000E-03 0.  1.
</event>
<event>
 8    1  0.1042301E+005  0.1043930E+01  0.7957747E-01            NaN
         13   -1    0    0    0    0  0.00000000000E+00  0.00000000000E+00  0.74505805969E-08  0.10566000000E+00  0.10566000000E+00 0. -1.
     999900   -1    0    0    0    0 -0.00000000000E+00 -0.00000000000E+00 -0.74505805969E-08  0.93827000000E+00  0.93827000000E+00 0.  1.
     999902    2    1    2    0    0  0.11268672009E-01  0.14859780072E-01 -0.13772325123E-01  0.10207465367E+01  0.10204832283E+01 0.  0.
     999903    2    3    3    0    0  0.95502946399E-01 -0.86727473448E-01 -0.69723400384E-02  0.13088046649E+00  0.20943150714E-01 0.  0.
         14    1    1    2    0    0 -0.11268672009E-01 -0.14859780072E-01  0.13772325123E-01  0.23183463329E-01  0.00000000000E+00 0. -1.
     999901    1    3    3    0    0 -0.84234274390E-01  0.10158725352E+00 -0.67999850848E-02  0.88986607018E+00  0.88000000000E+00 0. -1.
        -11    1    4    4    0    0  0.77876452232E-02 -0.88864070506E-02 -0.67245855891E-02  0.13605029244E-01  0.51100000000E-03 0. -1.
         11    1    4    4    0    0  0.87715301176E-01 -0.77841066397E-01 -0.24775444925E-03  0.11727543725E+00  0.51100000000E-03 0.  1.
</event>
<event>
 8    1  0.1042301E+005  0.1043930E+01  0.7957747E-01            NaN
         13   -1    0    0    0    0  0.00000000000E+00  0.00000000000E+00  0.74505805969E-08  0.10566000000E+00  0.10566000000E+00 0. -1.
     999900   -1    0    0    0    0 -0.00000000000E+00 -0.00000000000E+00 -0.74505805969E-08  0.93827000000E+00  0.93827000000E+00 0. -1.
     999902    2    1    2    0    0  0.31227203429E-02  0.22621585713E-01  0.22396663926E-02  0.10209843331E+01  0.10207264594E+01 0.  0.
     999903    2    3    3    0    0  0.10368854291E+00 -0.40702243120E-01 -0.64796527198E-01  0.13046917705E+00  0.20386998238E-01 0.  0.
         14    1    1    2    0    0 -0.31227203429E-02 -0.22621585713E-01 -0.22396663926E-02  0.22945666869E-01  0.00000000000E+00 0.  1.
     999901    1    3    3    0    0 -0.10056582256E+00  0.63323828833E-01  0.67036193591E-01  0.89051515608E+00  0.88000000000E+00 0.  1.
        -11    1    4    4    0    0  0.85024222360E-01 -0.28200764265E-01 -0.43796415149E-01  0.99713532652E-01  0.51100000000E-03 0. -1.
         11    1    4    4    0    0  0.18664320546E-01 -0.12501478854E-01 -0.21000112049E-01  0.30755644394E-01  0.51100000000E-03 0.  1.
</event>
<event>
 8    1  0.1042301E+005  0.1043930E+01  0.7957747E-01            NaN
         13   -1    0    0    0    0  0.00000000000E+00  0.00000000000E+00  0.74505805969E-08  0.10566000000E+00  0.10566000000E+00 0.  1.
     999900   -1    0    0    0    0 -0.00000000000E+00 -0.00000000000E+00 -0.74505805969E-08  0.93827000000E+00  0.93827000000E+00 0.  1.
     999902    2    1    2    0    0  0.42505234761E-02  0.21616537421E-01 -0.37695421315E-02  0.10215793605E+01  0.10213348318E+01 0.  0.
     999903    2    3    3    0    0 -0.58107364432E-01 -0.51034532034E-01 -0.10349380789E+00  0.13078667231E+00  0.20327226130E-01 0.  0.
         14    1    1    2    0    0 -0.42505234761E-02 -0.21616537421E-01  0.37695421315E-02  0.22350639538E-01  0.00000000000E+00 0. -1.
     999901    1    3    3    0    0  0.62357887908E-01  0.72651069455E-01  0.99724265758E-01  0.89079268815E+00  0.88000000000E+00 0. -1.
        -11    1    4    4    0    0 -0.31756739547E-01 -0.23235227823E-01 -0.67987784288E-01  0.78555497911E-01  0.51100000000E-03 0. -1.
         11    1    4    4    0    0 -0.26350624885E-01 -0.27799304212E-01 -0.35506023601E-01  0.52231174402E-01  0.51100000000E-03 0.  1.
</event>
<event>
 8    1  0.1042301E+005  0.1043930E+01  0.7957747E-01            NaN
         13   -1    0    0    0    0  0.00000000000E+00  0.00000000000E+00  0.74505805969E-08  0.10566000000E+00  0.10566000000E+00 0.  1.
     999900   -1    0    0    0    0 -0.00000000000E+00 -0.00000000000E+00 -0.74505805969E-08  0.93827000000E+00  0.93827000000E+00 0. -1.
     999902    2    1    2    0    0 -0.38506026808E-02  0.16014979940E-01  0.16367803546E-01  0.10207090673E+01  0.10204448972E+01 0.  0.
     999903    2    3    3    0    0  0.64955065445E-01  0.63762522298E-01 -0.91069633837E-01  0.13022782058E+00  0.19513771285E-01 0.  0.
         14    1    1    2    0    0  0.38506026808E-02 -0.16014979940E-01 -0.16367803546E-01  0.23220932720E-01  0.00000000000E+00 0. -1.
     999901    1    3    3    0    0 -0.68805668125E-01 -0.47747542358E-01  0.10743743738E+00  0.89048124670E+00  0.88000000000E+00 0.  1.
        -11    1    4    4    0    0  0.19994689049E-01  0.21176613544E-01 -0.17181215801E-01  0.33818513403E-01  0.51100000000E-03 0. -1.
         11    1    4    4    0    0  0.44960376396E-01  0.42585908754E-01 -0.73888418036E-01  0.96409307180E-01  0.51100000000E-03 0.  1.
</event>
<event>
 8    1  0.1042301E+005  0.1043930E+01  0.7957747E-01            NaN
         13   -1    0    0    0    0  0.00000000000E+00  0.00000000000E+00  0.74505805969E-08  0.10566000000E+00  0.10566000000E+00 0.  1.
     999900   -1    0    0    0    0 -0.00000000000E+00 -0.00000000000E+00 -0.74505805969E-08  0.93827000000E+00  0.93827000000E+00 0.  1.
     999902    2    1    2    0    0  0.52790436276E-02 -0.11573597534E-01 -0.20902028373E-01  0.10194614232E+01  0.10191677399E+01 0.  0.
     999903    2    3    3    0    0  0.92072023805E-01  0.55854700402E-01 -0.72020574685E-01  0.13115252277E+00  0.20420967808E-01 0.  0.
         14    1    1    2    0    0 -0.52790436276E-02  0.11573597534E-01  0.20902028373E-01  0.24468576821E-01  0.00000000000E+00 0.  1.
     999901    1    3    3    0    0 -0.86792980178E-01 -0.67428297936E-01  0.51118546312E-01  0.88830890041E+00  0.88000000000E+00 0.  1.
        -11    1    4    4    0    0  0.13372925466E-01  0.99835913527E-02 -0.32370477106E-02  0.17007258177E-01  0.51100000000E-03 0.  1.
         11    1    4    4    0    0  0.78699098339E-01  0.45871109049E-01 -0.68783526975E-01  0.11414526459E+00  0.51100000000E-03 0. -1.
</event>
<event>
 8    1  0.1042301E+005  0.1043930E+01  0.7957747E-01            NaN
         13   -1    0    0    0    0  0.00000000000E+00  0.00000000000E+00  0.74505805969E-08  0.10566000000E+00  0.10566000000E+00 0. -1.
     999900   -1    0    0    0    0 -0.00000000000E+00 -0.00000000000E+00 -0.74505805969E-08  0.93827000000E+00  0.93827000000E+00 0.  1.
     999902    2    1    2    0    0 -0.57329270365E-02 -0.58310023311E-02  0.21105489207E-01  0.10212957623E+01  0.10210449184E+01 0.  0.
     999903    2    3    3    0    0 -0.58565135095E-01  0.71821570780E-01 -0.88144762700E-01  0.12958012275E+00  0.20815761864E-01 0.  0.
         14    1    1    2    0    0  0.57329270365E-02  0.58310023311E-02 -0.21105489207E-01  0.22634237678E-01  0.00000000000E+00 0.  1.
     999901    1    3    3    0    0  0.52832208058E-01 -0.77652573111E-01  0.10925025191E+00  0.89171563957E+00  0.88000000000E+00 0. -1.
        -11    1    4    4    0    0 -0.51838169042E-01  0.59512556547E-01 -0.63835776957E-01  0.10150964337E+00  0.51100000000E-03 0.  1.
         11    1    4    4    0    0 -0.67269660527E-02  0.12309014232E-01 -0.24308985743E-01  0.28070479378E-01  0.51100000000E-03 0. -1.
</event>
<event>
 7    1  0.1042301E+005  0.1043930E+01  0.7957747E-01            NaN
         13   -1    0    0    0    0  0.00000000000E+00  0.00000000000E+00  0.74505805969E-08  0.10566000000E+00  0.10566000000E+00 0. -1.
     999900   -1    0    0    0    0 -0.00000000000E+00 -0.00000000000E+00 -0.74505805969E-08  0.93827000000E+00  0.93827000000E+00 0.  1.
     999902    2    1    2    0    0 -0.13596277770E-01  0.19664120080E-01  0.23402222643E-02  0.10199089045E+01  0.10196259905E+01 0.  0.
         14    1    1    2    0    0  0.13596277770E-01 -0.19664120080E-01 -0.23402222643E-02  0.24021095478E-01  0.00000000000E+00 0.  1.
     999901    1    3    3    0    0  0.46904417288E-01  0.20205185204E-01 -0.89432041947E-01  0.88600584874E+00  0.88000000000E+00 0.  1.
        -11    1    3    3    0    0 -0.69015110684E-01 -0.17880660620E-01  0.89529828247E-01  0.11444935471E+00  0.51100000000E-03 0. -1.
         11    1    3    3    0    0  0.85144156252E-02  0.17339595496E-01  0.22424359638E-02  0.19453701073E-01  0.51100000000E-03 0.  1.
</event>
<event>
 7    1  0.1042301E+005  0.1043930E+01  0.7957747E-01            NaN
         13   -1    0    0    0    0  0.00000000000E+00  0.00000000000E+00  0.74505805969E-08  0.10566000000E+00  0.10566000000E+00 0. -1.
     999900   -1    0    0    0    0 -0.00000000000E+00 -0.00000000000E+00 -0.74505805969E-08  0.93827000000E+00  0.93827000000E+00 0. -1.
     999903    2    1    2    0    0 -0.19726782686E-01 -0.80492518207E-01 -0.83563354172E-01  0.11937635102E+00  0.19992187979E-01 0.  0.
         14    1    1    2    0    0  0.26173745046E-01 -0.36928632648E-02  0.28393129365E-01  0.38792679257E-01  0.00000000000E+00 0. -1.
     999901    1    1    2    0    0 -0.64469623601E-02  0.84185381471E-01  0.55170224807E-01  0.88576096972E+00  0.88000000000E+00 0.  1.
        -11    1    3    3    0    0  0.57372969499E-04 -0.26630596641E-01 -0.36366692582E-01  0.45077593319E-01  0.51100000000E-03 0.  1.
         11    1    3    3    0    0 -0.19784155655E-01 -0.53861921565E-01 -0.47196661590E-01  0.74298757701E-01  0.51100000000E-03 0. -1.
</event>
<event>
 8    1  0.1042301E+005  0.1043930E+01  0.7957747E-01            NaN
         13   -1    0    0    0    0  0.00000000000E+00  0.00000000000E+00  0.74505805969E-08  0.10566000000E+00  0.10566000000E+00 0. -1.
     999900   -1    0    0    0    0 -0.00000000000E+00 -0.00000000000E+00 -0.74505805969E-08  0.93827000000E+00  0.93827000000E+00 0. -1.
     999902    2    1    2    0    0  0.34110629579E-02 -0.88886220630E-02 -0.21850216347E-01  0.10200956780E+01  0.10198171980E+01 0.  0.
     999903    2    3    3    0    0 -0.47386903181E-01  0.61990733947E-01 -0.10431587707E+00  0.13194878602E+00  0.20983570574E-01 0.  0.
         14    1    1    2    0    0 -0.34110629579E-02  0.88886220630E-02  0.21850216347E-01  0.23834322039E-01  0.00000000000E+00 0. -1.
     999901    1    3    3    0    0  0.50797966139E-01 -0.70879356010E-01  0.82465660722E-01  0.88814689194E+00  0.88000000000E+00 0.  1.
        -11    1    4    4    0    0 -0.34157887409E-01  0.31510644224E-01 -0.71264874474E-01  0.85080111815E-01  0.51100000000E-03 0.  1.
         11    1    4    4    0    0 -0.13229015771E-01  0.30480089723E-01 -0.33051002595E-01  0.46868674201E-01  0.51100000000E-03 0. -1.
</event>
<event>
 8    1  0.1042301E+005  0.1043930E+01  0.7957747E-01            NaN
         13   -1    0    0    0    0  0.00000000000E+00  0.00000000000E+00  0.74505805969E-08  0.10566000000E+00  0.10566000000E+00 0. -1.
     999900   -1    0    0    0    0 -0.00000000000E+00 -0.00000000000E+00 -0.74505805969E-08  0.93827000000E+00  0.93827000000E+00 0. -1.
     999902    2    1    2    0    0  0.15766803122E-01  0.19295040375E-01 -0.61614743203E-03  0.10190047056E+01  0.10186998183E+01 0.  0.
     999903    2    3    3    0    0 -0.87625248830E-01  0.63903798665E-01  0.67396882759E-01  0.12922628935E+00  0.19879998449E-01 0.  0.
         14    1    1    2    0    0 -0.15766803122E-01 -0.19295040375E-01  0.61614743203E-03  0.24925294410E-01  0.00000000000E+00 0.  1.
     999901    1    3    3    0    0  0.10339205195E+00 -0.44608758289E-01 -0.68013030191E-01  0.88977841624E+00  0.88000000000E+00 0. -1.
        -11    1    4    4    0    0 -0.77274660009E-01  0.47766424521E-01  0.52363512102E-01  0.10485801310E+00  0.51100000000E-03 0.  1.
         11    1    4    4    0    0 -0.10350588821E-01  0.16137374143E-01  0.15033370656E-01  0.24368276252E-01  0.51100000000E-03 0. -1.
</event>
<event>
 8    1  0.1042301E+005  0.1043930E+01  0.7957747E-01            NaN
         13   -1    0    0    0    0  0.00000000000E+00  0.00000000000E+00  0.74505805969E-08  0.10566000000E+00  0.10566000000E+00 0. -1.
     999900   -1    0    0    0    0 -0.00000000000E+00 -0.00000000000E+00 -0.74505805969E-08  0.93827000000E+00  0.93827000000E+00 0.  1.
     999902    2    1    2    0    0  0.20614145849E-01  0.10749790323E-01  0.85485004143E-03  0.10206656116E+01  0.10204004404E+01 0.  0.
     999903    2    3    3    0    0 -0.12362982571E+00 -0.10826595910E-01  0.24906693586E-01  0.12833699779E+00  0.21177644588E-01 0.  0.
         14    1    1    2    0    0 -0.20614145849E-01 -0.10749790323E-01 -0.85485004143E-03  0.23264388444E-01  0.00000000000E+00 0. -1.
     999901    1    3    3    0    0  0.14424397156E+00  0.21576386233E-01 -0.24051843545E-01  0.89232861377E+00  0.88000000000E+00 0. -1.
        -11    1    4    4    0    0 -0.64569849431E-01  0.18534134027E-02  0.52505203292E-02  0.64811493437E-01  0.51100000000E-03 0.  1.
         11    1    4    4    0    0 -0.59059976283E-01 -0.12680009313E-01  0.19656173257E-01  0.63525504349E-01  0.51100000000E-03 0. -1.
</event>
<event>
 8    1  0.1042301E+005  0.1043930E+01  0.7957747E-01            NaN
         13   -1    0    0    0    0  0.00000000000E+00  0.00000000000E+00  0.74505805969E-08  0.10566000000E+00  0.10566000000E+00 0. -1.
     999900   -1    0    0    0    0 -0.00000000000E+00 -0.00000000000E+00 -0.74505805969E-08  0.93827000000E+00  0.93827000000E+00 0.  1.
     999902    2    1    2    0    0 -0.97958141605E-02  0.20812517424E-01 -0.47867522934E-02  0.10204346419E+01  0.10201641174E+01 0.  0.
     999903    2    3    3    0    0 -0.12254086080E+00 -0.33933161371E-01 -0.26663123832E-01  0.13128498600E+00  0.18897178916E-01 0.  0.
         14    1    1    2    0    0  0.97958141605E-02 -0.20812517424E-01  0.47867522934E-02  0.23495358139E-01  0.00000000000E+00 0. -1.
     999901    1    3    3    0    0  0.11274504664E+00  0.54745678795E-01  0.21876371539E-01  0.88914965586E+00  0.88000000000E+00 0. -1.
        -11    1    4    4    0    0 -0.72738079788E-01 -0.19977725561E-01 -0.25232210260E-01  0.79541582367E-01  0.51100000000E-03 0. -1.
         11    1    4    4    0    0 -0.49802781008E-01 -0.13955435810E-01 -0.14309135728E-02  0.51743403632E-01  0.51100000000E-03 0.  1.
</event>
<event>
 8    1  0.1042301E+005  0.1043930E+01  0.7957747E-01            NaN
         13   -1    0    0    0    0  0.00000000000E+00  0.00000000000E+00  0.74505805969E-08  0.10566000000E+00  0.10566000000E+00 0.  1.
     999900   -1    0    0    0    0 -0.00000000000E+00 -0.00000000000E+00 -0.74505805969E-08  0.93827000000E+00  0.93827000000E+00 0. -1.
     999902    2    1    2    0    0 -0.28734264174E-02  0.17180708175E-02 -0.23835584697E-01  0.10198604457E+01  0.10195763754E+01 0.  0.
     999903    2    3    3    0    0  0.20621550976E-01 -0.44262943496E-01  0.11591946631E+00  0.12733720122E+00  0.19823814326E-01 0.  0.
         14    1    1    2    0    0  0.28734264174E-02 -0.17180708175E-02  0.23835584697E-01  0.24069554307E-01  0.00000000000E+00 0.  1.
     999901    1    3    3    0    0 -0.23494977393E-01  0.45981014314E-01 -0.13975505100E+00  0.89252324447E+00  0.88000000000E+00 0. -1.
        -11    1    4    4    0    0  0.21414045770E-01 -0.38338981130E-01  0.83270803722E-01  0.94142055978E-01  0.51100000000E-03 0. -1.
         11    1    4    4    0    0 -0.79249479428E-03 -0.59239623661E-02  0.32648662585E-01  0.33195145243E-01  0.51100000000E-03 0.  1.
</event>
<event>
 8    1  0.1042301E+005  0.1043930E+01  0.7957747E-01            NaN
         13   -1    0    0    0    0  0.00000000000E+00  0.00000000000E+00  0.74505805969E-08  0.10566000000E+00  0.10566000000E+00 0.  1.
     999900   -1    0    0    0    0 -0.00000000000E+00 -0.00000000000E+00 -0.74505805969E-08  0.93827000000E+00  0.93827000000E+00 0.  1.
     999902    2    1    2    0    0  0.23468515244E-01 -0.33090667755E-02 -0.10518872651E-02  0.10202060122E+01  0.10199301347E+01 0.  0.
     999903    2    3    3    0    0  0.11680515220E+00 -0.52021042906E-01 -0.32574217426E-01  0.13336992716E+00  0.19411989683E-01 0.  0.
         14    1    1    2    0    0 -0.23468515244E-01  0.33090667755E-02  0.10518872651E-02  0.23723987807E-01  0.00000000000E+00 0. -1.
     999901    1    3    3    0    0 -0.93336636960E-01  0.48711976130E-01  0.31522330161E-01  0.88683608503E+00  0.88000000000E+00 0. -1.
        -11    1    4    4    0    0  0.65749770701E-01 -0.31882987702E-01 -0.28140848945E-01  0.78305336679E-01  0.51100000000E-03 0.  1.
         11    1    4    4    0    0  0.51055381503E-01 -0.20138055204E-01 -0.44333684804E-02  0.55064590481E-01  0.51100000000E-03 0. -1.
</event>
<event>
 8    1  0.1042301E+005  0.1043930E+01  0.7957747E-01            NaN
         13   -1    0    0    0    0  0.00000000000E+00  0.00000000000E+00  0.74505805969E-08  0.10566000000E+00  0.10566000000E+00 0. -1.
     999900   -1    0    0    0    0 -0.00000000000E+00 -0.00000000000E+00 -0.74505805969E-08  0.93827000000E+00  0.93827000000E+00 0.  1.
     999902    2    1    2    0    0 -0.20621122841E-02  0.22139233775E-01 -0.60317975351E-02  0.10208913247E+01  0.10206313322E+01 0.  0.
     999903    2    3    3    0    0  0.11744773867E+00 -0.48047892379E-01 -0.18086904011E-01  0.12996250443E+00  0.21460316416E-01 0.  0.
         14    1    1    2    0    0  0.20621122841E-02 -0.22139233775E-01  0.60317975351E-02  0.23038675325E-01  0.00000000000E+00 0. -1.
     999901    1    3    3    0    0 -0.11950985095E+00  0.70187126154E-01  0.12055106476E-01  0.89092882025E+00  0.88000000000E+00 0.  1.
        -11    1    4    4    0    0  0.24777767978E-01 -0.12301928923E-01  0.46769443788E-02  0.28060829833E-01  0.51100000000E-03 0.  1.
         11    1    4    4    0    0  0.92669970690E-01 -0.35745963455E-01 -0.22763848390E-01  0.10190167460E+00  0.51100000000E-03 0. -1.
</event>
<event>
 8    1  0.1042301E+005  0.1043930E+01  0.7957747E-01            NaN
         13   -1    0    0    0    0  0.00000000000E+00  0.00000000000E+00  0.74505805969E-08  0.10566000000E+00  0.10566000000E+00 0. -1.
     999900   -1    0    0    0    0 -0.00000000000E+00 -0.00000000000E+00 -0.74505805969E-08  0.93827000000E+00  0.93827000000E+00 0. -1.
     999902    2    1    2    0    0 -0.19225925342E-01  0.10688049158E-01 -0.97144921506E-02  0.10198833379E+01  0.10195998141E+01 0.  0.
     999903    2    3    3    0    0 -0.82627224097E-01  0.88545056914E-01  0.49971518012E-01  0.13216499398E+00  0.17405394413E-01 0.  0.
         14    1    1    2    0    0  0.19225925342E-01 -0.10688049158E-01  0.97144921506E-02  0.24046662093E-01  0.00000000000E+00 0. -1.
     999901    1    3    3    0    0  0.63401298755E-01 -0.77857007756E-01 -0.59686010163E-01  0.88771834393E+00  0.88000000000E+00 0. -1.
        -11    1    4    4    0    0 -0.24905469208E-01  0.38856403385E-01  0.20356262608E-01  0.50445426243E-01  0.51100000000E-03 0. -1.
         11    1    4    4    0    0 -0.57721754889E-01  0.49688653529E-01  0.29615255405E-01  0.81719567735E-01  0.51100000000E-03 0.  1.
</event>
<event>
 8    1  0.1042301E+005  0.1043930E+01  0.7957747E-01            NaN
         13   -1    0    0    0    0  0.00000000000E+00  0.00000000000E+00  0.74505805969E-08  0.10566000000E+00  0.10566000000E+00 0. -1.
     999900   -1    0    0    0    0 -0.00000000000E+00 -0.00000000000E+00 -0.74505805969E-08  0.93827000000E+00  0.93827000000E+00 0. -1.
     999902    2    1    2    0    0 -0.17949800377E-01 -0.10455826569E-01 -0.11510337492E-01  0.10201811577E+01  0.10199046950E+01 0.  0.
     999903    2    3    3    0    0 -0.12035329875E+00  0.46305946406E-01 -0.22497710803E-01  0.13235848522E+00  0.19582247734E-01 0.  0.
         14    1    1    2    0    0  0.17949800377E-01  0.10455826569E-01  0.11510337492E-01  0.23748842330E-01  0.00000000000E+00 0. -1.
     999901    1    3    3    0    0  0.10240349837E+00 -0.56761772975E-01  0.10987373311E-01  0.88782267245E+00  0.88000000000E+00 0. -1.
        -11    1    4    4    0    0 -0.26608219274E-01  0.17069820902E-01 -0.10240908175E-04  0.31617041994E-01  0.51100000000E-03 0.  1.
         11    1    4    4    0    0 -0.93745079471E-01  0.29236125504E-01 -0.22487469895E-01  0.10074144322E+00  0.51100000000E-03 0. -1.
</event>
<event>
 8    1  0.1042301E+005  0.1043930E+01  0.7957747E-01            NaN
         13   -1    0    0    0    0  0.00000000000E+00  0.00000000000E+00  0.74505805969E-08  0.10566000000E+00  0.10566000000E+00 0. -1.
     999900   -1    0    0    0    0 -0.00000000000E+00 -0.00000000000E+00 -0.74505805969E-08  0.93827000000E+00  0.93827000000E+00 0. -1.
     999902    2    1    2    0    0  0.53393142207E-02 -0.17955721831E-01  0.15413858173E-01  0.10196709141E+01  0.10193822982E+01 0.  0.
     999903    2    3    3    0    0  0.51437953489E-01  0.10159993865E+00  0.57874225093E-01  0.12937797176E+00  0.20513972199E-01 0.  0.
         14    1    1    2    0    0 -0.53393142207E-02  0.17955721831E-01 -0.15413858173E-01  0.24259085857E-01  0.00000000000E+00 0.  1.
     999901    1    3    3    0    0 -0.46098639268E-01 -0.11955566048E+00 -0.42460366920E-01  0.89029294238E+00  0.88000000000E+00 0. -1.
        -11    1    4    4    0    0  0.33915962761E-01  0.56657741430E-01  0.23290573077E-01  0.70022168698E-01  0.51100000000E-03 0.  1.
         11    1    4    4    0    0  0.17521990728E-01  0.44942197215E-01  0.34583652017E-01  0.59355803064E-01  0.51100000000E-03 0. -1.
</event>
<event>
 8    1  0.1042301E+005  0.1043930E+01  0.7957747E-01            NaN
         13   -1    0    0    0    0  0.00000000000E+00  0.00000000000E+00  0.74505805969E-08  0.10566000000E+00  0.10566000000E+00 0.  1.
     999900   -1    0    0    0    0 -0.00000000000E+00 -0.00000000000E+00 -0.74505805969E-08  0.93827000000E+00  0.93827000000E+00 0.  1.
     999902    2    1    2    0    0  0.10857165624E-01  0.16335254748E-01 -0.12915346904E-01  0.10204454353E+01  0.10201751622E+01 0.  0.
     999903    2    3    3    0    0 -0.73958866397E-01  0.29275326490E-01  0.99510808024E-01  0.12915376304E+00  0.21244644833E-01 0.  0.
         14    1    1    2    0    0 -0.10857165624E-01 -0.16335254748E-01  0.12915346904E-01  0.23484564691E-01  0.00000000000E+00 0.  1.
     999901    1    3    3    0    0  0.84816032020E-01 -0.12940071742E-01 -0.11242615493E+00  0.89129167227E+00  0.88000000000E+00 0.  1.
        -11    1    4    4    0    0 -0.30295688717E-01  0.23366409527E-01  0.46795687855E-01  0.60447625030E-01  0.51100000000E-03 0.  1.
         11    1    4    4    0    0 -0.43663177679E-01  0.59089169629E-02  0.52715120169E-01  0.68706138010E-01  0.51100000000E-03 0. -1.
</event>
<event>
 8    1  0.1042301E+005  0.1043930E+01  0.7957747E-01            NaN
         13   -1    0    0    0    0  0.00000000000E+00  0.00000000000E+00  0.74505805969E-08  0.10566000000E+00  0.10566000000E+00 0. -1.
     999900   -1    0    0    0    0 -0.00000000000E+00 -0.00000000000E+00 -0.74505805969E-08  0.93827000000E+00  0.93827000000E+00 0.  1.
     999902    2    1    2    0    0  0.85369236618E-03 -0.16533393612E-01  0.19986196018E-01  0.10179775449E+01  0.10176466734E+01 0.  0.
     999903    2    3    3    0    0 -0.27332114862E-01 -0.52818303824E-02  0.12634962569E+00  0.13105352527E+00  0.20877172686E-01 0.  0.
         14    1    1    2    0    0 -0.85369236618E-03  0.16533393612E-01 -0.19986196018E-01  0.25952455110E-01  0.00000000000E+00 0.  1.
     999901    1    3    3    0    0  0.28185807228E-01 -0.11251563229E-01 -0.10636342967E+00  0.88692401962E+00  0.88000000000E+00 0.  1.
        -11    1    4    4    0    0 -0.20244786807E-01  0.17117487051E-02  0.48759701983E-01  0.52825667388E-01  0.51100000000E-03 0. -1.
         11    1    4    4    0    0 -0.70873280549E-02 -0.69935790875E-02  0.77589923706E-01  0.78227857884E-01  0.51100000000E-03 0.  1.
</event>
<event>
 8    1  0.1042301E+005  0.1043930E+01  0.7957747E-01            NaN
         13   -1    0    0    0    0  0.00000000000E+00  0.00000000000E+00  0.74505805969E-08  0.10566000000E+00  0.10566000000E+00 0. -1.
     999900   -1    0    0    0    0 -0.00000000000E+00 -0.00000000000E+00 -0.74505805969E-08  0.93827000000E+00  0.93827000000E+00 0. -1.
     999902    2    1    2    0    0 -0.44454207047E-02  0.20766630141E-01 -0.10061127610E-01  0.10204301919E+01  0.10201595638E+01 0.  0.
     999903    2    3    3    0    0 -0.80924976953E-01 -0.68081137831E-01  0.70938876640E-01  0.12896844336E+00  0.20411808838E-01 0.  0.
         14    1    1    2    0    0  0.44454207047E-02 -0.20766630141E-01  0.10061127610E-01  0.23499808115E-01  0.00000000000E+00 0. -1.
     999901    1    3    3    0    0  0.76479556248E-01  0.88847767972E-01 -0.81000004251E-01  0.89146174853E+00  0.88000000000E+00 0.  1.
        -11    1    4    4    0    0 -0.25660645357E-01 -0.11133929411E-01  0.13895296250E-01  0.31237373179E-01  0.51100000000E-03 0.  1.
         11    1    4    4    0    0 -0.55264331596E-01 -0.56947208420E-01  0.57043580390E-01  0.97731070179E-01  0.51100000000E-03 0. -1.
</event>
<event>
 8    1  0.1042301E+005  0.1043930E+01  0.7957747E-01            NaN
         13   -1    0    0    0    0  0.00000000000E+00  0.00000000000E+00  0.74505805969E-08  0.10566000000E+00  0.10566000000E+00 0. -1.
     999900   -1    0    0    0    0 -0.00000000000E+00 -0.00000000000E+00 -0.74505805969E-08  0.93827000000E+00  0.93827000000E+00 0. -1.
     999902    2    1    2    0    0 -0.18713868225E-01 -0.81694448610E-02  0.14336229146E-01  0.10189805279E+01  0.10186750414E+01 0.  0.
     999903    2    3    3    0    0 -0.69569779529E-01  0.17685694399E-01  0.10897100949E+00  0.13206984827E+00  0.20372184566E-01 0.  0.
         14    1    1    2    0    0  0.18713868225E-01  0.81694448610E-02 -0.14336229146E-01  0.24949472127E-01  0.00000000000E+00 0.  1.
     999901    1    3    3    0    0  0.50855911303E-01 -0.25855139260E-01 -0.94634780340E-01  0.88691067960E+00  0.88000000000E+00 0. -1.
        -11    1    4    4    0    0 -0.42911264105E-01  0.40951324897E-02  0.50598569101E-01  0.66472723830E-01  0.51100000000E-03 0. -1.
         11    1    4    4    0    0 -0.26658515424E-01  0.13590561909E-01  0.58372440385E-01  0.65597124442E-01  0.51100000000E-03 0.  1.
</event>
<event>
 8    1  0.1042301E+005  0.1043930E+01  0.7957747E-01            NaN
         13   -1    0    0    0    0  0.00000000000E+00  0.00000000000E+00  0.74505805969E-08  0.10566000000E+00  0.10566000000E+00 0. -1.
     999900   -1    0    0    0    0 -0.00000000000E+00 -0.00000000000E+00 -0.74505805969E-08  0.93827000000E+00  0.93827000000E+00 0.  1.
     999902    2    1    2    0    0  0.11305135515E-01  0.21355158352E-01  0.17798278718E-02  0.10197015732E+01  0.10194136951E+01 0.  0.
     999903    2    3    3    0    0 -0.12144862820E+00  0.36090649998E-01 -0.17275148101E-01  0.12941859090E+00  0.19960877173E-01 0.  0.
         14    1    1    2    0    0 -0.11305135515E-01 -0.21355158352E-01 -0.17798278718E-02  0.24228426786E-01  0.00000000000E+00 0. -1.
     999901    1    3    3    0    0  0.13275376372E+00 -0.14735491646E-01  0.19054975973E-01  0.89028298232E+00  0.88000000000E+00 0. -1.
        -11    1    4    4    0    0 -0.96699293964E-01  0.35761616950E-01 -0.98427965573E-02  0.10357021032E+00  0.51100000000E-03 0. -1.
         11    1    4    4    0    0 -0.24749334241E-01  0.32903304858E-03 -0.74323515436E-02  0.25848380579E-01  0.51100000000E-03 0.  1.
</event>
<event>
 8    1  0.1349286E+005  0.1043930E+01  0.7957747E-01            NaN
         13   -1    0    0    0    0  0.00000000000E+00  0.00000000000E+00  0.74505805969E-08  0.10566000000E+00  0.10566000000E+00 0.  1.
     999900   -1    0    0    0    0 -0.00000000000E+00 -0.00000000000E+00 -0.74505805969E-08  0.93827000000E+00  0.93827000000E+00 0.  1.
     999902    2    1    2    0    0 -0.27505962954E-02 -0.12790253804E-01 -0.19182602689E-01  0.10207108566E+01  0.10204467278E+01 0.  0.
     999903    2    3    3    0    0 -0.11932498228E+00  0.49479057723E-01 -0.42421836824E-02  0.13071632253E+00  0.19548204638E-01 0.  0.
         14    1    1    2    0    0  0.27505962954E-02  0.12790253804E-01  0.19182602689E-01  0.23219143358E-01  0.00000000000E+00 0.  1.
     999901    1    3    3    0    0  0.11657438598E+00 -0.62269311528E-01 -0.14940419006E-01  0.88999453411E+00  0.88000000000E+00 0.  1.
        -11    1    4    4    0    0 -0.67803715595E-01  0.17879464683E-01 -0.45890299930E-02  0.70273319426E-01  0.51100000000E-03 0. -1.
         11    1    4    4    0    0 -0.51521266685E-01  0.31599593040E-01  0.34684631058E-03  0.60443003106E-01  0.51100000000E-03 0.  1.
</event>
<event>
 8    1  0.1042301E+005  0.1043930E+01  0.7957747E-01            NaN
         13   -1    0    0    0    0  0.00000000000E+00  0.00000000000E+00  0.74505805969E-08  0.10566000000E+00  0.10566000000E+00 0. -1.
     999900   -1    0    0    0    0 -0.00000000000E+00 -0.00000000000E+00 -0.74505805969E-08  0.93827000000E+00  0.93827000000E+00 0. -1.
     999902    2    1    2    0    0 -0.12490944274E-02 -0.74660619885E-02 -0.25792169034E-01  0.10170499274E+01  0.10166946526E+01 0.  0.
     999903    2    3    3    0    0  0.46115077830E-01 -0.65698466074E-01  0.94638561009E-01  0.12568135133E+00  0.19911202740E-01 0.  0.
         14    1    1    2    0    0  0.12490944274E-02  0.74660619885E-02  0.25792169034E-01  0.26880072582E-01  0.00000000000E+00 0. -1.
     999901    1    3    3    0    0 -0.47364172257E-01  0.58232404086E-01 -0.12043073004E+00  0.89136857609E+00  0.88000000000E+00 0. -1.
        -11    1    4    4    0    0  0.32174384864E-01 -0.28597668073E-01  0.50420432077E-01  0.66298557695E-01  0.51100000000E-03 0.  1.
         11    1    4    4    0    0  0.13940692966E-01 -0.37100798001E-01  0.44218128932E-01  0.59382793635E-01  0.51100000000E-03 0. -1.
</event>
<event>
 8    1  0.1042301E+005  0.1043930E+01  0.7957747E-01            NaN
         13   -1    0    0    0    0  0.00000000000E+00  0.00000000000E+00  0.74505805969E-08  0.10566000000E+00  0.10566000000E+00 0. -1.
     999900   -1    0    0    0    0 -0.00000000000E+00 -0.00000000000E+00 -0.74505805969E-08  0.93827000000E+00  0.93827000000E+00 0.  1.
     999902    2    1    2    0    0 -0.69164676581E-02  0.27159473365E-02  0.16343718856E-01  0.10259764198E+01  0.10258193228E+01 0.  0.
     999903    2    3    3    0    0  0.86315754374E-01  0.76251656187E-01 -0.65756808147E-01  0.13421398272E+00  0.20608513210E-01 0.  0.
         14    1    1    2    0    0  0.69164676581E-02 -0.27159473365E-02 -0.16343718856E-01  0.17953580168E-01  0.00000000000E+00 0.  1.
     999901    1    3    3    0    0 -0.93232222032E-01 -0.73535708851E-01  0.82100527003E-01  0.89176243711E+00  0.88000000000E+00 0.  1.
        -11    1    4    4    0    0  0.46298893783E-01  0.37393933184E-01 -0.45320557512E-01  0.74807137752E-01  0.51100000000E-03 0. -1.
         11    1    4    4    0    0  0.40016860591E-01  0.38857723004E-01 -0.20436250635E-01  0.59406844973E-01  0.51100000000E-03 0.  1.
</event>
<event>
 8    1  0.1042301E+005  0.1043930E+01  0.7957747E-01            NaN
         13   -1    0    0    0    0  0.00000000000E+00  0.00000000000E+00  0.74505805969E-08  0.10566000000E+00  0.10566000000E+00 0.  1.
     999900   -1    0    0    0    0 -0.00000000000E+00 -0.00000000000E+00 -0.74505805969E-08  0.93827000000E+00  0.93827000000E+00 0.  1.
     999902    2    1    2    0    0 -0.17746668820E-01 -0.85707528489E-02 -0.13145724919E-01  0.10202400835E+01  0.10199650072E+01 0.  0.
     999903    2    3    3    0    0  0.12239469784E+00 -0.34249033543E-01 -0.59347275645E-02  0.12875201562E+00  0.19707921661E-01 0.  0.
         14    1    1    2    0    0  0.17746668820E-01  0.85707528489E-02  0.13145724919E-01  0.23689916468E-01  0.00000000000E+00 0.  1.
     999901    1    3    3    0    0 -0.14014136666E+00  0.25678280694E-01 -0.72109973542E-02  0.89148806791E+00  0.88000000000E+00 0. -1.
        -11    1    4    4    0    0  0.69199819116E-01 -0.24716237898E-01 -0.11669348419E-01  0.74403912498E-01  0.51100000000E-03 0.  1.
         11    1    4    4    0    0  0.53194878726E-01 -0.95327956454E-02  0.57346208544E-02  0.54348103120E-01  0.51100000000E-03 0. -1.
</event>
<event>
 8    1  0.1042301E+005  0.1043930E+01  0.7957747E-01            NaN
         13   -1    0    0    0    0  0.00000000000E+00  0.00000000000E+00  0.74505805969E-08  0.10566000000E+00  0.10566000000E+00 0.  1.
     999900   -1    0    0    0    0 -0.00000000000E+00 -0.00000000000E+00 -0.74505805969E-08  0.93827000000E+00  0.93827000000E+00 0.  1.
     999902    2    1    2    0    0 -0.23682364264E-01  0.51251068033E-02 -0.80094744466E-02  0.10184099534E+01  0.10180901534E+01 0.  0.
     999903    2    3    3    0    0 -0.42456221739E-01  0.37981283555E-01 -0.11612710846E+00  0.13098592350E+00  0.20656673814E-01 0.  0.
         14    1    1    2    0    0  0.23682364264E-01 -0.51251068033E-02  0.80094744466E-02  0.25520046586E-01  0.00000000000E+00 0.  1.
     999901    1    3    3    0    0  0.18773857475E-01 -0.32856176752E-01  0.10811763401E+00  0.88742402991E+00  0.88000000000E+00 0. -1.
        -11    1    4    4    0    0 -0.28283952103E-01  0.19021146833E-01 -0.87060083695E-01  0.93496017388E-01  0.51100000000E-03 0.  1.
         11    1    4    4    0    0 -0.14172269636E-01  0.18960136723E-01 -0.29067024762E-01  0.37489906117E-01  0.51100000000E-03 0. -1.
</event>
<event>
 8    1  0.1042301E+005  0.1043930E+01  0.7957747E-01            NaN
         13   -1    0    0    0    0  0.00000000000E+00  0.00000000000E+00  0.74505805969E-08  0.10566000000E+00  0.10566000000E+00 0. -1.
     999900   -1    0    0    0    0 -0.00000000000E+00 -0.00000000000E+00 -0.74505805969E-08  0.93827000000E+00  0.93827000000E+00 0. -1.
     999902    2    1    2    0    0 -0.87226710975E-02  0.22119225094E-01 -0.14628769062E-02  0.10201080538E+01  0.10198298664E+01 0.  0.
     999903    2    3    3    0    0  0.12503641947E-01  0.12881812261E+00  0.23116530089E-01  0.13306839388E+00  0.20551732587E-01 0.  0.
         14    1    1    2    0    0  0.87226710975E-02 -0.22119225094E-01  0.14628769062E-02  0.23821946156E-01  0.00000000000E+00 0.  1.
     999901    1    3    3    0    0 -0.21226313044E-01 -0.10669889752E+00 -0.24579406996E-01  0.88703965996E+00  0.88000000000E+00 0. -1.
        -11    1    4    4    0    0  0.13022424879E-01  0.43911655916E-01  0.36089921965E-02  0.45946741133E-01  0.51100000000E-03 0.  1.
         11    1    4    4    0    0 -0.51878293251E-03  0.84906466694E-01  0.19507537893E-01  0.87121652750E-01  0.51100000000E-03 0. -1.
</event>
<event>
 8    1  0.1042301E+005  0.1043930E+01  0.7957747E-01            NaN
         13   -1    0    0    0    0  0.00000000000E+00  0.00000000000E+00  0.74505805969E-08  0.10566000000E+00  0.10566000000E+00 0. -1.
     999900   -1    0    0    0    0 -0.00000000000E+00 -0.00000000000E+00 -0.74505805969E-08  0.93827000000E+00  0.93827000000E+00 0. -1.
     999902    2    1    2    0    0  0.10748618210E-01  0.97942093066E-02  0.21536199448E-01  0.10179440958E+01  0.10176123599E+01 0.  0.
     999903    2    3    3    0    0 -0.18646367331E-01 -0.12007547612E+00 -0.28586448716E-01  0.12651688049E+00  0.20579820716E-01 0.  0.
         14    1    1    2    0    0 -0.10748618210E-01 -0.97942093066E-02 -0.21536199448E-01  0.25985904179E-01  0.00000000000E+00 0. -1.
     999901    1    3    3    0    0  0.29394985541E-01  0.12986968542E+00  0.50122648163E-01  0.89142721533E+00  0.88000000000E+00 0.  1.
        -11    1    4    4    0    0 -0.12198045271E-01 -0.82631065721E-01 -0.29280414881E-01  0.88511519856E-01  0.51100000000E-03 0.  1.
         11    1    4    4    0    0 -0.64483220607E-02 -0.37444410394E-01  0.69396616497E-03  0.38005360638E-01  0.51100000000E-03 0. -1.
</event>
<event>
 8    1  0.1042301E+005  0.1043930E+01  0.7957747E-01            NaN
         13   -1    0    0    0    0  0.00000000000E+00  0.00000000000E+00  0.74505805969E-08  0.10566000000E+00  0.10566000000E+00 0. -1.
     999900   -1    0    0    0    0 -0.00000000000E+00 -0.00000000000E+00 -0.74505805969E-08  0.93827000000E+00  0.93827000000E+00 0. -1.
     999902    2    1    2    0    0 -0.22687921510E-02  0.15383233269E-01  0.16446566468E-01  0.10212963783E+01  0.10210455482E+01 0.  0.
     999903    2    3    3    0    0 -0.66472841480E-01  0.64966172399E-01 -0.90320863334E-01  0.13113913831E+00  0.20009323639E-01 0.  0.
         14    1    1    2    0    0  0.22687921510E-02 -0.15383233269E-01 -0.16446566468E-01  0.22633621721E-01  0.00000000000E+00 0.  1.
     999901    1    3    3    0    0  0.64204049329E-01 -0.49582939130E-01  0.10676742980E+00  0.89015723997E+00  0.88000000000E+00 0.  1.
        -11    1    4    4    0    0 -0.12035196216E-01  0.12307078289E-01 -0.28821040272E-01  0.33574150881E-01  0.51100000000E-03 0. -1.
         11    1    4    4    0    0 -0.54437645264E-01  0.52659094109E-01 -0.61499823062E-01  0.97564987429E-01  0.51100000000E-03 0.  1.
</event>
<event>
 8    1  0.1042301E+005  0.1043930E+01  0.7957747E-01            NaN
         13   -1    0    0    0    0  0.00000000000E+00  0.00000000000E+00  0.74505805969E-08  0.10566000000E+00  0.10566000000E+00 0. -1.
     999900   -1    0    0    0    0 -0.00000000000E+00 -0.00000000000E+00 -0.74505805969E-08  0.93827000000E+00  0.93827000000E+00 0.  1.
     999902    2    1    2    0    0  0.54747724849E-02  0.22605534451E-01 -0.55707782885E-02  0.10200131254E+01  0.10197326900E+01 0.  0.
     999903    2    3    3    0    0  0.12737907398E+00 -0.19581127894E-01 -0.71108300125E-02  0.13060728720E+00  0.19971242032E-01 0.  0.
         14    1    1    2    0    0 -0.54747724849E-02 -0.22605534451E-01  0.55707782885E-02  0.23916874635E-01  0.00000000000E+00 0.  1.
     999901    1    3    3    0    0 -0.12190430150E+00  0.42186662345E-01  0.15400517240E-02  0.88940583817E+00  0.88000000000E+00 0. -1.
        -11    1    4    4    0    0  0.27740347567E-01 -0.10199899315E-01  0.43253329053E-02  0.29875315143E-01  0.51100000000E-03 0.  1.
         11    1    4    4    0    0  0.99638726414E-01 -0.93812285794E-02 -0.11436162918E-01  0.10073197206E+00  0.51100000000E-03 0. -1.
</event>
<event>
 8    1  0.1042301E+005  0.1043930E+01  0.7957747E-01            NaN
         13   -1    0    0    0    0  0.00000000000E+00  0.00000000000E+00  0.74505805969E-08  0.10566000000E+00  0.10566000000E+00 0.  1.
     999900   -1    0    0    0    0 -0.00000000000E+00 -0.00000000000E+00 -0.74505805969E-08  0.93827000000E+00  0.93827000000E+00 0.  1.
     999902    2    1    2    0    0  0.26326513836E-02 -0.10919866067E-01 -0.19332922027E-01  0.10215707468E+01  0.10213260276E+01 0.  0.
     999903    2    3    3    0    0  0.10749888702E+00  0.70236995002E-01 -0.19955279601E-01  0.13163605776E+00  0.20990291623E-01 0.  0.
         14    1    1    2    0    0 -0.26326513836E-02  0.10919866067E-01  0.19332922027E-01  0.22359253170E-01  0.00000000000E+00 0.  1.
     999901    1    3    3    0    0 -0.10486623563E+00 -0.81156861069E-01  0.62235757333E-03  0.88993468907E+00  0.88000000000E+00 0. -1.
        -11    1    4    4    0    0  0.34723280431E-01  0.14843043845E-01  0.11038945858E-02  0.37782295572E-01  0.51100000000E-03 0.  1.
         11    1    4    4    0    0  0.72775606588E-01  0.55393951157E-01 -0.21059174186E-01  0.93853762191E-01  0.51100000000E-03 0. -1.
</event>
<event>
 8    1  0.1099849E+005  0.1043930E+01  0.7957747E-01            NaN
         13   -1    0    0    0    0  0.00000000000E+00  0.00000000000E+00  0.74505805969E-08  0.10566000000E+00  0.10566000000E+00 0. -1.
     999900   -1    0    0    0    0 -0.00000000000E+00 -0.00000000000E+00 -0.74505805969E-08  0.93827000000E+00  0.93827000000E+00 0.  1.
     999902    2    1    2    0    0 -0.68160441980E-02  0.24335544314E-01 -0.17775969041E-02  0.10185954973E+01  0.10182803888E+01 0.  0.
     999903    2    3    3    0    0  0.10187732447E+00  0.78523855070E-01  0.63285041948E-03  0.13025072659E+00  0.20490637406E-01 0.  0.
         14    1    1    2    0    0  0.68160441980E-02 -0.24335544314E-01  0.17775969041E-02  0.25334502686E-01  0.00000000000E+00 0. -1.
     999901    1    3    3    0    0 -0.10869336867E+00 -0.54188310756E-01 -0.24104473236E-02  0.88834477072E+00  0.88000000000E+00 0.  1.
        -11    1    4    4    0    0  0.61482859871E-01  0.34936733675E-01 -0.22302559919E-02  0.70752756699E-01  0.51100000000E-03 0.  1.
         11    1    4    4    0    0  0.40394464600E-01  0.43587121395E-01  0.28631064114E-02  0.59497969891E-01  0.51100000000E-03 0. -1.
</event>
<event>
 8    1  0.1042301E+005  0.1043930E+01  0.7957747E-01            NaN
         13   -1    0    0    0    0  0.00000000000E+00  0.00000000000E+00  0.74505805969E-08  0.10566000000E+00  0.10566000000E+00 0. -1.
     999900   -1    0    0    0    0 -0.00000000000E+00 -0.00000000000E+00 -0.74505805969E-08  0.93827000000E+00  0.93827000000E+00 0. -1.
     999902    2    1    2    0    0 -0.13138474860E-01 -0.10494061103E-01 -0.15921380766E-01  0.10207732471E+01  0.10205105520E+01 0.  0.
     999903    2    3    3    0    0 -0.61680874956E-01 -0.96198986208E-01  0.62824282048E-01  0.13178360811E+00  0.19006674315E-01 0.  0.
         14    1    1    2    0    0  0.13138474860E-01  0.10494061103E-01  0.15921380766E-01  0.23156752915E-01  0.00000000000E+00 0. -1.
     999901    1    3    3    0    0  0.48542400096E-01  0.85704925105E-01 -0.78745662814E-01  0.88898963898E+00  0.88000000000E+00 0. -1.
        -11    1    4    4    0    0 -0.52725144453E-01 -0.81156974365E-01  0.60451929076E-01  0.11411000042E+00  0.51100000000E-03 0. -1.
         11    1    4    4    0    0 -0.89557305035E-02 -0.15042011843E-01  0.23723529717E-02  0.17673607690E-01  0.51100000000E-03 0.  1.
</event>
<event>
 8    1  0.1042301E+005  0.1043930E+01  0.7957747E-01            NaN
         13   -1    0    0    0    0  0.00000000000E+00  0.00000000000E+00  0.74505805969E-08  0.10566000000E+00  0.10566000000E+00 0.  1.
     999900   -1    0    0    0    0 -0.00000000000E+00 -0.00000000000E+00 -0.74505805969E-08  0.93827000000E+00  0.93827000000E+00 0.  1.
     999902    2    1    2    0    0  0.17448321633E-01 -0.12117875041E-01  0.12557473106E-01  0.10192525416E+01  0.10189537608E+01 0.  0.
     999903    2    3    3    0    0 -0.11397388969E+00  0.23847145670E-01  0.49453602907E-01  0.12800251788E+00  0.19500047607E-01 0.  0.
         14    1    1    2    0    0 -0.17448321633E-01  0.12117875041E-01 -0.12557473106E-01  0.24677458421E-01  0.00000000000E+00 0. -1.
     999901    1    3    3    0    0  0.13142221132E+00 -0.35965020712E-01 -0.36896129802E-01  0.89125002370E+00  0.88000000000E+00 0.  1.
        -11    1    4    4    0    0 -0.25125427767E-01  0.13338001085E-01  0.92635941174E-02  0.29920974088E-01  0.51100000000E-03 0. -1.
         11    1    4    4    0    0 -0.88848461921E-01  0.10509144585E-01  0.40190008790E-01  0.98081543795E-01  0.51100000000E-03 0.  1.
</event>
<event>
 8    1  0.1042301E+005  0.1043930E+01  0.7957747E-01            NaN
         13   -1    0    0    0    0  0.00000000000E+00  0.00000000000E+00  0.74505805969E-08  0.10566000000E+00  0.10566000000E+00 0.  1.
     999900   -1    0    0    0    0 -0.00000000000E+00 -0.00000000000E+00 -0.74505805969E-08  0.93827000000E+00  0.93827000000E+00 0. -1.
     999902    2    1    2    0    0 -0.13197957848E-01 -0.13098814000E-01 -0.17924925358E-01  0.10181023410E+01  0.10177746847E+01 0.  0.
     999903    2    3    3    0    0 -0.97392470438E-01  0.31847530125E-01  0.74173488329E-01  0.12816357480E+00  0.20606723730E-01 0.  0.
         14    1    1    2    0    0  0.13197957848E-01  0.13098814000E-01  0.17924925358E-01  0.25827658985E-01  0.00000000000E+00 0.  1.
     999901    1    3    3    0    0  0.84194512590E-01 -0.44946344125E-01 -0.92098413687E-01  0.88993876621E+00  0.88000000000E+00 0. -1.
        -11    1    4    4    0    0 -0.56319422810E-01  0.25155365841E-01  0.34555043802E-01  0.70703479330E-01  0.51100000000E-03 0.  1.
         11    1    4    4    0    0 -0.41073047627E-01  0.66921642847E-02  0.39618444527E-01  0.57460095474E-01  0.51100000000E-03 0. -1.
</event>
<event>
 8    1  0.1042301E+005  0.1043930E+01  0.7957747E-01            NaN
         13   -1    0    0    0    0  0.00000000000E+00  0.00000000000E+00  0.74505805969E-08  0.10566000000E+00  0.10566000000E+00 0.  1.
     999900   -1    0    0    0    0 -0.00000000000E+00 -0.00000000000E+00 -0.74505805969E-08  0.93827000000E+00  0.93827000000E+00 0.  1.
     999902    2    1    2    0    0  0.15532169525E-01  0.45679027196E-02  0.21045763927E-01  0.10173774445E+01  0.10170308876E+01 0.  0.
     999903    2    3    3    0    0  0.37021063950E-03  0.11110038121E+00 -0.58489649262E-01  0.12726231939E+00  0.20766008397E-01 0.  0.
         14    1    1    2    0    0 -0.15532169525E-01 -0.45679027196E-02 -0.21045763927E-01  0.26552555520E-01  0.00000000000E+00 0. -1.
     999901    1    3    3    0    0  0.15161958886E-01 -0.10653247849E+00  0.79535413188E-01  0.89011512509E+00  0.88000000000E+00 0. -1.
        -11    1    4    4    0    0  0.10490357882E-02  0.10564089808E+00 -0.49402963704E-01  0.11662767153E+00  0.51100000000E-03 0.  1.
         11    1    4    4    0    0 -0.67882514869E-03  0.54594831288E-02 -0.90866855573E-02  0.10634647857E-01  0.51100000000E-03 0. -1.
</event>
<event>
 8    1  0.1042301E+005  0.1043930E+01  0.7957747E-01            NaN
         13   -1    0    0    0    0  0.00000000000E+00  0.00000000000E+00  0.74505805969E-08  0.10566000000E+00  0.10566000000E+00 0.  1.
     999900   -1    0    0    0    0 -0.00000000000E+00 -0.00000000000E+00 -0.74505805969E-08  0.93827000000E+00  0.93827000000E+00 0. -1.
     999902    2    1    2    0    0  0.34385354790E-03 -0.11459707472E-01  0.18157656074E-01  0.10224557455E+01  0.10222302128E+01 0.  0.
     999903    2    3    3    0    0  0.49864185738E-01 -0.10708893479E+00  0.61993738532E-01  0.13480783418E+00  0.19376572592E-01 0.  0.
         14    1    1    2    0    0 -0.34385354790E-03  0.11459707472E-01 -0.18157656074E-01  0.21474254462E-01  0.00000000000E+00 0. -1.
     999901    1    3    3    0    0 -0.49520332190E-01  0.95629227315E-01 -0.43836082459E-01  0.88764791136E+00  0.88000000000E+00 0. -1.
        -11    1    4    4    0    0  0.49384748103E-01 -0.90751917841E-01  0.52379492059E-01  0.11583883738E+00  0.51100000000E-03 0.  1.
         11    1    4    4    0    0  0.47943763504E-03 -0.16337016945E-01  0.96142464737E-02  0.18968996794E-01  0.51100000000E-03 0. -1.
</event>
<event>
 8    1  0.1042301E+005  0.1043930E+01  0.7957747E-01            NaN
         13   -1    0    0    0    0  0.00000000000E+00  0.00000000000E+00  0.74505805969E-08  0.10566000000E+00  0.10566000000E+00 0.  1.
     999900   -1    0    0    0    0 -0.00000000000E+00 -0.00000000000E+00 -0.74505805969E-08  0.93827000000E+00  0.93827000000E+00 0.  1.
     999902    2    1    2    0    0 -0.65086813699E-02  0.98257308536E-02 -0.21692020172E-01  0.10192429253E+01  0.10189439087E+01 0.  0.
     999903    2    3    3    0    0  0.59944945017E-01 -0.74333704972E-01 -0.86394008557E-01  0.13037553223E+00  0.20370531683E-01 0.  0.
         14    1    1    2    0    0  0.65086813699E-02 -0.98257308536E-02  0.21692020172E-01  0.24687074738E-01  0.00000000000E+00 0.  1.
     999901    1    3    3    0    0 -0.66453626387E-01  0.84159435826E-01  0.64701988384E-01  0.88886739303E+00  0.88000000000E+00 0. -1.
        -11    1    4    4    0    0  0.41162898704E-01 -0.56182448654E-01 -0.73440948801E-01  0.10121603553E+00  0.51100000000E-03 0. -1.
         11    1    4    4    0    0  0.18782046313E-01 -0.18151256318E-01 -0.12953059755E-01  0.29159496697E-01  0.51100000000E-03 0.  1.
</event>
<event>
 8    1  0.1042301E+005  0.1043930E+01  0.7957747E-01            NaN
         13   -1    0    0    0    0  0.00000000000E+00  0.00000000000E+00  0.74505805969E-08  0.10566000000E+00  0.10566000000E+00 0. -1.
     999900   -1    0    0    0    0 -0.00000000000E+00 -0.00000000000E+00 -0.74505805969E-08  0.93827000000E+00  0.93827000000E+00 0.  1.
     999902    2    1    2    0    0 -0.21323314198E-01 -0.93779180084E-02 -0.35739721470E-02  0.10203630241E+01  0.10200908286E+01 0.  0.
     999903    2    3    3    0    0 -0.90193607079E-01 -0.66169349354E-01  0.69273696993E-01  0.13285236684E+00  0.18374893948E-01 0.  0.
         14    1    1    2    0    0  0.21323314198E-01  0.93779180084E-02  0.35739721470E-02  0.23566975866E-01  0.00000000000E+00 0. -1.
     999901    1    3    3    0    0  0.68870292881E-01  0.56791431345E-01 -0.72847669140E-01  0.88751065730E+00  0.88000000000E+00 0. -1.
        -11    1    4    4    0    0 -0.40774695155E-01 -0.29009783753E-01  0.41739717546E-01  0.65166006937E-01  0.51100000000E-03 0. -1.
         11    1    4    4    0    0 -0.49418911924E-01 -0.37159565601E-01  0.27533979447E-01  0.67686359901E-01  0.51100000000E-03 0.  1.
</event>
<event>
 8    1  0.1042301E+005  0.1043930E+01  0.7957747E-01            NaN
         13   -1    0    0    0    0  0.00000000000E+00  0.00000000000E+00  0.74505805969E-08  0.10566000000E+00  0.10566000000E+00 0.  1.
     999900   -1    0    0    0    0 -0.00000000000E+00 -0.00000000000E+00 -0.74505805969E-08  0.93827000000E+00  0.93827000000E+00 0.  1.
     999902    2    1    2    0    0  0.20938522503E-01  0.12957793491E-01 -0.10006915585E-01  0.10173506002E+01  0.10170033329E+01 0.  0.
     999903    2    3    3    0    0  0.44591269158E-01 -0.10228993936E-01  0.11751541652E+00  0.12754217992E+00  0.19081953124E-01 0.  0.
         14    1    1    2    0    0 -0.20938522503E-01 -0.12957793491E-01  0.10006915585E-01  0.26579399848E-01  0.00000000000E+00 0.  1.
     999901    1    3    3    0    0 -0.23652746655E-01  0.23186787427E-01 -0.12752233211E+00  0.88980842024E+00  0.88000000000E+00 0.  1.
        -11    1    4    4    0    0  0.28383873831E-01  0.30056218277E-02  0.71598526113E-01  0.77079751678E-01  0.51100000000E-03 0. -1.
         11    1    4    4    0    0  0.16207395327E-01 -0.13234615764E-01  0.45916890411E-01  0.50462428238E-01  0.51100000000E-03 0.  1.
</event>
<event>
 8    1  0.1042301E+005  0.1043930E+01  0.7957747E-01            NaN
         13   -1    0    0    0    0  0.00000000000E+00  0.00000000000E+00  0.74505805969E-08  0.10566000000E+00  0.10566000000E+00 0. -1.
     999900   -1    0    0    0    0 -0.00000000000E+00 -0.00000000000E+00 -0.74505805969E-08  0.93827000000E+00  0.93827000000E+00 0. -1.
     999902    2    1    2    0    0 -0.19431266494E-02  0.23193758753E-01 -0.63406642341E-02  0.10198067703E+01  0.10195214165E+01 0.  0.
     999903    2    3    3    0    0  0.12571748902E+00 -0.17737196094E-01 -0.14913351781E-01  0.12961237200E+00  0.21388402113E-01 0.  0.
         14    1    1    2    0    0  0.19431266494E-02 -0.23193758753E-01  0.63406642341E-02  0.24123229659E-01  0.00000000000E+00 0. -1.
     999901    1    3    3    0    0 -0.12766061567E+00  0.40930954847E-01  0.85726875473E-02  0.89019439834E+00  0.88000000000E+00 0.  1.
        -11    1    4    4    0    0  0.66837080537E-01 -0.41219410186E-02 -0.17176497719E-01  0.69133775590E-01  0.51100000000E-03 0.  1.
         11    1    4    4    0    0  0.58880408482E-01 -0.13615255075E-01  0.22631459380E-02  0.60478596415E-01  0.51100000000E-03 0. -1.
</event>
<event>
 8    1  0.1042301E+005  0.1043930E+01  0.7957747E-01            NaN
         13   -1    0    0    0    0  0.00000000000E+00  0.00000000000E+00  0.74505805969E-08  0.10566000000E+00  0.10566000000E+00 0.  1.
     999900   -1    0    0    0    0 -0.00000000000E+00 -0.00000000000E+00 -0.74505805969E-08  0.93827000000E+00  0.93827000000E+00 0.  1.
     999902    2    1    2    0    0  0.38431857982E-02  0.11325399064E-01 -0.19725009780E-01  0.10208624741E+01  0.10206018226E+01 0.  0.
     999903    2    3    3    0    0 -0.48922738912E-01  0.11099106607E+00  0.46110443907E-01  0.13122670876E+00  0.19540340962E-01 0.  0.
         14    1    1    2    0    0 -0.38431857982E-02 -0.11325399064E-01  0.19725009780E-01  0.23067525915E-01  0.00000000000E+00 0.  1.
     999901    1    3    3    0    0  0.52765924710E-01 -0.99665667001E-01 -0.65835453686E-01  0.88963576533E+00  0.88000000000E+00 0.  1.
        -11    1    4    4    0    0 -0.55456872115E-02  0.34225316671E-01  0.12325157851E-01  0.36800782396E-01  0.51100000000E-03 0.  1.
         11    1    4    4    0    0 -0.43377051700E-01  0.76765749394E-01  0.33785286056E-01  0.94425926361E-01  0.51100000000E-03 0. -1.
</event>
<event>
 8    1  0.1042301E+005  0.1043930E+01  0.7957747E-01            NaN
         13   -1    0    0    0    0  0.00000000000E+00  0.00000000000E+00  0.74505805969E-08  0.10566000000E+00  0.10566000000E+00 0. -1.
     999900   -1    0    0    0    0 -0.00000000000E+00 -0.00000000000E+00 -0.74505805969E-08  0.93827000000E+00  0.93827000000E+00 0.  1.
     999902    2    1    2    0    0 -0.19963326546E-01  0.10268015332E-01  0.62121279594E-02  0.10206371453E+01  0.10203713174E+01 0.  0.
     999903    2    3    3    0    0  0.12230416836E+00  0.35008679965E-01 -0.10132710582E-02  0.12883876732E+00  0.20358879523E-01 0.  0.
         14    1    1    2    0    0  0.19963326546E-01 -0.10268015332E-01 -0.62121279594E-02  0.23292854686E-01  0.00000000000E+00 0.  1.
     999901    1    3    3    0    0 -0.14226749491E+00 -0.24740664633E-01  0.72253990175E-02  0.89179837799E+00  0.88000000000E+00 0. -1.
        -11    1    4    4    0    0  0.57060660679E-01  0.25952549547E-01  0.37215305244E-02  0.62797808366E-01  0.51100000000E-03 0. -1.
         11    1    4    4    0    0  0.65243507684E-01  0.90561304177E-02 -0.47348015826E-02  0.66040958958E-01  0.51100000000E-03 0.  1.
</event>
<event>
 8    1  0.1042301E+005  0.1043930E+01  0.7957747E-01            NaN
         13   -1    0    0    0    0  0.00000000000E+00  0.00000000000E+00  0.74505805969E-08  0.10566000000E+00  0.10566000000E+00 0. -1.
     999900   -1    0    0    0    0 -0.00000000000E+00 -0.00000000000E+00 -0.74505805969E-08  0.93827000000E+00  0.93827000000E+00 0. -1.
     999902    2    1    2    0    0 -0.12879972733E-01  0.99264699897E-02  0.17201297326E-01  0.10202590656E+01  0.10199844351E+01 0.  0.
     999903    2    3    3    0    0 -0.32993462198E-01 -0.10695771315E+00  0.65314065207E-01  0.13100021515E+00  0.19147018213E-01 0.  0.
         14    1    1    2    0    0  0.12879972733E-01 -0.99264699897E-02 -0.17201297326E-01  0.23670934366E-01  0.00000000000E+00 0.  1.
     999901    1    3    3    0    0  0.20113489465E-01  0.11688418314E+00 -0.48112767881E-01  0.88925885048E+00  0.88000000000E+00 0. -1.
        -11    1    4    4    0    0 -0.21942486615E-01 -0.71599809438E-01  0.53778894381E-01  0.92197809259E-01  0.51100000000E-03 0. -1.
         11    1    4    4    0    0 -0.11050975583E-01 -0.35357903710E-01  0.11535170826E-01  0.38802405893E-01  0.51100000000E-03 0.  1.
</event>
<event>
 8    1  0.1042301E+005  0.1043930E+01  0.7957747E-01            NaN
         13   -1    0    0    0    0  0.00000000000E+00  0.00000000000E+00  0.74505805969E-08  0.10566000000E+00  0.10566000000E+00 0.  1.
     999900   -1    0    0    0    0 -0.00000000000E+00 -0.00000000000E+00 -0.74505805969E-08  0.93827000000E+00  0.93827000000E+00 0. -1.
     999902    2    1    2    0    0  0.44540170918E-02  0.90147600753E-02  0.22540114363E-01  0.10192488144E+01  0.10189499422E+01 0.  0.
     999903    2    3    3    0    0  0.36047223110E-01 -0.18614880320E-01 -0.11865595987E+00  0.12700565299E+00  0.20131642163E-01 0.  0.
         14    1    1    2    0    0 -0.44540170918E-02 -0.90147600753E-02 -0.22540114363E-01  0.24681185607E-01  0.00000000000E+00 0. -1.
     999901    1    3    3    0    0 -0.31593206018E-01  0.27629640396E-01  0.14119607423E+00  0.89224316140E+00  0.88000000000E+00 0.  1.
        -11    1    4    4    0    0  0.12544279770E-01  0.70716799866E-03 -0.55423148026E-01  0.56831729690E-01  0.51100000000E-03 0.  1.
         11    1    4    4    0    0  0.23502943340E-01 -0.19322048319E-01 -0.63232811840E-01  0.70173923298E-01  0.51100000000E-03 0. -1.
</event>
<event>
 8    1  0.1042301E+005  0.1043930E+01  0.7957747E-01            NaN
         13   -1    0    0    0    0  0.00000000000E+00  0.00000000000E+00  0.74505805969E-08  0.10566000000E+00  0.10566000000E+00 0. -1.
     999900   -1    0    0    0    0 -0.00000000000E+00 -0.00000000000E+00 -0.74505805969E-08  0.93827000000E+00  0.93827000000E+00 0. -1.
     999902    2    1    2    0    0  0.19216038017E-01 -0.12450524421E-01  0.24550392996E-02  0.10209017805E+01  0.10206420266E+01 0.  0.
     999903    2    3    3    0    0  0.13050445994E+00  0.94315779070E-02 -0.16988022878E-01  0.13340982452E+00  0.19728649998E-01 0.  0.
         14    1    1    2    0    0 -0.19216038017E-01  0.12450524421E-01 -0.24550392996E-02  0.23028219501E-01  0.00000000000E+00 0. -1.
     999901    1    3    3    0    0 -0.11128842193E+00 -0.21882102328E-01  0.19443062177E-01  0.88749195598E+00  0.88000000000E+00 0.  1.
        -11    1    4    4    0    0  0.76434297013E-01  0.22191462230E-02 -0.19099974025E-01  0.78817488533E-01  0.51100000000E-03 0.  1.
         11    1    4    4    0    0  0.54070162930E-01  0.72124316840E-02  0.21119511478E-02  0.54592335989E-01  0.51100000000E-03 0. -1.
</event>
<event>
 8    1  0.1042301E+005  0.1043930E+01  0.7957747E-01            NaN
         13   -1    0    0    0    0  0.00000000000E+00  0.00000000000E+00  0.74505805969E-08  0.10566000000E+00  0.10566000000E+00 0.  1.
     999900   -1    0    0    0    0 -0.00000000000E+00 -0.00000000000E+00 -0.74505805969E-08  0.93827000000E+00  0.93827000000E+00 0.  1.
     999902    2    1    2    0    0  0.61661438854E-02 -0.50800357531E-02  0.21914020382E-01  0.10206050695E+01  0.10203385004E+01 0.  0.
     999903    2    3    3    0    0  0.87924715019E-01 -0.86335212873E-01 -0.40221114591E-01  0.13091543667E+00  0.18346362210E-01 0.  0.
         14    1    1    2    0    0 -0.61661438854E-02  0.50800357531E-02 -0.21914020382E-01  0.23324930503E-01  0.00000000000E+00 0. -1.
     999901    1    3    3    0    0 -0.81758571133E-01  0.81255177120E-01  0.62135134974E-01  0.88968963283E+00  0.88000000000E+00 0. -1.
        -11    1    4    4    0    0  0.14973680453E-01 -0.11218924018E-01  0.75550910797E-04  0.18717430149E-01  0.51100000000E-03 0.  1.
         11    1    4    4    0    0  0.72951034565E-01 -0.75116288855E-01 -0.40296665502E-01  0.11219800652E+00  0.51100000000E-03 0. -1.
</event>
<event>
 8    1  0.1042301E+005  0.1043930E+01  0.7957747E-01            NaN
         13   -1    0    0    0    0  0.00000000000E+00  0.00000000000E+00  0.74505805969E-08  0.10566000000E+00  0.10566000000E+00 0.  1.
     999900   -1    0    0    0    0 -0.00000000000E+00 -0.00000000000E+00 -0.74505805969E-08  0.93827000000E+00  0.93827000000E+00 0. -1.
     999902    2    1    2    0    0  0.13695892880E-01  0.69946198869E-02 -0.16930143427E-01  0.10210579221E+01  0.10208017185E+01 0.  0.
     999903    2    3    3    0    0  0.11802935482E+00 -0.53361674765E-01 -0.15339630504E-01  0.13284010915E+00  0.25155385130E-01 0.  0.
         14    1    1    2    0    0 -0.13695892880E-01 -0.69946198869E-02  0.16930143427E-01  0.22872077860E-01  0.00000000000E+00 0.  1.
     999901    1    3    3    0    0 -0.10433346194E+00  0.60356294652E-01 -0.15905129236E-02  0.88821781299E+00  0.88000000000E+00 0.  1.
        -11    1    4    4    0    0  0.52384701461E-01 -0.28695484808E-01 -0.18819533481E-01  0.62626062920E-01  0.51100000000E-03 0. -1.
         11    1    4    4    0    0  0.65644653362E-01 -0.24666189958E-01  0.34799029767E-02  0.70214046228E-01  0.51100000000E-03 0.  1.
</event>
<event>
 8    1  0.1042301E+005  0.1043930E+01  0.7957747E-01            NaN
         13   -1    0    0    0    0  0.00000000000E+00  0.00000000000E+00  0.74505805969E-08  0.10566000000E+00  0.10566000000E+00 0. -1.
     999900   -1    0    0    0    0 -0.00000000000E+00 -0.00000000000E+00 -0.74505805969E-08  0.93827000000E+00  0.93827000000E+00 0. -1.
     999902    2    1    2    0    0  0.15118469177E-02 -0.85406694395E-02  0.23242907618E-01  0.10191215041E+01  0.10188195025E+01 0.  0.
     999903    2    3    3    0    0 -0.80273197514E-01  0.50569697383E-01  0.86395384192E-01  0.13110626532E+00  0.26899997478E-01 0.  0.
         14    1    1    2    0    0 -0.15118469177E-02  0.85406694395E-02 -0.23242907618E-01  0.24808495926E-01  0.00000000000E+00 0.  1.
     999901    1    3    3    0    0  0.81785044432E-01 -0.59110366823E-01 -0.63152476573E-01  0.88801523875E+00  0.88000000000E+00 0.  1.
        -11    1    4    4    0    0 -0.63800851343E-02  0.15567374333E-01  0.13857901726E-01  0.21802550108E-01  0.51100000000E-03 0.  1.
         11    1    4    4    0    0 -0.73893112380E-01  0.35002323050E-01  0.72537482465E-01  0.10930371521E+00  0.51100000000E-03 0. -1.
</event>
<event>
 8    1  0.1042301E+005  0.1043930E+01  0.7957747E-01            NaN
         13   -1    0    0    0    0  0.00000000000E+00  0.00000000000E+00  0.74505805969E-08  0.10566000000E+00  0.10566000000E+00 0. -1.
     999900   -1    0    0    0    0 -0.00000000000E+00 -0.00000000000E+00 -0.74505805969E-08  0.93827000000E+00  0.93827000000E+00 0. -1.
     999902    2    1    2    0    0  0.19022833461E-01  0.10176882398E-01 -0.84321902191E-02  0.10207666894E+01  0.10205038438E+01 0.  0.
     999903    2    3    3    0    0 -0.89195372992E-02  0.22558488009E-01 -0.12840328759E+00  0.13210075412E+00  0.19358756379E-01 0.  0.
         14    1    1    2    0    0 -0.19022833461E-01 -0.10176882398E-01  0.84321902191E-02  0.23163310646E-01  0.00000000000E+00 0. -1.
     999901    1    3    3    0    0  0.27942370760E-01 -0.12381605611E-01  0.11997109737E+00  0.88866593523E+00  0.88000000000E+00 0.  1.
        -11    1    4    4    0    0 -0.11437183636E-01  0.20890662922E-01 -0.76872296705E-01  0.80478817639E-01  0.51100000000E-03 0. -1.
         11    1    4    4    0    0  0.25176463364E-02  0.16678250870E-02 -0.51530990883E-01  0.51621936481E-01  0.51100000000E-03 0.  1.
</event>
<event>
 8    1  0.1042301E+005  0.1043930E+01  0.7957747E-01            NaN
         13   -1    0    0    0    0  0.00000000000E+00  0.00000000000E+00  0.74505805969E-08  0.10566000000E+00  0.10566000000E+00 0.  1.
     999900   -1    0    0    0    0 -0.00000000000E+00 -0.00000000000E+00 -0.74505805969E-08  0.93827000000E+00  0.93827000000E+00 0. -1.
     999902    2    1    2    0    0  0.23018419127E-01  0.12066073223E-02  0.45675380649E-02  0.10204317889E+01  0.10201611980E+01 0.  0.
     999903    2    3    3    0    0  0.83762300880E-01 -0.95610951830E-01 -0.30749690942E-01  0.13233789433E+00  0.20253336121E-01 0.  0.
         14    1    1    2    0    0 -0.23018419127E-01 -0.12066073223E-02 -0.45675380649E-02  0.23498211088E-01  0.00000000000E+00 0. -1.
     999901    1    3    3    0    0 -0.60743881753E-01  0.96817559153E-01  0.35317229007E-01  0.88809389458E+00  0.88000000000E+00 0. -1.
        -11    1    4    4    0    0  0.40635198938E-01 -0.41721996292E-01 -0.42329512425E-02  0.58396261563E-01  0.51100000000E-03 0.  1.
         11    1    4    4    0    0  0.43127101942E-01 -0.53888955538E-01 -0.26516739699E-01  0.73941632766E-01  0.51100000000E-03 0. -1.
</event>
<event>
 8    1  0.1042301E+005  0.1043930E+01  0.7957747E-01            NaN
         13   -1    0    0    0    0  0.00000000000E+00  0.00000000000E+00  0.74505805969E-08  0.10566000000E+00  0.10566000000E+00 0. -1.
     999900   -1    0    0    0    0 -0.00000000000E+00 -0.00000000000E+00 -0.74505805969E-08  0.93827000000E+00  0.93827000000E+00 0.  1.
     999902    2    1    2    0    0 -0.16420215848E-01  0.14246911567E-01  0.62707030173E-02  0.10213043576E+01  0.10210537063E+01 0.  0.
     999903    2    3    3    0    0  0.10269447732E+00 -0.29441181656E-01 -0.69670902747E-01  0.12896804930E+00  0.19125485703E-01 0.  0.
         14    1    1    2    0    0  0.16420215848E-01 -0.14246911567E-01 -0.62707030173E-02  0.22625642400E-01  0.00000000000E+00 0.  1.
     999901    1    3    3    0    0 -0.11911469316E+00  0.43688093223E-01  0.75941605765E-01  0.89233630830E+00  0.88000000000E+00 0. -1.
        -11    1    4    4    0    0  0.52741421945E-01 -0.24024967186E-01 -0.42265237404E-01  0.71731917938E-01  0.51100000000E-03 0. -1.
         11    1    4    4    0    0  0.49953055370E-01 -0.54162144697E-02 -0.27405665343E-01  0.57236131367E-01  0.51100000000E-03 0.  1.
</event>
<event>
 8    1  0.1042301E+005  0.1043930E+01  0.7957747E-01            NaN
         13   -1    0    0    0    0  0.00000000000E+00  0.00000000000E+00  0.74505805969E-08  0.10566000000E+00  0.10566000000E+00 0. -1.
     999900   -1    0    0    0    0 -0.00000000000E+00 -0.00000000000E+00 -0.74505805969E-08  0.93827000000E+00  0.93827000000E+00 0.  1.
     999902    2    1    2    0    0  0.18711476347E-01 -0.65235182843E-02  0.13420210205E-01  0.10199972258E+01  0.10197164130E+01 0.  0.
     999903    2    3    3    0    0 -0.81416778436E-01  0.91929352831E-01  0.33810394344E-01  0.12863063746E+00  0.17972212027E-01 0.  0.
         14    1    1    2    0    0 -0.18711476347E-01  0.65235182843E-02 -0.13420210205E-01  0.23932774178E-01  0.00000000000E+00 0. -1.
     999901    1    3    3    0    0  0.10012825478E+00 -0.98452871115E-01 -0.20390184139E-01  0.89136658836E+00  0.88000000000E+00 0.  1.
        -11    1    4    4    0    0 -0.43293553298E-01  0.54178212674E-01  0.27500085132E-01  0.74606476187E-01  0.51100000000E-03 0. -1.
         11    1    4    4    0    0 -0.38123225138E-01  0.37751140157E-01  0.63103092126E-02  0.54024161275E-01  0.51100000000E-03 0.  1.
</event>
<event>
 8    1  0.1042301E+005  0.1043930E+01  0.7957747E-01            NaN
         13   -1    0    0    0    0  0.00000000000E+00  0.00000000000E+00  0.74505805969E-08  0.10566000000E+00  0.10566000000E+00 0.  1.
     999900   -1    0    0    0    0 -0.00000000000E+00 -0.00000000000E+00 -0.74505805969E-08  0.93827000000E+00  0.93827000000E+00 0. -1.
     999902    2    1    2    0    0 -0.16827062596E-01  0.55082805776E-02 -0.15229729186E-01  0.10205754321E+01  0.10203081774E+01 0.  0.
     999903    2    3    3    0    0  0.20784347467E-01 -0.82120117775E-01  0.93548613438E-01  0.12876486803E+00  0.25560620499E-01 0.  0.
         14    1    1    2    0    0  0.16827062596E-01 -0.55082805776E-02  0.15229729186E-01  0.23354567897E-01  0.00000000000E+00 0.  1.
     999901    1    3    3    0    0 -0.37611410063E-01  0.87628398352E-01 -0.10877834262E+00  0.89181056407E+00  0.88000000000E+00 0.  1.
        -11    1    4    4    0    0  0.15101654266E-01 -0.28915183835E-01  0.21713764824E-01  0.39190515710E-01  0.51100000000E-03 0.  1.
         11    1    4    4    0    0  0.56826932004E-02 -0.53204933939E-01  0.71834848614E-01  0.89574352322E-01  0.51100000000E-03 0. -1.
</event>
<event>
 8    1  0.1042301E+005  0.1043930E+01  0.7957747E-01            NaN
         13   -1    0    0    0    0  0.00000000000E+00  0.00000000000E+00  0.74505805969E-08  0.10566000000E+00  0.10566000000E+00 0. -1.
     999900   -1    0    0    0    0 -0.00000000000E+00 -0.00000000000E+00 -0.74505805969E-08  0.93827000000E+00  0.93827000000E+00 0.  1.
     999902    2    1    2    0    0 -0.18592631917E-03 -0.22950210110E-01 -0.88180575121E-02  0.10193433196E+01  0.10190467597E+01 0.  0.
     999903    2    3    3    0    0  0.18917540757E-01 -0.68545686857E-01 -0.10968146284E+00  0.13220335521E+00  0.19781792255E-01 0.  0.
         14    1    1    2    0    0  0.18592631917E-03  0.22950210110E-01  0.88180575121E-02  0.24586680357E-01  0.00000000000E+00 0. -1.
     999901    1    3    3    0    0 -0.19103467076E-01  0.45595476747E-01  0.10086340532E+00  0.88713996443E+00  0.88000000000E+00 0. -1.
        -11    1    4    4    0    0  0.29198162735E-02 -0.20252253090E-01 -0.48433038859E-01  0.52580409436E-01  0.51100000000E-03 0. -1.
         11    1    4    4    0    0  0.15997724484E-01 -0.48293433767E-01 -0.61248423977E-01  0.79622945778E-01  0.51100000000E-03 0.  1.
</event>
<event>
 8    1  0.1042301E+005  0.1043930E+01  0.7957747E-01            NaN
         13   -1    0    0    0    0  0.00000000000E+00  0.00000000000E+00  0.74505805969E-08  0.10566000000E+00  0.10566000000E+00 0.  1.
     999900   -1    0    0    0    0 -0.00000000000E+00 -0.00000000000E+00 -0.74505805969E-08  0.93827000000E+00  0.93827000000E+00 0. -1.
     999902    2    1    2    0    0 -0.13379590764E-01 -0.23972142641E-02 -0.21832873287E-01  0.10182116322E+01  0.10178867784E+01 0.  0.
     999903    2    3    3    0    0  0.39234887945E-01 -0.39682297371E-01 -0.11659317366E+00  0.13077826835E+00  0.19872749433E-01 0.  0.
         14    1    1    2    0    0  0.13379590764E-01  0.23972142641E-02  0.21832873287E-01  0.25718367779E-01  0.00000000000E+00 0.  1.
     999901    1    3    3    0    0 -0.52614478710E-01  0.37285083107E-01  0.94760300375E-01  0.88743336388E+00  0.88000000000E+00 0.  1.
        -11    1    4    4    0    0  0.11310009670E-01 -0.25034580023E-01 -0.48651485947E-01  0.55873739104E-01  0.51100000000E-03 0.  1.
         11    1    4    4    0    0  0.27924878276E-01 -0.14647717349E-01 -0.67941687716E-01  0.74904529242E-01  0.51100000000E-03 0. -1.
</event>
<event>
 8    1  0.1042301E+005  0.1043930E+01  0.7957747E-01            NaN
         13   -1    0    0    0    0  0.00000000000E+00  0.00000000000E+00  0.74505805969E-08  0.10566000000E+00  0.10566000000E+00 0.  1.
     999900   -1    0    0    0    0 -0.00000000000E+00 -0.00000000000E+00 -0.74505805969E-08  0.93827000000E+00  0.93827000000E+00 0. -1.
     999902    2    1    2    0    0  0.14294800470E-01 -0.24414145172E-02 -0.19051808860E-01  0.10199868748E+01  0.10197058161E+01 0.  0.
     999903    2    3    3    0    0 -0.10706619356E+00  0.64033778455E-01  0.22049051713E-01  0.12822641203E+00  0.19808015381E-01 0.  0.
         14    1    1    2    0    0 -0.14294800470E-01  0.24414145172E-02  0.19051808860E-01  0.23943125238E-01  0.00000000000E+00 0.  1.
     999901    1    3    3    0    0  0.12136099403E+00 -0.66475192972E-01 -0.41100860573E-01  0.89176046273E+00  0.88000000000E+00 0.  1.
        -11    1    4    4    0    0 -0.50485444733E-01  0.23663903793E-01  0.16347789264E-02  0.55782560857E-01  0.51100000000E-03 0. -1.
         11    1    4    4    0    0 -0.56580748829E-01  0.40369874661E-01  0.20414272786E-01  0.72443851172E-01  0.51100000000E-03 0.  1.
</event>
<event>
 8    1  0.1042301E+005  0.1043930E+01  0.7957747E-01            NaN
         13   -1    0    0    0    0  0.00000000000E+00  0.00000000000E+00  0.74505805969E-08  0.10566000000E+00  0.10566000000E+00 0. -1.
     999900   -1    0    0    0    0 -0.00000000000E+00 -0.00000000000E+00 -0.74505805969E-08  0.93827000000E+00  0.93827000000E+00 0.  1.
     999902    2    1    2    0    0  0.16694473545E-01 -0.16423575915E-01  0.27272173839E-02  0.10203529559E+01  0.10200805251E+01 0.  0.
     999903    2    3    3    0    0 -0.56996997793E-01 -0.66203978032E-01 -0.94715627196E-01  0.13051947187E+00  0.20800433582E-01 0.  0.
         14    1    1    2    0    0 -0.16694473545E-01  0.16423575915E-01 -0.27272173839E-02  0.23577044078E-01  0.00000000000E+00 0. -1.
     999901    1    3    3    0    0  0.73691471338E-01  0.49780402117E-01  0.97442844580E-01  0.88983348405E+00  0.88000000000E+00 0. -1.
        -11    1    4    4    0    0 -0.28907907000E-01 -0.32124796299E-01 -0.61905894580E-01  0.75500135955E-01  0.51100000000E-03 0.  1.
         11    1    4    4    0    0 -0.28089090792E-01 -0.34079181733E-01 -0.32809732615E-01  0.55019335914E-01  0.51100000000E-03 0. -1.
</event>
<event>
 8    1  0.1042301E+005  0.1043930E+01  0.7957747E-01            NaN
         13   -1    0    0    0    0  0.00000000000E+00  0.00000000000E+00  0.74505805969E-08  0.10566000000E+00  0.10566000000E+00 0.  1.
     999900   -1    0    0    0    0 -0.00000000000E+00 -0.00000000000E+00 -0.74505805969E-08  0.93827000000E+00  0.93827000000E+00 0.  1.
     999902    2    1    2    0    0  0.10075848365E-01 -0.16019421288E-01  0.15079505925E-01  0.10197321473E+01  0.10194450039E+01 0.  0.
     999903    2    3    3    0    0 -0.10556490376E+00 -0.47544066057E-01 -0.53416946338E-01  0.12896935573E+00  0.19373627405E-01 0.  0.
         14    1    1    2    0    0 -0.10075848365E-01  0.16019421288E-01 -0.15079505925E-01  0.24197852748E-01  0.00000000000E+00 0.  1.
     999901    1    3    3    0    0  0.11564075213E+00  0.31524644769E-01  0.68496452263E-01  0.89076279152E+00  0.88000000000E+00 0. -1.
        -11    1    4    4    0    0 -0.81803712778E-01 -0.37733463716E-01 -0.49993707346E-01  0.10303054694E+00  0.51100000000E-03 0. -1.
         11    1    4    4    0    0 -0.23761190984E-01 -0.98106023413E-02 -0.34232389921E-02  0.25938808790E-01  0.51100000000E-03 0.  1.
</event>
<event>
 8    1  0.1042301E+005  0.1043930E+01  0.7957747E-01            NaN
         13   -1    0    0    0    0  0.00000000000E+00  0.00000000000E+00  0.74505805969E-08  0.10566000000E+00  0.10566000000E+00 0. -1.
     999900   -1    0    0    0    0 -0.00000000000E+00 -0.00000000000E+00 -0.74505805969E-08  0.93827000000E+00  0.93827000000E+00 0.  1.
     999902    2    1    2    0    0 -0.86807895207E-02 -0.25851038726E-01  0.25108571173E-02  0.10165450276E+01  0.10161760952E+01 0.  0.
     999903    2    3    3    0    0 -0.12146326582E-01 -0.12523376108E-01 -0.12490115054E+00  0.12726247619E+00  0.17060839419E-01 0.  0.
         14    1    1    2    0    0  0.86807895207E-02  0.25851038726E-01 -0.25108571173E-02  0.27384972400E-01  0.00000000000E+00 0. -1.
     999901    1    3    3    0    0  0.34655370613E-02 -0.13327662618E-01  0.12741200766E+00  0.88928255141E+00  0.88000000000E+00 0. -1.
        -11    1    4    4    0    0 -0.42175623645E-02  0.39467832732E-02 -0.39681328821E-01  0.40102791779E-01  0.51100000000E-03 0. -1.
         11    1    4    4    0    0 -0.79287642176E-02 -0.16470159381E-01 -0.85219821722E-01  0.87159684415E-01  0.51100000000E-03 0.  1.
</event>
<event>
 8    1  0.1042301E+005  0.1043930E+01  0.7957747E-01            NaN
         13   -1    0    0    0    0  0.00000000000E+00  0.00000000000E+00  0.74505805969E-08  0.10566000000E+00  0.10566000000E+00 0. -1.
     999900   -1    0    0    0    0 -0.00000000000E+00 -0.00000000000E+00 -0.74505805969E-08  0.93827000000E+00  0.93827000000E+00 0. -1.
     999902    2    1    2    0    0  0.90614525018E-02 -0.16495991537E-01 -0.16769628331E-01  0.10187219042E+01  0.10184099715E+01 0.  0.
     999903    2    3    3    0    0 -0.98603718734E-01 -0.72983553243E-01  0.34164970208E-01  0.12890340192E+00  0.19988732925E-01 0.  0.
         14    1    1    2    0    0 -0.90614525018E-02  0.16495991537E-01  0.16769628331E-01  0.25208095775E-01  0.00000000000E+00 0.  1.
     999901    1    3    3    0    0  0.10766517124E+00  0.56487561706E-01 -0.50934598539E-01  0.88981850231E+00  0.88000000000E+00 0. -1.
        -11    1    4    4    0    0 -0.74024577726E-01 -0.64745148059E-01  0.27968322769E-01  0.10224510015E+00  0.51100000000E-03 0.  1.
         11    1    4    4    0    0 -0.24579141008E-01 -0.82384051842E-02  0.61966474382E-02  0.26658301768E-01  0.51100000000E-03 0. -1.
</event>
<event>
 8    1  0.1042301E+005  0.1043930E+01  0.7957747E-01            NaN
         13   -1    0    0    0    0  0.00000000000E+00  0.00000000000E+00  0.74505805969E-08  0.10566000000E+00  0.10566000000E+00 0.  1.
     999900   -1    0    0    0    0 -0.00000000000E+00 -0.00000000000E+00 -0.74505805969E-08  0.93827000000E+00  0.93827000000E+00 0. -1.
     999902    2    1    2    0    0  0.17743434892E-01 -0.13740308377E-01 -0.77180692337E-03  0.10214751288E+01  0.10212282886E+01 0.  0.
     999903    2    3    3    0    0  0.93780766084E-01  0.45711019579E-01 -0.78630024278E-01  0.13278055911E+00  0.23741667202E-01 0.  0.
         14    1    1    2    0    0 -0.17743434892E-01  0.13740308377E-01  0.77180692337E-03  0.22454871231E-01  0.00000000000E+00 0.  1.
     999901    1    3    3    0    0 -0.76037331192E-01 -0.59451327956E-01  0.77858217355E-01  0.88869456966E+00  0.88000000000E+00 0.  1.
        -11    1    4    4    0    0  0.54255044875E-01  0.35956636443E-01 -0.57787465538E-01  0.87041035684E-01  0.51100000000E-03 0. -1.
         11    1    4    4    0    0  0.39525721209E-01  0.97543831360E-02 -0.20842558740E-01  0.45739523427E-01  0.51100000000E-03 0.  1.
</event>
<event>
 8    1  0.1042301E+005  0.1043930E+01  0.7957747E-01            NaN
         13   -1    0    0    0    0  0.00000000000E+00  0.00000000000E+00  0.74505805969E-08  0.10566000000E+00  0.10566000000E+00 0. -1.
     999900   -1    0    0    0    0 -0.00000000000E+00 -0.00000000000E+00 -0.74505805969E-08  0.93827000000E+00  0.93827000000E+00 0.  1.
     999902    2    1    2    0    0 -0.10493269885E-01 -0.20817508083E-01 -0.54829883399E-02  0.10199812940E+01  0.10197001028E+01 0.  0.
     999903    2    3    3    0    0  0.12660975804E+00 -0.32829602371E-02  0.14244645112E-01  0.12897406616E+00  0.19763379457E-01 0.  0.
         14    1    1    2    0    0  0.10493269885E-01  0.20817508083E-01  0.54829883399E-02  0.23948705953E-01  0.00000000000E+00 0.  1.
     999901    1    3    3    0    0 -0.13710302792E+00 -0.17534547846E-01 -0.19727633452E-01  0.89100722789E+00  0.88000000000E+00 0.  1.
        -11    1    4    4    0    0  0.76987565384E-01  0.60599372390E-02  0.32582735306E-02  0.77296090007E-01  0.51100000000E-03 0. -1.
         11    1    4    4    0    0  0.49622192656E-01 -0.93428974760E-02  0.10986371581E-01  0.51677976148E-01  0.51100000000E-03 0.  1.
</event>
<event>
 8    1  0.1042301E+005  0.1043930E+01  0.7957747E-01            NaN
         13   -1    0    0    0    0  0.00000000000E+00  0.00000000000E+00  0.74505805969E-08  0.10566000000E+00  0.10566000000E+00 0.  1.
     999900   -1    0    0    0    0 -0.00000000000E+00 -0.00000000000E+00 -0.74505805969E-08  0.93827000000E+00  0.93827000000E+00 0. -1.
     999902    2    1    2    0    0 -0.14778668876E-01  0.15980400896E-01  0.47505594305E-02  0.10216510844E+01  0.10214081398E+01 0.  0.
     999903    2    3    3    0    0 -0.93338181034E-02 -0.12118517513E+00  0.41802391683E-01  0.13023822833E+00  0.21014027120E-01 0.  0.
         14    1    1    2    0    0  0.14778668876E-01 -0.15980400896E-01 -0.47505594305E-02  0.22278915626E-01  0.00000000000E+00 0. -1.
     999901    1    3    3    0    0 -0.54448507724E-02  0.13716557603E+00 -0.37051832252E-01  0.89141285604E+00  0.88000000000E+00 0. -1.
        -11    1    4    4    0    0 -0.78111280884E-02 -0.10092806357E+00  0.26056070369E-01  0.10453070201E+00  0.51100000000E-03 0. -1.
         11    1    4    4    0    0 -0.15226900150E-02 -0.20257111564E-01  0.15746321314E-01  0.25707526324E-01  0.51100000000E-03 0.  1.
</event>
<event>
 8    1  0.1042301E+005  0.1043930E+01  0.7957747E-01            NaN
         13   -1    0    0    0    0  0.00000000000E+00  0.00000000000E+00  0.74505805969E-08  0.10566000000E+00  0.10566000000E+00 0.  1.
     999900   -1    0    0    0    0 -0.00000000000E+00 -0.00000000000E+00 -0.74505805969E-08  0.93827000000E+00  0.93827000000E+00 0.  1.
     999902    2    1    2    0    0  0.17041227471E-01  0.91497485975E-03 -0.40122960210E-02  0.10263989096E+01  0.10262491814E+01 0.  0.
     999903    2    3    3    0    0  0.93063079324E-01  0.88237409883E-01  0.44877922645E-01  0.13746990053E+00  0.20913353958E-01 0.  0.
         14    1    1    2    0    0 -0.17041227471E-01 -0.91497485975E-03  0.40122960210E-02  0.17531090442E-01  0.00000000000E+00 0.  1.
     999901    1    3    3    0    0 -0.76021851852E-01 -0.87322435023E-01 -0.48890218666E-01  0.88892900903E+00  0.88000000000E+00 0.  1.
        -11    1    4    4    0    0  0.37491713538E-01  0.23723269748E-01  0.10185983572E-01  0.45524032048E-01  0.51100000000E-03 0. -1.
         11    1    4    4    0    0  0.55571365785E-01  0.64514140135E-01  0.34691939073E-01  0.91945868479E-01  0.51100000000E-03 0.  1.
</event>
<event>
 8    1  0.1042301E+005  0.1043930E+01  0.7957747E-01            NaN
         13   -1    0    0    0    0  0.00000000000E+00  0.00000000000E+00  0.74505805969E-08  0.10566000000E+00  0.10566000000E+00 0. -1.
     999900   -1    0    0    0    0 -0.00000000000E+00 -0.00000000000E+00 -0.74505805969E-08  0.93827000000E+00  0.93827000000E+00 0. -1.
     999902    2    1    2    0    0  0.21613413811E-01  0.98429848192E-02  0.12527303146E-02  0.10201477936E+01  0.10198705445E+01 0.  0.
     999903    2    3    3    0    0  0.62983494635E-01 -0.55534173601E-01  0.99042320081E-01  0.13135734572E+00  0.19859659429E-01 0.  0.
         14    1    1    2    0    0 -0.21613413811E-01 -0.98429848192E-02 -0.12527303146E-02  0.23782206373E-01  0.00000000000E+00 0. -1.
     999901    1    3    3    0    0 -0.41370080823E-01  0.65377158421E-01 -0.97789589766E-01  0.88879044791E+00  0.88000000000E+00 0. -1.
        -11    1    4    4    0    0  0.18922397728E-01 -0.29655385389E-01  0.40953716376E-01  0.53990434563E-01  0.51100000000E-03 0.  1.
         11    1    4    4    0    0  0.44061096907E-01 -0.25878788213E-01  0.58088603705E-01  0.77366911153E-01  0.51100000000E-03 0. -1.
</event>
<event>
 8    1  0.1042301E+005  0.1043930E+01  0.7957747E-01            NaN
         13   -1    0    0    0    0  0.00000000000E+00  0.00000000000E+00  0.74505805969E-08  0.10566000000E+00  0.10566000000E+00 0.  1.
     999900   -1    0    0    0    0 -0.00000000000E+00 -0.00000000000E+00 -0.74505805969E-08  0.93827000000E+00  0.93827000000E+00 0.  1.
     999902    2    1    2    0    0 -0.51937196309E-02 -0.96248281525E-02 -0.19901699196E-01  0.10212211984E+01  0.10209686804E+01 0.  0.
     999903    2    3    3    0    0  0.99162450697E-02  0.12846825444E+00 -0.29748593078E-02  0.13016310352E+00  0.18197785943E-01 0.  0.
         14    1    1    2    0    0  0.51937196309E-02  0.96248281525E-02  0.19901699196E-01  0.22708801630E-01  0.00000000000E+00 0.  1.
     999901    1    3    3    0    0 -0.15109964701E-01 -0.13809308260E+00 -0.16926839889E-01  0.89105809485E+00  0.88000000000E+00 0. -1.
        -11    1    4    4    0    0 -0.50370802215E-02  0.30144079929E-01 -0.29366112771E-02  0.30707043796E-01  0.51100000000E-03 0. -1.
         11    1    4    4    0    0  0.14953325291E-01  0.98324174515E-01 -0.38248030731E-04  0.99456059721E-01  0.51100000000E-03 0.  1.
</event>
<event>
 8    1  0.1042301E+005  0.1043930E+01  0.7957747E-01            NaN
         13   -1    0    0    0    0  0.00000000000E+00  0.00000000000E+00  0.74505805969E-08  0.10566000000E+00  0.10566000000E+00 0. -1.
     999900   -1    0    0    0    0 -0.00000000000E+00 -0.00000000000E+00 -0.74505805969E-08  0.93827000000E+00  0.93827000000E+00 0.  1.
     999902    2    1    2    0    0 -0.13863489189E-01 -0.97670688191E-02  0.16654802386E-01  0.10201608097E+01  0.10198838675E+01 0.  0.
     999903    2    3    3    0    0  0.60884101393E-01 -0.10460433140E+00 -0.43041408803E-01  0.12991087494E+00  0.19373502712E-01 0.  0.
         14    1    1    2    0    0  0.13863489189E-01  0.97670688191E-02 -0.16654802386E-01  0.23769190317E-01  0.00000000000E+00 0.  1.
     999901    1    3    3    0    0 -0.74747590582E-01  0.94837262580E-01  0.59696211188E-01  0.89024993474E+00  0.88000000000E+00 0. -1.
        -11    1    4    4    0    0  0.44715784713E-01 -0.60774190123E-01 -0.21452991189E-01  0.78444219287E-01  0.51100000000E-03 0.  1.
         11    1    4    4    0    0  0.16168316680E-01 -0.43830141276E-01 -0.21588417613E-01  0.51466655657E-01  0.51100000000E-03 0. -1.
</event>
<event>
 8    1  0.1042301E+005  0.1043930E+01  0.7957747E-01            NaN
         13   -1    0    0    0    0  0.00000000000E+00  0.00000000000E+00  0.74505805969E-08  0.10566000000E+00  0.10566000000E+00 0.  1.
     999900   -1    0    0    0    0 -0.00000000000E+00 -0.00000000000E+00 -0.74505805969E-08  0.93827000000E+00  0.93827000000E+00 0. -1.
     999902    2    1    2    0    0  0.11750444063E-01 -0.20618942977E-01 -0.41783778290E-02  0.10198328511E+01  0.10195481212E+01 0.  0.
     999903    2    3    3    0    0  0.14218987764E-01  0.11808341606E+00 -0.43003327521E-01  0.12811999660E+00  0.20483519930E-01 0.  0.
         14    1    1    2    0    0 -0.11750444063E-01  0.20618942977E-01  0.41783778290E-02  0.24097148928E-01  0.00000000000E+00 0. -1.
     999901    1    3    3    0    0 -0.24685437005E-02 -0.13870235904E+00  0.38824949692E-01  0.89171285447E+00  0.88000000000E+00 0. -1.
        -11    1    4    4    0    0  0.10888929207E-01  0.48544210142E-01 -0.87036114139E-02  0.50508643718E-01  0.51100000000E-03 0.  1.
         11    1    4    4    0    0  0.33300585565E-02  0.69539205922E-01 -0.34299716107E-01  0.77611352883E-01  0.51100000000E-03 0. -1.
</event>
<event>
 8    1  0.1042301E+005  0.1043930E+01  0.7957747E-01            NaN
         13   -1    0    0    0    0  0.00000000000E+00  0.00000000000E+00  0.74505805969E-08  0.10566000000E+00  0.10566000000E+00 0.  1.
     999900   -1    0    0    0    0 -0.00000000000E+00 -0.00000000000E+00 -0.74505805969E-08  0.93827000000E+00  0.93827000000E+00 0. -1.
     999902    2    1    2    0    0 -0.24701994935E-02  0.17173984886E-02 -0.23432561226E-01  0.10203050922E+01  0.10200315411E+01 0.  0.
     999903    2    3    3    0    0 -0.74776401152E-01 -0.28321542891E-01 -0.10452407955E+00  0.13311494395E+00  0.20017121109E-01 0.  0.
         14    1    1    2    0    0  0.24701994935E-02 -0.17173984886E-02  0.23432561226E-01  0.23624907804E-01  0.00000000000E+00 0.  1.
     999901    1    3    3    0    0  0.72306201659E-01  0.30038941380E-01  0.81091518319E-01  0.88719014824E+00  0.88000000000E+00 0. -1.
        -11    1    4    4    0    0 -0.49729047531E-01 -0.25683763781E-01 -0.82251409927E-01  0.99489644920E-01  0.51100000000E-03 0.  1.
         11    1    4    4    0    0 -0.25047353622E-01 -0.26377791098E-02 -0.22272669619E-01  0.33625299033E-01  0.51100000000E-03 0. -1.
</event>
<event>
 8    1  0.1042301E+005  0.1043930E+01  0.7957747E-01            NaN
         13   -1    0    0    0    0  0.00000000000E+00  0.00000000000E+00  0.74505805969E-08  0.10566000000E+00  0.10566000000E+00 0.  1.
     999900   -1    0    0    0    0 -0.00000000000E+00 -0.00000000000E+00 -0.74505805969E-08  0.93827000000E+00  0.93827000000E+00 0. -1.
     999902    2    1    2    0    0 -0.21096711381E-01  0.26511274260E-02  0.11239368982E-01  0.10198795713E+01  0.10195959576E+01 0.  0.
     999903    2    3    3    0    0 -0.11071954076E+00 -0.44459724348E-01 -0.52492666388E-01  0.13178416183E+00  0.19393336272E-01 0.  0.
         14    1    1    2    0    0  0.21096711381E-01 -0.26511274260E-02 -0.11239368982E-01  0.24050428745E-01  0.00000000000E+00 0.  1.
     999901    1    3    3    0    0  0.89622829375E-01  0.47110851774E-01  0.63732035370E-01  0.88809540942E+00  0.88000000000E+00 0.  1.
        -11    1    4    4    0    0 -0.55250021363E-01 -0.15280553293E-01 -0.32993348839E-01  0.66142893482E-01  0.51100000000E-03 0. -1.
         11    1    4    4    0    0 -0.55469519392E-01 -0.29179171055E-01 -0.19499317549E-01  0.65641268353E-01  0.51100000000E-03 0.  1.
</event>
<event>
 8    1  0.1042301E+005  0.1043930E+01  0.7957747E-01            NaN
         13   -1    0    0    0    0  0.00000000000E+00  0.00000000000E+00  0.74505805969E-08  0.10566000000E+00  0.10566000000E+00 0.  1.
     999900   -1    0    0    0    0 -0.00000000000E+00 -0.00000000000E+00 -0.74505805969E-08  0.93827000000E+00  0.93827000000E+00 0.  1.
     999902    2    1    2    0    0  0.11086899405E-01  0.24331213617E-01  0.26736411293E-02  0.10170585346E+01  0.10167034903E+01 0.  0.
     999903    2    3    3    0    0  0.11073035179E+00  0.54708595359E-01  0.36308145959E-01  0.13027621475E+00  0.19984230094E-01 0.  0.
         14    1    1    2    0    0 -0.11086899405E-01 -0.24331213617E-01 -0.26736411293E-02  0.26871465374E-01  0.00000000000E+00 0. -1.
     999901    1    3    3    0    0 -0.99643452389E-01 -0.30377381742E-01 -0.33634504830E-01  0.88678231987E+00  0.88000000000E+00 0.  1.
        -11    1    4    4    0    0  0.79029271286E-01  0.48625071528E-01  0.28358155049E-01  0.97028188584E-01  0.51100000000E-03 0.  1.
         11    1    4    4    0    0  0.31701080509E-01  0.60835238311E-02  0.79499909103E-02  0.33248026168E-01  0.51100000000E-03 0. -1.
</event>
<event>
 8    1  0.1042301E+005  0.1043930E+01  0.7957747E-01            NaN
         13   -1    0    0    0    0  0.00000000000E+00  0.00000000000E+00  0.74505805969E-08  0.10566000000E+00  0.10566000000E+00 0.  1.
     999900   -1    0    0    0    0 -0.00000000000E+00 -0.00000000000E+00 -0.74505805969E-08  0.93827000000E+00  0.93827000000E+00 0. -1.
     999902    2    1    2    0    0 -0.16380087806E-01  0.13539381378E-01  0.92075829819E-02  0.10207696522E+01  0.10205068746E+01 0.  0.
     999903    2    3    3    0    0  0.53817762890E-01 -0.64401162617E-01  0.97448227375E-01  0.13015813312E+00  0.20028011634E-01 0.  0.
         14    1    1    2    0    0  0.16380087806E-01 -0.13539381378E-01 -0.92075829819E-02  0.23160347774E-01  0.00000000000E+00 0. -1.
     999901    1    3    3    0    0 -0.70197850695E-01  0.77940543996E-01 -0.88240644393E-01  0.89061151911E+00  0.88000000000E+00 0. -1.
        -11    1    4    4    0    0  0.84648966492E-02 -0.62174926082E-02  0.43649432409E-02  0.11385321256E-01  0.51100000000E-03 0. -1.
         11    1    4    4    0    0  0.45352866241E-01 -0.58183670009E-01  0.93083284134E-01  0.11877281186E+00  0.51100000000E-03 0.  1.
</event>
<event>
 8    1  0.1042301E+005  0.1043930E+01  0.7957747E-01            NaN
         13   -1    0    0    0    0  0.00000000000E+00  0.00000000000E+00  0.74505805969E-08  0.10566000000E+00  0.10566000000E+00 0. -1.
     999900   -1    0    0    0    0 -0.00000000000E+00 -0.00000000000E+00 -0.74505805969E-08  0.93827000000E+00  0.93827000000E+00 0.  1.
     999902    2    1    2    0    0  0.15365444605E-01 -0.91215613029E-02 -0.13973476674E-01  0.10212461331E+01  0.10209941755E+01 0.  0.
     999903    2    3    3    0    0  0.77459647641E-01 -0.10546143401E+00  0.15316149051E-01  0.13333006536E+00  0.20499044610E-01 0.  0.
         14    1    1    2    0    0 -0.15365444605E-01  0.91215613029E-02  0.13973476674E-01  0.22683866929E-01  0.00000000000E+00 0. -1.
     999901    1    3    3    0    0 -0.62094203037E-01  0.96339872711E-01 -0.29289625725E-01  0.88791606771E+00  0.88000000000E+00 0.  1.
        -11    1    4    4    0    0  0.69349602956E-01 -0.86831118821E-01  0.18805744040E-01  0.11270726576E+00  0.51100000000E-03 0.  1.
         11    1    4    4    0    0  0.81100446856E-02 -0.18630315193E-01 -0.34895949899E-02  0.20622799596E-01  0.51100000000E-03 0. -1.
</event>
<event>
 8    1  0.1042301E+005  0.1043930E+01  0.7957747E-01            NaN
         13   -1    0    0    0    0  0.00000000000E+00  0.00000000000E+00  0.74505805969E-08  0.10566000000E+00  0.10566000000E+00 0.  1.
     999900   -1    0    0    0    0 -0.00000000000E+00 -0.00000000000E+00 -0.74505805969E-08  0.93827000000E+00  0.93827000000E+00 0.  1.
     999902    2    1    2    0    0 -0.31165478781E-02  0.26582411581E-01  0.11392921310E-01  0.10148415808E+01  0.10144246142E+01 0.  0.
     999903    2    3    3    0    0 -0.18178781436E-01  0.12408507917E+00 -0.17773623179E-01  0.12884816751E+00  0.23629930643E-01 0.  0.
         14    1    1    2    0    0  0.31165478781E-02 -0.26582411581E-01 -0.11392921310E-01  0.29088419210E-01  0.00000000000E+00 0. -1.
     999901    1    3    3    0    0  0.15062233558E-01 -0.97502667586E-01  0.29166544489E-01  0.88599341328E+00  0.88000000000E+00 0. -1.
        -11    1    4    4    0    0 -0.82883984563E-02  0.10942347638E+00 -0.12883662655E-01  0.11049183055E+00  0.51100000000E-03 0. -1.
         11    1    4    4    0    0 -0.98903829796E-02  0.14661602783E-01 -0.48899605236E-02  0.18356336959E-01  0.51100000000E-03 0.  1.
</event>
<event>
 8    1  0.1042301E+005  0.1043930E+01  0.7957747E-01            NaN
         13   -1    0    0    0    0  0.00000000000E+00  0.00000000000E+00  0.74505805969E-08  0.10566000000E+00  0.10566000000E+00 0. -1.
     999900   -1    0    0    0    0 -0.00000000000E+00 -0.00000000000E+00 -0.74505805969E-08  0.93827000000E+00  0.93827000000E+00 0.  1.
     999902    2    1    2    0    0  0.21059791048E-01 -0.63716142568E-02  0.73642212800E-02  0.10207277582E+01  0.10204640182E+01 0.  0.
     999903    2    3    3    0    0  0.91143209276E-01 -0.94901309294E-01  0.11645428771E-01  0.13350314117E+00  0.19342429737E-01 0.  0.
         14    1    1    2    0    0 -0.21059791048E-01  0.63716142568E-02 -0.73642212800E-02  0.23202241751E-01  0.00000000000E+00 0. -1.
     999901    1    3    3    0    0 -0.70083418228E-01  0.88529695037E-01 -0.42812074915E-02  0.88722461708E+00  0.88000000000E+00 0.  1.
        -11    1    4    4    0    0  0.19071262473E-01 -0.13938116263E-01  0.83430666199E-02  0.25056975454E-01  0.51100000000E-03 0.  1.
         11    1    4    4    0    0  0.72071946803E-01 -0.80963193030E-01  0.33023621516E-02  0.10844616572E+00  0.51100000000E-03 0. -1.
</event>
<event>
 8    1  0.1042301E+005  0.1043930E+01  0.7957747E-01            NaN
         13   -1    0    0    0    0  0.00000000000E+00  0.00000000000E+00  0.74505805969E-08  0.10566000000E+00  0.10566000000E+00 0. -1.
     999900   -1    0    0    0    0 -0.00000000000E+00 -0.00000000000E+00 -0.74505805969E-08  0.93827000000E+00  0.93827000000E+00 0.  1.
     999902    2    1    2    0    0 -0.24183609053E-01 -0.57927436407E-02  0.15822059294E-02  0.10190120105E+01  0.10187073040E+01 0.  0.
     999903    2    3    3    0    0 -0.68675428354E-02 -0.11154385958E+00  0.63772164982E-01  0.13033280196E+00  0.20749806840E-01 0.  0.
         14    1    1    2    0    0  0.24183609053E-01  0.57927436407E-02 -0.15822059294E-02  0.24917989512E-01  0.00000000000E+00 0.  1.
     999901    1    3    3    0    0 -0.17316066217E-01  0.10575111594E+00 -0.62189959053E-01  0.88867920853E+00  0.88000000000E+00 0.  1.
        -11    1    4    4    0    0 -0.97728749824E-02 -0.71499679478E-01  0.50354981850E-01  0.87997719113E-01  0.51100000000E-03 0. -1.
         11    1    4    4    0    0  0.29053321470E-02 -0.40044180104E-01  0.13417183132E-01  0.42335082843E-01  0.51100000000E-03 0.  1.
</event>
<event>
 8    1  0.1042301E+005  0.1043930E+01  0.7957747E-01            NaN
         13   -1    0    0    0    0  0.00000000000E+00  0.00000000000E+00  0.74505805969E-08  0.10566000000E+00  0.10566000000E+00 0.  1.
     999900   -1    0    0    0    0 -0.00000000000E+00 -0.00000000000E+00 -0.74505805969E-08  0.93827000000E+00  0.93827000000E+00 0. -1.
     999902    2    1    2    0    0 -0.15439447900E-01 -0.44463381497E-02 -0.20449549611E-01  0.10179236440E+01  0.10175913789E+01 0.  0.
     999903    2    3    3    0    0  0.59126655417E-01 -0.10900655301E+00 -0.27675051924E-01  0.12857267266E+00  0.19663002700E-01 0.  0.
         14    1    1    2    0    0  0.15439447900E-01  0.44463381497E-02  0.20449549611E-01  0.26006356025E-01  0.00000000000E+00 0.  1.
     999901    1    3    3    0    0 -0.74566103317E-01  0.10456021486E+00  0.72255023125E-02  0.88935097132E+00  0.88000000000E+00 0.  1.
        -11    1    4    4    0    0  0.24005238890E-01 -0.28203118722E-01 -0.12979151398E-01  0.39247762890E-01  0.51100000000E-03 0. -1.
         11    1    4    4    0    0  0.35121416526E-01 -0.80803434292E-01 -0.14695900525E-01  0.89324909770E-01  0.51100000000E-03 0.  1.
</event>
<event>
 8    1  0.1042301E+005  0.1043930E+01  0.7957747E-01            NaN
         13   -1    0    0    0    0  0.00000000000E+00  0.00000000000E+00  0.74505805969E-08  0.10566000000E+00  0.10566000000E+00 0. -1.
     999900   -1    0    0    0    0 -0.00000000000E+00 -0.00000000000E+00 -0.74505805969E-08  0.93827000000E+00  0.93827000000E+00 0.  1.
     999902    2    1    2    0    0 -0.17920129482E-01  0.15308764677E-01  0.21402488251E-02  0.10202642023E+01  0.10199896923E+01 0.  0.
     999903    2    3    3    0    0  0.48842336592E-02  0.12219417407E+00  0.46552816739E-01  0.13239202347E+00  0.20129858836E-01 0.  0.
         14    1    1    2    0    0  0.17920129482E-01 -0.15308764677E-01 -0.21402488251E-02  0.23665797718E-01  0.00000000000E+00 0.  1.
     999901    1    3    3    0    0 -0.22804363141E-01 -0.10688540939E+00 -0.44412567914E-01  0.88787217881E+00  0.88000000000E+00 0.  1.
        -11    1    4    4    0    0  0.47501720053E-03  0.41844436829E-01  0.59965238449E-02  0.42277676782E-01  0.51100000000E-03 0.  1.
         11    1    4    4    0    0  0.44092164586E-02  0.80349737242E-01  0.40556292894E-01  0.90114346688E-01  0.51100000000E-03 0. -1.
</event>
<event>
 8    1  0.1042301E+005  0.1043930E+01  0.7957747E-01            NaN
         13   -1    0    0    0    0  0.00000000000E+00  0.00000000000E+00  0.74505805969E-08  0.10566000000E+00  0.10566000000E+00 0. -1.
     999900   -1    0    0    0    0 -0.00000000000E+00 -0.00000000000E+00 -0.74505805969E-08  0.93827000000E+00  0.93827000000E+00 0.  1.
     999902    2    1    2    0    0  0.17329242881E-01  0.39889852548E-02 -0.20692229510E-02  0.10260275883E+01  0.10258713933E+01 0.  0.
     999903    2    3    3    0    0  0.84312729496E-01  0.18425468437E-01 -0.10446683279E+00  0.13744418193E+00  0.23009775121E-01 0.  0.
         14    1    1    2    0    0 -0.17329242881E-01 -0.39889852548E-02  0.20692229510E-02  0.17902411732E-01  0.00000000000E+00 0. -1.
     999901    1    3    3    0    0 -0.66983486615E-01 -0.14436483182E-01  0.10239760983E+00  0.88858340634E+00  0.88000000000E+00 0. -1.
        -11    1    4    4    0    0  0.28295069147E-01 -0.35828826489E-02 -0.41300321546E-01  0.50193880772E-01  0.51100000000E-03 0.  1.
         11    1    4    4    0    0  0.56017660349E-01  0.22008351086E-01 -0.63166511239E-01  0.87250301155E-01  0.51100000000E-03 0. -1.
</event>
<event>
 8    1  0.1042301E+005  0.1043930E+01  0.7957747E-01            NaN
         13   -1    0    0    0    0  0.00000000000E+00  0.00000000000E+00  0.74505805969E-08  0.10566000000E+00  0.10566000000E+00 0. -1.
     999900   -1    0    0    0    0 -0.00000000000E+00 -0.00000000000E+00 -0.74505805969E-08  0.93827000000E+00  0.93827000000E+00 0. -1.
     999902    2    1    2    0    0  0.41322927095E-02  0.19148006401E-01  0.10940096732E-01  0.10214932509E+01  0.10212468135E+01 0.  0.
     999903    2    3    3    0    0  0.56491095993E-01  0.11306027478E+00 -0.37717485689E-01  0.13361458875E+00  0.21363050793E-01 0.  0.
         14    1    1    2    0    0 -0.41322927095E-02 -0.19148006401E-01 -0.10940096732E-01  0.22436749067E-01  0.00000000000E+00 0. -1.
     999901    1    3    3    0    0 -0.52358803283E-01 -0.93912268383E-01  0.48657582421E-01  0.88787866218E+00  0.88000000000E+00 0.  1.
        -11    1    4    4    0    0  0.57045967162E-01  0.10636588831E+00 -0.38820454346E-01  0.12678814362E+00  0.51100000000E-03 0. -1.
         11    1    4    4    0    0 -0.55487116940E-03  0.66943864698E-02  0.11029686572E-02  0.68264451276E-02  0.51100000000E-03 0.  1.
</event>
<event>
 8    1  0.1042301E+005  0.1043930E+01  0.7957747E-01            NaN
         13   -1    0    0    0    0  0.00000000000E+00  0.00000000000E+00  0.74505805969E-08  0.10566000000E+00  0.10566000000E+00 0.  1.
     999900   -1    0    0    0    0 -0.00000000000E+00 -0.00000000000E+00 -0.74505805969E-08  0.93827000000E+00  0.93827000000E+00 0.  1.
     999902    2    1    2    0    0 -0.10014118098E-01  0.18423523898E-01  0.10082910967E-01  0.10206625573E+01  0.10203973158E+01 0.  0.
     999903    2    3    3    0    0 -0.75551725807E-01  0.96758366007E-01  0.49611215543E-01  0.13387396226E+00  0.19766648646E-01 0.  0.
         14    1    1    2    0    0  0.10014118098E-01 -0.18423523898E-01 -0.10082910967E-01  0.23267442654E-01  0.00000000000E+00 0.  1.
     999901    1    3    3    0    0  0.65537607709E-01 -0.78334842109E-01 -0.39528304576E-01  0.88678859509E+00  0.88000000000E+00 0.  1.
        -11    1    4    4    0    0 -0.35067606798E-01  0.35882592620E-01  0.28828055368E-01  0.57867222130E-01  0.51100000000E-03 0. -1.
         11    1    4    4    0    0 -0.40484119008E-01  0.60875773386E-01  0.20783160176E-01  0.76006740130E-01  0.51100000000E-03 0.  1.
</event>
<event>
 7    1  0.1042301E+005  0.1043930E+01  0.7957747E-01            NaN
         13   -1    0    0    0    0  0.00000000000E+00  0.00000000000E+00  0.74505805969E-08  0.10566000000E+00  0.10566000000E+00 0.  1.
     999900   -1    0    0    0    0 -0.00000000000E+00 -0.00000000000E+00 -0.74505805969E-08  0.93827000000E+00  0.93827000000E+00 0. -1.
     999903    2    1    2    0    0  0.65665694296E-01 -0.66713017179E-01 -0.58605069454E-01  0.11318649606E+00  0.24779399824E-01 0.  0.
         14    1    1    2    0    0 -0.29882480895E-01 -0.30503859325E-01  0.58135064515E-02  0.43095764936E-01  0.00000000000E+00 0.  1.
     999901    1    1    2    0    0 -0.35783213401E-01  0.97216876504E-01  0.52791563003E-01  0.88764773901E+00  0.88000000000E+00 0.  1.
        -11    1    3    3    0    0  0.84501754227E-02 -0.23773961556E-01 -0.13563892970E-01  0.28650428029E-01  0.51100000000E-03 0.  1.
         11    1    3    3    0    0  0.57215518873E-01 -0.42939055623E-01 -0.45041176484E-01  0.84536068029E-01  0.51100000000E-03 0. -1.
</event>
<event>
 8    1  0.1042301E+005  0.1043930E+01  0.7957747E-01            NaN
         13   -1    0    0    0    0  0.00000000000E+00  0.00000000000E+00  0.74505805969E-08  0.10566000000E+00  0.10566000000E+00 0.  1.
     999900   -1    0    0    0    0 -0.00000000000E+00 -0.00000000000E+00 -0.74505805969E-08  0.93827000000E+00  0.93827000000E+00 0.  1.
     999902    2    1    2    0    0  0.95008998436E-02 -0.20028550836E-01 -0.70768423350E-02  0.10206600270E+01  0.10203947271E+01 0.  0.
     999903    2    3    3    0    0 -0.83974873146E-01  0.81191196517E-01 -0.50143860253E-01  0.12889889001E+00  0.21371181856E-01 0.  0.
         14    1    1    2    0    0 -0.95008998436E-02  0.20028550836E-01  0.70768423350E-02  0.23269973010E-01  0.00000000000E+00 0. -1.
     999901    1    3    3    0    0  0.93475772989E-01 -0.10121974735E+00  0.43067017918E-01  0.89176113698E+00  0.88000000000E+00 0.  1.
        -11    1    4    4    0    0 -0.53322606711E-01  0.44703958455E-01 -0.39694396351E-01  0.80110239737E-01  0.51100000000E-03 0.  1.
         11    1    4    4    0    0 -0.30652266434E-01  0.36487238062E-01 -0.10449463901E-01  0.48788650276E-01  0.51100000000E-03 0. -1.
</event>
<event>
 8    1  0.1042301E+005  0.1043930E+01  0.7957747E-01            NaN
         13   -1    0    0    0    0  0.00000000000E+00  0.00000000000E+00  0.74505805969E-08  0.10566000000E+00  0.10566000000E+00 0.  1.
     999900   -1    0    0    0    0 -0.00000000000E+00 -0.00000000000E+00 -0.74505805969E-08  0.93827000000E+00  0.93827000000E+00 0. -1.
     999902    2    1    2    0    0  0.19142342021E-01  0.39207236689E-02 -0.13167601165E-01  0.10203675924E+01  0.10200955036E+01 0.  0.
     999903    2    3    3    0    0  0.95158888415E-01  0.80139303223E-01  0.40112284583E-01  0.13220852250E+00  0.19813532791E-01 0.  0.
         14    1    1    2    0    0 -0.19142342021E-01 -0.39207236689E-02  0.13167601165E-01  0.23562407615E-01  0.00000000000E+00 0. -1.
     999901    1    3    3    0    0 -0.76016546394E-01 -0.76218579554E-01 -0.53279885748E-01  0.88815906989E+00  0.88000000000E+00 0.  1.
        -11    1    4    4    0    0  0.53121857604E-01  0.57277591742E-01  0.24600411803E-01  0.81902964861E-01  0.51100000000E-03 0.  1.
         11    1    4    4    0    0  0.42037030811E-01  0.22861711481E-01  0.15511872780E-01  0.50305557639E-01  0.51100000000E-03 0. -1.
</event>
<event>
 8    1  0.1042301E+005  0.1043930E+01  0.7957747E-01            NaN
         13   -1    0    0    0    0  0.00000000000E+00  0.00000000000E+00  0.74505805969E-08  0.10566000000E+00  0.10566000000E+00 0. -1.
     999900   -1    0    0    0    0 -0.00000000000E+00 -0.00000000000E+00 -0.74505805969E-08  0.93827000000E+00  0.93827000000E+00 0. -1.
     999902    2    1    2    0    0 -0.23013056177E-01  0.47064804770E-02 -0.28844398402E-02  0.10202641658E+01  0.10199896550E+01 0.  0.
     999903    2    3    3    0    0 -0.29618697167E-02  0.92301923718E-01  0.90638396500E-01  0.13075782372E+00  0.18811479221E-01 0.  0.
         14    1    1    2    0    0  0.23013056177E-01 -0.47064804770E-02  0.28844398402E-02  0.23665834156E-01  0.00000000000E+00 0.  1.
     999901    1    3    3    0    0 -0.20051186461E-01 -0.87595443241E-01 -0.93522836341E-01  0.88950634212E+00  0.88000000000E+00 0. -1.
        -11    1    4    4    0    0 -0.41193249046E-02  0.50597564374E-01  0.37087524141E-01  0.62871519197E-01  0.51100000000E-03 0. -1.
         11    1    4    4    0    0  0.11574551878E-02  0.41704359344E-01  0.53550872359E-01  0.67886304526E-01  0.51100000000E-03 0.  1.
</event>
<event>
 8    1  0.1042301E+005  0.1043930E+01  0.7957747E-01            NaN
         13   -1    0    0    0    0  0.00000000000E+00  0.00000000000E+00  0.74505805969E-08  0.10566000000E+00  0.10566000000E+00 0. -1.
     999900   -1    0    0    0    0 -0.00000000000E+00 -0.00000000000E+00 -0.74505805969E-08  0.93827000000E+00  0.93827000000E+00 0. -1.
     999902    2    1    2    0    0 -0.12805666362E-01  0.15282462544E-01 -0.12346165386E-01  0.10204786343E+01  0.10202091337E+01 0.  0.
     999903    2    3    3    0    0  0.71098360117E-01  0.62435408010E-01 -0.89965742855E-01  0.13183467596E+00  0.18258968040E-01 0.  0.
         14    1    1    2    0    0  0.12805666362E-01 -0.15282462544E-01  0.12346165386E-01  0.23451365677E-01  0.00000000000E+00 0. -1.
     999901    1    3    3    0    0 -0.83904026478E-01 -0.47152945466E-01  0.77619577468E-01  0.88864395836E+00  0.88000000000E+00 0.  1.
        -11    1    4    4    0    0  0.28724432413E-01  0.36188835734E-01 -0.37974742815E-01  0.59808586859E-01  0.51100000000E-03 0. -1.
         11    1    4    4    0    0  0.42373927704E-01  0.26246572276E-01 -0.51991000040E-01  0.72026089103E-01  0.51100000000E-03 0.  1.
</event>
<event>
 8    1  0.1042301E+005  0.1043930E+01  0.7957747E-01            NaN
         13   -1    0    0    0    0  0.00000000000E+00  0.00000000000E+00  0.74505805969E-08  0.10566000000E+00  0.10566000000E+00 0. -1.
     999900   -1    0    0    0    0 -0.00000000000E+00 -0.00000000000E+00 -0.74505805969E-08  0.93827000000E+00  0.93827000000E+00 0. -1.
     999902    2    1    2    0    0  0.92671850583E-03 -0.24338661885E-01 -0.38288163182E-02  0.10192745928E+01  0.10189763522E+01 0.  0.
     999903    2    3    3    0    0  0.29977711140E-01 -0.10506518466E+00 -0.72181420147E-01  0.13246412258E+00  0.19980744809E-01 0.  0.
         14    1    1    2    0    0 -0.92671850583E-03  0.24338661885E-01  0.38288163182E-02  0.24655407194E-01  0.00000000000E+00 0.  1.
     999901    1    3    3    0    0 -0.29050992634E-01  0.80726522777E-01  0.68352603829E-01  0.88681047023E+00  0.88000000000E+00 0.  1.
        -11    1    4    4    0    0  0.19905788219E-01 -0.64478612598E-01 -0.32850797429E-01  0.75054432913E-01  0.51100000000E-03 0.  1.
         11    1    4    4    0    0  0.10071922921E-01 -0.40586572063E-01 -0.39330622718E-01  0.57409689666E-01  0.51100000000E-03 0. -1.
</event>
<event>
 8    1  0.1042301E+005  0.1043930E+01  0.7957747E-01            NaN
         13   -1    0    0    0    0  0.00000000000E+00  0.00000000000E+00  0.74505805969E-08  0.10566000000E+00  0.10566000000E+00 0. -1.
     999900   -1    0    0    0    0 -0.00000000000E+00 -0.00000000000E+00 -0.74505805969E-08  0.93827000000E+00  0.93827000000E+00 0.  1.
     999902    2    1    2    0    0  0.19445517568E-01  0.11911609143E-01  0.13738059059E-02  0.10210848270E+01  0.10208292326E+01 0.  0.
     999903    2    3    3    0    0 -0.21473427280E-01 -0.11542851980E+00 -0.50514497707E-01  0.12946704762E+00  0.20619182296E-01 0.  0.
         14    1    1    2    0    0 -0.19445517568E-01 -0.11911609143E-01 -0.13738059059E-02  0.22845172981E-01  0.00000000000E+00 0. -1.
     999901    1    3    3    0    0  0.40918944848E-01  0.12734012894E+00  0.51888303613E-01  0.89161777940E+00  0.88000000000E+00 0.  1.
        -11    1    4    4    0    0 -0.22440723255E-02 -0.67656261025E-01 -0.29544867160E-01  0.73861802124E-01  0.51100000000E-03 0. -1.
         11    1    4    4    0    0 -0.19229354955E-01 -0.47772258775E-01 -0.20969630546E-01  0.55605245497E-01  0.51100000000E-03 0.  1.
</event>
<event>
 8    1  0.1042301E+005  0.1043930E+01  0.7957747E-01            NaN
         13   -1    0    0    0    0  0.00000000000E+00  0.00000000000E+00  0.74505805969E-08  0.10566000000E+00  0.10566000000E+00 0. -1.
     999900   -1    0    0    0    0 -0.00000000000E+00 -0.00000000000E+00 -0.74505805969E-08  0.93827000000E+00  0.93827000000E+00 0. -1.
     999902    2    1    2    0    0  0.21113136379E-01  0.68335471943E-02 -0.82350857421E-02  0.10202597965E+01  0.10199851832E+01 0.  0.
     999903    2    3    3    0    0 -0.10283684822E+00 -0.58187024837E-01 -0.46148043996E-01  0.12839172004E+00  0.19840478750E-01 0.  0.
         14    1    1    2    0    0 -0.21113136379E-01 -0.68335471943E-02  0.82350857421E-02  0.23670203468E-01  0.00000000000E+00 0. -1.
     999901    1    3    3    0    0  0.12394998460E+00  0.65020572031E-01  0.37912958254E-01  0.89186807650E+00  0.88000000000E+00 0.  1.
        -11    1    4    4    0    0 -0.11065512968E-01 -0.11284175293E-02 -0.69184901280E-03  0.11156105030E-01  0.51100000000E-03 0. -1.
         11    1    4    4    0    0 -0.91771335255E-01 -0.57058607308E-01 -0.45456194983E-01  0.11723561501E+00  0.51100000000E-03 0.  1.
</event>
<event>
 8    1  0.1042301E+005  0.1043930E+01  0.7957747E-01            NaN
         13   -1    0    0    0    0  0.00000000000E+00  0.00000000000E+00  0.74505805969E-08  0.10566000000E+00  0.10566000000E+00 0. -1.
     999900   -1    0    0    0    0 -0.00000000000E+00 -0.00000000000E+00 -0.74505805969E-08  0.93827000000E+00  0.93827000000E+00 0.  1.
     999902    2    1    2    0    0  0.16981142716E-01  0.25473108231E-02  0.16420426619E-01  0.10201712456E+01  0.10198945494E+01 0.  0.
     999903    2    3    3    0    0 -0.43144636123E-01  0.94981279969E-02 -0.11849135284E+00  0.12783464354E+00  0.18703511106E-01 0.  0.
         14    1    1    2    0    0 -0.16981142716E-01 -0.25473108231E-02 -0.16420426619E-01  0.23758754402E-01  0.00000000000E+00 0.  1.
     999901    1    3    3    0    0  0.60125778839E-01 -0.69508171738E-02  0.13491177946E+00  0.89233660206E+00  0.88000000000E+00 0. -1.
        -11    1    4    4    0    0 -0.28340592056E-01  0.13656955362E-01 -0.91598875805E-01  0.96852035382E-01  0.51100000000E-03 0.  1.
         11    1    4    4    0    0 -0.14804044067E-01 -0.41588273648E-02 -0.26892477039E-01  0.30982608155E-01  0.51100000000E-03 0. -1.
</event>
<event>
 8    1  0.1042301E+005  0.1043930E+01  0.7957747E-01            NaN
         13   -1    0    0    0    0  0.00000000000E+00  0.00000000000E+00  0.74505805969E-08  0.10566000000E+00  0.10566000000E+00 0. -1.
     999900   -1    0    0    0    0 -0.00000000000E+00 -0.00000000000E+00 -0.74505805969E-08  0.93827000000E+00  0.93827000000E+00 0.  1.
     999902    2    1    2    0    0  0.18912375236E-01  0.49696030407E-02  0.14383840354E-01  0.10196551209E+01  0.10193661245E+01 0.  0.
     999903    2    3    3    0    0  0.35524486634E-01  0.71410697112E-01  0.10402984807E+00  0.13245345955E+00  0.18979800974E-01 0.  0.
         14    1    1    2    0    0 -0.18912375236E-01 -0.49696030407E-02 -0.14383840354E-01  0.24274879089E-01  0.00000000000E+00 0.  1.
     999901    1    3    3    0    0 -0.16612111398E-01 -0.66441094072E-01 -0.89646007711E-01  0.88720166136E+00  0.88000000000E+00 0.  1.
        -11    1    4    4    0    0  0.29693823334E-01  0.41797990792E-01  0.58069899955E-01  0.77467216164E-01  0.51100000000E-03 0.  1.
         11    1    4    4    0    0  0.58306632995E-02  0.29612706320E-01  0.45959948111E-01  0.54986243384E-01  0.51100000000E-03 0. -1.
</event>
<event>
 8    1  0.1042301E+005  0.1043930E+01  0.7957747E-01            NaN
         13   -1    0    0    0    0  0.00000000000E+00  0.00000000000E+00  0.74505805969E-08  0.10566000000E+00  0.10566000000E+00 0. -1.
     999900   -1    0    0    0    0 -0.00000000000E+00 -0.00000000000E+00 -0.74505805969E-08  0.93827000000E+00  0.93827000000E+00 0. -1.
     999902    2    1    2    0    0 -0.14469719360E-01  0.50647837063E-02 -0.18615930434E-01  0.10198140783E+01  0.10195288994E+01 0.  0.
     999903    2    3    3    0    0 -0.35213114041E-01  0.12490338168E+00 -0.72520268605E-02  0.13137684571E+00  0.19143289689E-01 0.  0.
         14    1    1    2    0    0  0.14469719360E-01 -0.50647837063E-02  0.18615930434E-01  0.24115921676E-01  0.00000000000E+00 0. -1.
     999901    1    3    3    0    0  0.20743394681E-01 -0.11983859797E+00 -0.11363903574E-01  0.88843723261E+00  0.88000000000E+00 0. -1.
        -11    1    4    4    0    0 -0.19037547989E-01  0.69262104388E-01 -0.13512722888E-01  0.73092558708E-01  0.51100000000E-03 0.  1.
         11    1    4    4    0    0 -0.16175566053E-01  0.55641277292E-01  0.62606960274E-02  0.58284287004E-01  0.51100000000E-03 0. -1.
</event>
<event>
 8    1  0.1042301E+005  0.1043930E+01  0.7957747E-01            NaN
         13   -1    0    0    0    0  0.00000000000E+00  0.00000000000E+00  0.74505805969E-08  0.10566000000E+00  0.10566000000E+00 0. -1.
     999900   -1    0    0    0    0 -0.00000000000E+00 -0.00000000000E+00 -0.74505805969E-08  0.93827000000E+00  0.93827000000E+00 0. -1.
     999902    2    1    2    0    0  0.10474056008E-01  0.10114816709E-01 -0.18956038066E-01  0.10200271394E+01  0.10197470364E+01 0.  0.
     999903    2    3    3    0    0  0.61150206503E-01 -0.49541349200E-01  0.99863321450E-01  0.12859852724E+00  0.19266686306E-01 0.  0.
         14    1    1    2    0    0 -0.10474056008E-01 -0.10114816709E-01  0.18956038066E-01  0.23902860613E-01  0.00000000000E+00 0. -1.
     999901    1    3    3    0    0 -0.50676150495E-01  0.59656165909E-01 -0.11881935952E+00  0.89142861215E+00  0.88000000000E+00 0. -1.
        -11    1    4    4    0    0  0.39549518940E-01 -0.19745205601E-01  0.55542143402E-01  0.70987522898E-01  0.51100000000E-03 0.  1.
         11    1    4    4    0    0  0.21600687563E-01 -0.29796143599E-01  0.44321178048E-01  0.57611004341E-01  0.51100000000E-03 0. -1.
</event>
<event>
 8    1  0.1042301E+005  0.1043930E+01  0.7957747E-01            NaN
         13   -1    0    0    0    0  0.00000000000E+00  0.00000000000E+00  0.74505805969E-08  0.10566000000E+00  0.10566000000E+00 0.  1.
     999900   -1    0    0    0    0 -0.00000000000E+00 -0.00000000000E+00 -0.74505805969E-08  0.93827000000E+00  0.93827000000E+00 0.  1.
     999902    2    1    2    0    0  0.12456364486E-01 -0.20543067431E-01 -0.37673973570E-02  0.10196118603E+01  0.10193218205E+01 0.  0.
     999903    2    3    3    0    0 -0.27103664794E-01 -0.82436060055E-01 -0.96911101754E-01  0.13165269000E+00  0.20257257907E-01 0.  0.
         14    1    1    2    0    0 -0.12456364486E-01  0.20543067431E-01  0.37673973570E-02  0.24318139701E-01  0.00000000000E+00 0.  1.
     999901    1    3    3    0    0  0.39560029280E-01  0.61892992625E-01  0.93143704397E-01  0.88795917030E+00  0.88000000000E+00 0. -1.
        -11    1    4    4    0    0 -0.95651631826E-02 -0.88028268072E-02 -0.18986553517E-01  0.23015917144E-01  0.51100000000E-03 0. -1.
         11    1    4    4    0    0 -0.17538501611E-01 -0.73633233248E-01 -0.77924548236E-01  0.10863677285E+00  0.51100000000E-03 0.  1.
</event>
<event>
 8    1  0.1042301E+005  0.1043930E+01  0.7957747E-01            NaN
         13   -1    0    0    0    0  0.00000000000E+00  0.00000000000E+00  0.74505805969E-08  0.10566000000E+00  0.10566000000E+00 0.  1.
     999900   -1    0    0    0    0 -0.00000000000E+00 -0.00000000000E+00 -0.74505805969E-08  0.93827000000E+00  0.93827000000E+00 0.  1.
     999902    2    1    2    0    0 -0.33443954938E-02 -0.58716107081E-02  0.22147649072E-01  0.10207744574E+01  0.10205117901E+01 0.  0.
     999903    2    3    3    0    0  0.11586869844E+00 -0.25172668946E-01  0.54459867144E-01  0.13193905529E+00  0.19565751763E-01 0.  0.
         14    1    1    2    0    0  0.33443954938E-02  0.58716107081E-02 -0.22147649072E-01  0.23155542597E-01  0.00000000000E+00 0. -1.
     999901    1    3    3    0    0 -0.11921309393E+00  0.19301058238E-01 -0.32312218072E-01  0.88883540211E+00  0.88000000000E+00 0.  1.
        -11    1    4    4    0    0  0.46099396623E-01 -0.41171072769E-03  0.19324898778E-01  0.49990366157E-01  0.51100000000E-03 0. -1.
         11    1    4    4    0    0  0.69769301814E-01 -0.24760958218E-01  0.35134968366E-01  0.81948689133E-01  0.51100000000E-03 0.  1.
</event>
<event>
 8    1  0.1042301E+005  0.1043930E+01  0.7957747E-01            NaN
         13   -1    0    0    0    0  0.00000000000E+00  0.00000000000E+00  0.74505805969E-08  0.10566000000E+00  0.10566000000E+00 0. -1.
     999900   -1    0    0    0    0 -0.00000000000E+00 -0.00000000000E+00 -0.74505805969E-08  0.93827000000E+00  0.93827000000E+00 0.  1.
     999902    2    1    2    0    0  0.42570190202E-02  0.21414927131E-01  0.73660118970E-02  0.10208870087E+01  0.10206269177E+01 0.  0.
     999903    2    3    3    0    0  0.11052621259E+00  0.51968213851E-01  0.48752840464E-01  0.13300215449E+00  0.19899616179E-01 0.  0.
         14    1    1    2    0    0 -0.42570190202E-02 -0.21414927131E-01 -0.73660118970E-02  0.23042991260E-01  0.00000000000E+00 0. -1.
     999901    1    3    3    0    0 -0.10626919357E+00 -0.30553286720E-01 -0.41386828567E-01  0.88788485425E+00  0.88000000000E+00 0.  1.
        -11    1    4    4    0    0  0.10052285132E+00  0.44548930474E-01  0.37393658796E-01  0.11613783915E+00  0.51100000000E-03 0. -1.
         11    1    4    4    0    0  0.10003361275E-01  0.74192833765E-02  0.11359181668E-01  0.16864315337E-01  0.51100000000E-03 0.  1.
</event>
<event>
 7    1  0.1042301E+005  0.1043930E+01  0.7957747E-01            NaN
         13   -1    0    0    0    0  0.00000000000E+00  0.00000000000E+00  0.74505805969E-08  0.10566000000E+00  0.10566000000E+00 0.  1.
     999900   -1    0    0    0    0 -0.00000000000E+00 -0.00000000000E+00 -0.74505805969E-08  0.93827000000E+00  0.93827000000E+00 0. -1.
     999902    2    1    2    0    0 -0.22715639903E-01 -0.58020376878E-02 -0.31376473187E-02  0.10202760623E+01  0.10200018307E+01 0.  0.
         14    1    1    2    0    0  0.22715639903E-01  0.58020376878E-02  0.31376473187E-02  0.23653937690E-01  0.00000000000E+00 0.  1.
     999901    1    3    3    0    0 -0.10826500715E+00  0.73748882253E-01 -0.44812274312E-01  0.89082453342E+00  0.88000000000E+00 0.  1.
        -11    1    3    3    0    0  0.80959822645E-01 -0.60446558801E-01  0.26045496683E-01  0.10434034873E+00  0.51100000000E-03 0. -1.
         11    1    3    3    0    0  0.45895446011E-02 -0.19104361140E-01  0.15629130310E-01  0.25111180169E-01  0.51100000000E-03 0.  1.
</event>
<event>
 8    1  0.1042301E+005  0.1043930E+01  0.7957747E-01            NaN
         13   -1    0    0    0    0  0.00000000000E+00  0.00000000000E+00  0.74505805969E-08  0.10566000000E+00  0.10566000000E+00 0.  1.
     999900   -1    0    0    0    0 -0.00000000000E+00 -0.00000000000E+00 -0.74505805969E-08  0.93827000000E+00  0.93827000000E+00 0.  1.
     999902    2    1    2    0    0 -0.18446008468E-01  0.46977937687E-03  0.13841705071E-01  0.10208633852E+01  0.10206027545E+01 0.  0.
     999903    2    3    3    0    0  0.11379504571E-01  0.90682552587E-01 -0.89734119730E-01  0.12970915767E+00  0.20480109190E-01 0.  0.
         14    1    1    2    0    0  0.18446008468E-01 -0.46977937687E-03 -0.13841705071E-01  0.23066614844E-01  0.00000000000E+00 0. -1.
     999901    1    3    3    0    0 -0.29825513039E-01 -0.90212773210E-01  0.10357582480E+00  0.89115422748E+00  0.88000000000E+00 0. -1.
        -11    1    4    4    0    0 -0.55557262822E-02  0.26522349412E-01 -0.22275324705E-01  0.35082079821E-01  0.51100000000E-03 0.  1.
         11    1    4    4    0    0  0.16935230853E-01  0.64160203175E-01 -0.67458795025E-01  0.94627077852E-01  0.51100000000E-03 0. -1.
</event>
<event>
 8    1  0.1042301E+005  0.1043930E+01  0.7957747E-01            NaN
         13   -1    0    0    0    0  0.00000000000E+00  0.00000000000E+00  0.74505805969E-08  0.10566000000E+00  0.10566000000E+00 0.  1.
     999900   -1    0    0    0    0 -0.00000000000E+00 -0.00000000000E+00 -0.74505805969E-08  0.93827000000E+00  0.93827000000E+00 0. -1.
     999902    2    1    2    0    0  0.53079540642E-02  0.55839021809E-02 -0.22035824092E-01  0.10205862239E+01  0.10203192189E+01 0.  0.
     999903    2    3    3    0    0 -0.43307705225E-01 -0.54700924048E-01 -0.11155221358E+00  0.13266115577E+00  0.16951031599E-01 0.  0.
         14    1    1    2    0    0 -0.53079540642E-02 -0.55839021809E-02  0.22035824092E-01  0.23343776115E-01  0.00000000000E+00 0.  1.
     999901    1    3    3    0    0  0.48615659290E-01  0.60284826228E-01  0.89516389487E-01  0.88792506812E+00  0.88000000000E+00 0.  1.
        -11    1    4    4    0    0 -0.27274283408E-01 -0.24844076756E-01 -0.47006735772E-01  0.59757920096E-01  0.51100000000E-03 0. -1.
         11    1    4    4    0    0 -0.16033421817E-01 -0.29856847292E-01 -0.64545477806E-01  0.72903235673E-01  0.51100000000E-03 0.  1.
</event>
<event>
 8    1  0.1042301E+005  0.1043930E+01  0.7957747E-01            NaN
         13   -1    0    0    0    0  0.00000000000E+00  0.00000000000E+00  0.74505805969E-08  0.10566000000E+00  0.10566000000E+00 0.  1.
     999900   -1    0    0    0    0 -0.00000000000E+00 -0.00000000000E+00 -0.74505805969E-08  0.93827000000E+00  0.93827000000E+00 0. -1.
     999902    2    1    2    0    0 -0.23724281038E-02 -0.13634551671E-01  0.19250156918E-01  0.10202213949E+01  0.10199458793E+01 0.  0.
     999903    2    3    3    0    0 -0.91421431164E-01  0.65166994483E-01 -0.59455165497E-01  0.12874288344E+00  0.20861401819E-01 0.  0.
         14    1    1    2    0    0  0.23724281038E-02  0.13634551671E-01 -0.19250156918E-01  0.23708605099E-01  0.00000000000E+00 0. -1.
     999901    1    3    3    0    0  0.89049003060E-01 -0.78801546154E-01  0.78705322415E-01  0.89147851146E+00  0.88000000000E+00 0.  1.
        -11    1    4    4    0    0 -0.37735580039E-01  0.15066956020E-01 -0.18335455292E-01  0.44580681987E-01  0.51100000000E-03 0. -1.
         11    1    4    4    0    0 -0.53685851125E-01  0.50100038463E-01 -0.41119710205E-01  0.84162201452E-01  0.51100000000E-03 0.  1.
</event>
<event>
 8    1  0.1042301E+005  0.1043930E+01  0.7957747E-01            NaN
         13   -1    0    0    0    0  0.00000000000E+00  0.00000000000E+00  0.74505805969E-08  0.10566000000E+00  0.10566000000E+00 0. -1.
     999900   -1    0    0    0    0 -0.00000000000E+00 -0.00000000000E+00 -0.74505805969E-08  0.93827000000E+00  0.93827000000E+00 0.  1.
     999902    2    1    2    0    0  0.13304770342E-01 -0.10655767726E-01 -0.15651524481E-01  0.10207884245E+01  0.10205260776E+01 0.  0.
     999903    2    3    3    0    0 -0.42299431488E-01 -0.89368772276E-02 -0.12343735420E+00  0.13246834311E+00  0.21023126216E-01 0.  0.
         14    1    1    2    0    0 -0.13304770342E-01  0.10655767726E-01  0.15651524481E-01  0.23141575535E-01  0.00000000000E+00 0. -1.
     999901    1    3    3    0    0  0.55604201830E-01 -0.17188904979E-02  0.10778582972E+00  0.88832008135E+00  0.88000000000E+00 0. -1.
        -11    1    4    4    0    0 -0.22576371667E-01 -0.24110755189E-02 -0.92158639574E-01  0.94915656306E-01  0.51100000000E-03 0.  1.
         11    1    4    4    0    0 -0.19723059821E-01 -0.65258017087E-02 -0.31278714627E-01  0.37552686806E-01  0.51100000000E-03 0. -1.
</event>
<event>
 8    1  0.1042301E+005  0.1043930E+01  0.7957747E-01            NaN
         13   -1    0    0    0    0  0.00000000000E+00  0.00000000000E+00  0.74505805969E-08  0.10566000000E+00  0.10566000000E+00 0.  1.
     999900   -1    0    0    0    0 -0.00000000000E+00 -0.00000000000E+00 -0.74505805969E-08  0.93827000000E+00  0.93827000000E+00 0.  1.
     999902    2    1    2    0    0 -0.15708407373E-01 -0.50350949420E-02  0.16626816948E-01  0.10205087002E+01  0.10202398982E+01 0.  0.
     999903    2    3    3    0    0  0.94623778914E-01 -0.79110136056E-01  0.36698663228E-01  0.13030468870E+00  0.20504800705E-01 0.  0.
         14    1    1    2    0    0  0.15708407373E-01  0.50350949420E-02 -0.16626816948E-01  0.23421299816E-01  0.00000000000E+00 0.  1.
     999901    1    3    3    0    0 -0.11033218629E+00  0.74075041114E-01 -0.20071846280E-01  0.89020401148E+00  0.88000000000E+00 0. -1.
        -11    1    4    4    0    0  0.65948645239E-01 -0.51134038765E-01  0.15160443632E-01  0.84817532983E-01  0.51100000000E-03 0.  1.
         11    1    4    4    0    0  0.28675133676E-01 -0.27976097291E-01  0.21538219596E-01  0.45487155718E-01  0.51100000000E-03 0. -1.
</event>
<event>
 8    1  0.1042301E+005  0.1043930E+01  0.7957747E-01            NaN
         13   -1    0    0    0    0  0.00000000000E+00  0.00000000000E+00  0.74505805969E-08  0.10566000000E+00  0.10566000000E+00 0.  1.
     999900   -1    0    0    0    0 -0.00000000000E+00 -0.00000000000E+00 -0.74505805969E-08  0.93827000000E+00  0.93827000000E+00 0. -1.
     999902    2    1    2    0    0 -0.15923754179E-01  0.16583959768E-01  0.36025828557E-02  0.10206582946E+01  0.10203929547E+01 0.  0.
     999903    2    3    3    0    0  0.87656854901E-01  0.37843699354E-01 -0.85796046336E-01  0.12983113179E+00  0.19475405606E-01 0.  0.
         14    1    1    2    0    0  0.15923754179E-01 -0.16583959768E-01 -0.36025828557E-02  0.23271705395E-01  0.00000000000E+00 0. -1.
     999901    1    3    3    0    0 -0.10358060908E+00 -0.21259739585E-01  0.89398629192E-01  0.89082716281E+00  0.88000000000E+00 0.  1.
        -11    1    4    4    0    0  0.41586211990E-01  0.10648328194E-01 -0.29019973008E-01  0.51819107243E-01  0.51100000000E-03 0. -1.
         11    1    4    4    0    0  0.46070642911E-01  0.27195371160E-01 -0.56776073328E-01  0.78012024549E-01  0.51100000000E-03 0.  1.
</event>
<event>
 8    1  0.1042301E+005  0.1043930E+01  0.7957747E-01            NaN
         13   -1    0    0    0    0  0.00000000000E+00  0.00000000000E+00  0.74505805969E-08  0.10566000000E+00  0.10566000000E+00 0.  1.
     999900   -1    0    0    0    0 -0.00000000000E+00 -0.00000000000E+00 -0.74505805969E-08  0.93827000000E+00  0.93827000000E+00 0. -1.
     999902    2    1    2    0    0 -0.77057671176E-02 -0.13137641839E-01  0.18574849228E-01  0.10199091444E+01  0.10196262361E+01 0.  0.
     999903    2    3    3    0    0 -0.44174253749E-01  0.81670498250E-02 -0.11849089771E+00  0.12829776079E+00  0.20053857095E-01 0.  0.
         14    1    1    2    0    0  0.77057671176E-02  0.13137641839E-01 -0.18574849228E-01  0.24020855601E-01  0.00000000000E+00 0. -1.
     999901    1    3    3    0    0  0.36468486632E-01 -0.21304691664E-01  0.13706574694E+00  0.89161138361E+00  0.88000000000E+00 0.  1.
        -11    1    4    4    0    0 -0.23400694700E-01  0.13286784894E-01 -0.53763528292E-01  0.60124115467E-01  0.51100000000E-03 0. -1.
         11    1    4    4    0    0 -0.20773559049E-01 -0.51197350692E-02 -0.64727369422E-01  0.68173645318E-01  0.51100000000E-03 0.  1.
</event>
<event>
 8    1  0.1042301E+005  0.1043930E+01  0.7957747E-01            NaN
         13   -1    0    0    0    0  0.00000000000E+00  0.00000000000E+00  0.74505805969E-08  0.10566000000E+00  0.10566000000E+00 0. -1.
     999900   -1    0    0    0    0 -0.00000000000E+00 -0.00000000000E+00 -0.74505805969E-08  0.93827000000E+00  0.93827000000E+00 0.  1.
     999902    2    1    2    0    0  0.19921653696E-01  0.11112718992E-01 -0.59392853334E-02  0.10203579844E+01  0.10200856711E+01 0.  0.
     999903    2    3    3    0    0  0.65693101500E-01  0.11426689414E+00 -0.94011377066E-03  0.13313715450E+00  0.18764631999E-01 0.  0.
         14    1    1    2    0    0 -0.19921653696E-01 -0.11112718992E-01  0.59392853334E-02  0.23572015604E-01  0.00000000000E+00 0. -1.
     999901    1    3    3    0    0 -0.45771447804E-01 -0.10315417515E+00 -0.49991715628E-02  0.88722082990E+00  0.88000000000E+00 0.  1.
        -11    1    4    4    0    0  0.23119493228E-01  0.57571376928E-01  0.31009670461E-02  0.62119654910E-01  0.51100000000E-03 0.  1.
         11    1    4    4    0    0  0.42573608271E-01  0.56695517210E-01 -0.40410808168E-02  0.71017499590E-01  0.51100000000E-03 0. -1.
</event>
<event>
 8    1  0.1042301E+005  0.1043930E+01  0.7957747E-01            NaN
         13   -1    0    0    0    0  0.00000000000E+00  0.00000000000E+00  0.74505805969E-08  0.10566000000E+00  0.10566000000E+00 0.  1.
     999900   -1    0    0    0    0 -0.00000000000E+00 -0.00000000000E+00 -0.74505805969E-08  0.93827000000E+00  0.93827000000E+00 0.  1.
     999902    2    1    2    0    0  0.23617465703E-01  0.34246233139E-02 -0.16722155866E-02  0.10200070187E+01  0.10197264384E+01 0.  0.
     999903    2    3    3    0    0 -0.10878790175E+00 -0.29865629199E-01 -0.57535701615E-01  0.12772895028E+00  0.16660264291E-01 0.  0.
         14    1    1    2    0    0 -0.23617465703E-01 -0.34246233139E-02  0.16722155866E-02  0.23922981337E-01  0.00000000000E+00 0.  1.
     999901    1    3    3    0    0  0.13240536745E+00  0.33290252513E-01  0.55863486029E-01  0.89227806838E+00  0.88000000000E+00 0. -1.
        -11    1    4    4    0    0 -0.29736519568E-01 -0.10253570007E-01 -0.82271107444E-02  0.32516807441E-01  0.51100000000E-03 0.  1.
         11    1    4    4    0    0 -0.79051382177E-01 -0.19612059192E-01 -0.49308590871E-01  0.95212142842E-01  0.51100000000E-03 0. -1.
</event>
<event>
 8    1  0.1042301E+005  0.1043930E+01  0.7957747E-01            NaN
         13   -1    0    0    0    0  0.00000000000E+00  0.00000000000E+00  0.74505805969E-08  0.10566000000E+00  0.10566000000E+00 0.  1.
     999900   -1    0    0    0    0 -0.00000000000E+00 -0.00000000000E+00 -0.74505805969E-08  0.93827000000E+00  0.93827000000E+00 0.  1.
     999902    2    1    2    0    0  0.22209925947E-01  0.24795722146E-02  0.10874094673E-01  0.10190769313E+01  0.10187738301E+01 0.  0.
     999903    2    3    3    0    0 -0.86362314176E-01 -0.37839105381E-01 -0.81656090915E-01  0.12667827468E+00  0.22122858917E-01 0.  0.
         14    1    1    2    0    0 -0.22209925947E-01 -0.24795722146E-02 -0.10874094673E-01  0.24853068702E-01  0.00000000000E+00 0.  1.
     999901    1    3    3    0    0  0.10857224012E+00  0.40318677595E-01  0.92530185587E-01  0.89239865662E+00  0.88000000000E+00 0. -1.
        -11    1    4    4    0    0 -0.19877554230E-01 -0.77570965202E-02 -0.31798019088E-01  0.38297060560E-01  0.51100000000E-03 0. -1.
         11    1    4    4    0    0 -0.66484759946E-01 -0.30082008861E-01 -0.49858071827E-01  0.88381214120E-01  0.51100000000E-03 0.  1.
</event>
<event>
 8    1  0.1042301E+005  0.1043930E+01  0.7957747E-01            NaN
         13   -1    0    0    0    0  0.00000000000E+00  0.00000000000E+00  0.74505805969E-08  0.10566000000E+00  0.10566000000E+00 0.  1.
     999900   -1    0    0    0    0 -0.00000000000E+00 -0.00000000000E+00 -0.74505805969E-08  0.93827000000E+00  0.93827000000E+00 0.  1.
     999902    2    1    2    0    0 -0.14879942947E-01  0.17125826012E-01  0.86497292661E-02  0.10196498757E+01  0.10193607529E+01 0.  0.
     999903    2    3    3    0    0 -0.41272510025E-01  0.11167877291E+00 -0.53688883008E-01  0.13199964621E+00  0.19126997656E-01 0.  0.
         14    1    1    2    0    0  0.14879942947E-01 -0.17125826012E-01 -0.86497292661E-02  0.24280124280E-01  0.00000000000E+00 0. -1.
     999901    1    3    3    0    0  0.26392567078E-01 -0.94552946897E-01  0.62338612274E-01  0.88765022951E+00  0.88000000000E+00 0. -1.
        -11    1    4    4    0    0 -0.29524991681E-01  0.57091267880E-01 -0.22894337290E-01  0.68231589479E-01  0.51100000000E-03 0. -1.
         11    1    4    4    0    0 -0.11747518343E-01  0.54587505029E-01 -0.30794545718E-01  0.63768056733E-01  0.51100000000E-03 0.  1.
</event>
<event>
 8    1  0.1042301E+005  0.1043930E+01  0.7957747E-01            NaN
         13   -1    0    0    0    0  0.00000000000E+00  0.00000000000E+00  0.74505805969E-08  0.10566000000E+00  0.10566000000E+00 0.  1.
     999900   -1    0    0    0    0 -0.00000000000E+00 -0.00000000000E+00 -0.74505805969E-08  0.93827000000E+00  0.93827000000E+00 0.  1.
     999902    2    1    2    0    0 -0.18355921704E-01  0.13669146037E-01 -0.57746397968E-02  0.10203263588E+01  0.10200533057E+01 0.  0.
     999903    2    3    3    0    0  0.91413050165E-02  0.10810840181E+00  0.73057589459E-01  0.13134413685E+00  0.11953280221E-01 0.  0.
         14    1    1    2    0    0  0.18355921704E-01 -0.13669146037E-01  0.57746397968E-02  0.23603641239E-01  0.00000000000E+00 0. -1.
     999901    1    3    3    0    0 -0.27497226720E-01 -0.94439255770E-01 -0.78832229256E-01  0.88898222191E+00  0.88000000000E+00 0.  1.
        -11    1    4    4    0    0  0.72672589433E-02  0.35334059669E-01  0.19897305446E-01  0.41200396967E-01  0.51100000000E-03 0.  1.
         11    1    4    4    0    0  0.18740460732E-02  0.72774342138E-01  0.53160284013E-01  0.90143739881E-01  0.51100000000E-03 0. -1.
</event>
<event>
 8    1  0.1042301E+005  0.1043930E+01  0.7957747E-01            NaN
         13   -1    0    0    0    0  0.00000000000E+00  0.00000000000E+00  0.74505805969E-08  0.10566000000E+00  0.10566000000E+00 0.  1.
     999900   -1    0    0    0    0 -0.00000000000E+00 -0.00000000000E+00 -0.74505805969E-08  0.93827000000E+00  0.93827000000E+00 0. -1.
     999902    2    1    2    0    0  0.19256671432E-01  0.13992403397E-01  0.52200859425E-02  0.10195608382E+01  0.10192695653E+01 0.  0.
     999903    2    3    3    0    0  0.36948420709E-01  0.82561811037E-01  0.95153234787E-01  0.13214733096E+00  0.15071182890E-01 0.  0.
         14    1    1    2    0    0 -0.19256671432E-01 -0.13992403397E-01 -0.52200859425E-02  0.24369161756E-01  0.00000000000E+00 0. -1.
     999901    1    3    3    0    0 -0.17691749277E-01 -0.68569407639E-01 -0.89933148844E-01  0.88741350729E+00  0.88000000000E+00 0. -1.
        -11    1    4    4    0    0  0.28075941952E-01  0.48737135734E-01  0.65116271129E-01  0.86046248046E-01  0.51100000000E-03 0.  1.
         11    1    4    4    0    0  0.88724787564E-02  0.33824675303E-01  0.30036963657E-01  0.46101082909E-01  0.51100000000E-03 0. -1.
</event>
<event>
 8    1  0.1042301E+005  0.1043930E+01  0.7957747E-01            NaN
         13   -1    0    0    0    0  0.00000000000E+00  0.00000000000E+00  0.74505805969E-08  0.10566000000E+00  0.10566000000E+00 0.  1.
     999900   -1    0    0    0    0 -0.00000000000E+00 -0.00000000000E+00 -0.74505805969E-08  0.93827000000E+00  0.93827000000E+00 0. -1.
     999902    2    1    2    0    0 -0.80982236655E-02 -0.10063494502E-01 -0.17952493446E-01  0.10218133283E+01  0.10215739477E+01 0.  0.
     999903    2    3    3    0    0 -0.66485774140E-01  0.87733868223E-01 -0.71555705489E-01  0.13285509833E+00  0.20314240540E-01 0.  0.
         14    1    1    2    0    0  0.80982236655E-02  0.10063494502E-01  0.17952493446E-01  0.22116671744E-01  0.00000000000E+00 0.  1.
     999901    1    3    3    0    0  0.58387550474E-01 -0.97797362724E-01  0.53603212043E-01  0.88895822992E+00  0.88000000000E+00 0.  1.
        -11    1    4    4    0    0 -0.44631728624E-01  0.69845096034E-01 -0.46185384840E-01  0.94887720669E-01  0.51100000000E-03 0. -1.
         11    1    4    4    0    0 -0.21854045516E-01  0.17888772189E-01 -0.25370320649E-01  0.37967377664E-01  0.51100000000E-03 0.  1.
</event>
<event>
 8    1  0.1042301E+005  0.1043930E+01  0.7957747E-01            NaN
         13   -1    0    0    0    0  0.00000000000E+00  0.00000000000E+00  0.74505805969E-08  0.10566000000E+00  0.10566000000E+00 0.  1.
     999900   -1    0    0    0    0 -0.00000000000E+00 -0.00000000000E+00 -0.74505805969E-08  0.93827000000E+00  0.93827000000E+00 0. -1.
     999902    2    1    2    0    0  0.10030405067E-01  0.80099849652E-02 -0.20062129746E-01  0.10201128227E+01  0.10198347479E+01 0.  0.
     999903    2    3    3    0    0 -0.11590720578E-01 -0.90356008111E-01 -0.92669858857E-01  0.13139733166E+00  0.19467999962E-01 0.  0.
         14    1    1    2    0    0 -0.10030405067E-01 -0.80099849652E-02  0.20062129746E-01  0.23817177307E-01  0.00000000000E+00 0.  1.
     999901    1    3    3    0    0  0.21621125645E-01  0.98365993076E-01  0.72607729111E-01  0.88871549103E+00  0.88000000000E+00 0. -1.
        -11    1    4    4    0    0  0.14066898963E-02 -0.97262288391E-02 -0.34190563866E-02  0.10417743108E-01  0.51100000000E-03 0.  1.
         11    1    4    4    0    0 -0.12997410474E-01 -0.80629779272E-01 -0.89250802470E-01  0.12097958856E+00  0.51100000000E-03 0. -1.
</event>
<event>
 8    1  0.1042301E+005  0.1043930E+01  0.7957747E-01            NaN
         13   -1    0    0    0    0  0.00000000000E+00  0.00000000000E+00  0.74505805969E-08  0.10566000000E+00  0.10566000000E+00 0.  1.
     999900   -1    0    0    0    0 -0.00000000000E+00 -0.00000000000E+00 -0.74505805969E-08  0.93827000000E+00  0.93827000000E+00 0.  1.
     999902    2    1    2    0    0  0.11766392064E-01  0.16541471307E-01  0.20435673794E-01  0.10151257465E+01  0.10147170030E+01 0.  0.
     999903    2    3    3    0    0 -0.12999116132E-01  0.70921960796E-01 -0.10001845932E+00  0.12491242028E+00  0.20012970602E-01 0.  0.
         14    1    1    2    0    0 -0.11766392064E-01 -0.16541471307E-01 -0.20435673794E-01  0.28804253482E-01  0.00000000000E+00 0. -1.
     999901    1    3    3    0    0  0.24765508197E-01 -0.54380489488E-01  0.12045413311E+00  0.89021332624E+00  0.88000000000E+00 0. -1.
        -11    1    4    4    0    0 -0.80960529591E-03  0.37803407155E-01 -0.38350966236E-01  0.53859175500E-01  0.51100000000E-03 0.  1.
         11    1    4    4    0    0 -0.12189510836E-01  0.33118553640E-01 -0.61667493080E-01  0.71053244777E-01  0.51100000000E-03 0. -1.
</event>
<event>
 8    1  0.1042301E+005  0.1043930E+01  0.7957747E-01            NaN
         13   -1    0    0    0    0  0.00000000000E+00  0.00000000000E+00  0.74505805969E-08  0.10566000000E+00  0.10566000000E+00 0.  1.
     999900   -1    0    0    0    0 -0.00000000000E+00 -0.00000000000E+00 -0.74505805969E-08  0.93827000000E+00  0.93827000000E+00 0. -1.
     999902    2    1    2    0    0 -0.14600745657E-01  0.16343554193E-01  0.79689031868E-02  0.10206105456E+01  0.10203441031E+01 0.  0.
     999903    2    3    3    0    0  0.10628256314E+00 -0.68821589584E-01  0.57638377260E-02  0.12827051039E+00  0.19690291765E-01 0.  0.
         14    1    1    2    0    0  0.14600745657E-01 -0.16343554193E-01 -0.79689031868E-02  0.23319454440E-01  0.00000000000E+00 0. -1.
     999901    1    3    3    0    0 -0.12088330879E+00  0.85165143778E-01  0.22050654608E-02  0.89234003517E+00  0.88000000000E+00 0.  1.
        -11    1    4    4    0    0  0.73632354133E-01 -0.56689660954E-01 -0.19963514714E-03  0.92928694220E-01  0.51100000000E-03 0.  1.
         11    1    4    4    0    0  0.32650209003E-01 -0.12131928631E-01  0.59634728732E-02  0.35341816167E-01  0.51100000000E-03 0. -1.
</event>
<event>
 8    1  0.1042301E+005  0.1043930E+01  0.7957747E-01            NaN
         13   -1    0    0    0    0  0.00000000000E+00  0.00000000000E+00  0.74505805969E-08  0.10566000000E+00  0.10566000000E+00 0. -1.
     999900   -1    0    0    0    0 -0.00000000000E+00 -0.00000000000E+00 -0.74505805969E-08  0.93827000000E+00  0.93827000000E+00 0.  1.
     999902    2    1    2    0    0  0.19871556627E-01  0.91747149260E-02  0.10635974085E-01  0.10195952902E+01  0.10193048502E+01 0.  0.
     999903    2    3    3    0    0  0.10291747218E+00 -0.75479322802E-01  0.30002522993E-01  0.13142976879E+00  0.91923058007E-02 0.  0.
         14    1    1    2    0    0 -0.19871556627E-01 -0.91747149260E-02 -0.10635974085E-01  0.24334709809E-01  0.00000000000E+00 0.  1.
     999901    1    3    3    0    0 -0.83045915557E-01  0.84654037728E-01 -0.19366548908E-01  0.88816552140E+00  0.88000000000E+00 0. -1.
        -11    1    4    4    0    0  0.41580911926E-01 -0.36094424128E-01  0.13174278847E-01  0.56618039827E-01  0.51100000000E-03 0.  1.
         11    1    4    4    0    0  0.61336560258E-01 -0.39384898673E-01  0.16828244146E-01  0.74811728959E-01  0.51100000000E-03 0. -1.
</event>
<event>
 8    1  0.1042301E+005  0.1043930E+01  0.7957747E-01            NaN
         13   -1    0    0    0    0  0.00000000000E+00  0.00000000000E+00  0.74505805969E-08  0.10566000000E+00  0.10566000000E+00 0.  1.
     999900   -1    0    0    0    0 -0.00000000000E+00 -0.00000000000E+00 -0.74505805969E-08  0.93827000000E+00  0.93827000000E+00 0. -1.
     999902    2    1    2    0    0  0.14004803774E-01 -0.29574649623E-02 -0.16603993932E-01  0.10220080078E+01  0.10217728682E+01 0.  0.
     999903    2    3    3    0    0 -0.72049223521E-01  0.95365764812E-01 -0.51395760596E-01  0.13168041631E+00  0.20309803661E-01 0.  0.
         14    1    1    2    0    0 -0.14004803774E-01  0.29574649623E-02  0.16603993932E-01  0.21921992205E-01  0.00000000000E+00 0.  1.
     999901    1    3    3    0    0  0.86054027295E-01 -0.98323229774E-01  0.34791766665E-01  0.89032759148E+00  0.88000000000E+00 0.  1.
        -11    1    4    4    0    0 -0.44606343834E-01  0.61393588886E-01 -0.42938246597E-01  0.87194339314E-01  0.51100000000E-03 0.  1.
         11    1    4    4    0    0 -0.27442879687E-01  0.33972175926E-01 -0.84575139991E-02  0.44486076999E-01  0.51100000000E-03 0. -1.
</event>
<event>
 8    1  0.1042301E+005  0.1043930E+01  0.7957747E-01            NaN
         13   -1    0    0    0    0  0.00000000000E+00  0.00000000000E+00  0.74505805969E-08  0.10566000000E+00  0.10566000000E+00 0.  1.
     999900   -1    0    0    0    0 -0.00000000000E+00 -0.00000000000E+00 -0.74505805969E-08  0.93827000000E+00  0.93827000000E+00 0.  1.
     999902    2    1    2    0    0  0.10330522956E-01  0.11073505113E-01 -0.22576383629E-01  0.10167447960E+01  0.10163812989E+01 0.  0.
     999903    2    3    3    0    0 -0.70276177410E-01  0.83937565740E-01  0.59573391078E-01  0.12626447786E+00  0.20235448849E-01 0.  0.
         14    1    1    2    0    0 -0.10330522956E-01 -0.11073505113E-01  0.22576383629E-01  0.27185204024E-01  0.00000000000E+00 0.  1.
     999901    1    3    3    0    0  0.80606700366E-01 -0.72864060626E-01 -0.82149774707E-01  0.89048031812E+00  0.88000000000E+00 0.  1.
        -11    1    4    4    0    0 -0.47084538083E-01  0.46435297276E-01  0.26953628152E-01  0.71413932472E-01  0.51100000000E-03 0.  1.
         11    1    4    4    0    0 -0.23191639328E-01  0.37502268463E-01  0.32619762925E-01  0.54850545384E-01  0.51100000000E-03 0. -1.
</event>
<event>
 8    1  0.1042301E+005  0.1043930E+01  0.7957747E-01            NaN
         13   -1    0    0    0    0  0.00000000000E+00  0.00000000000E+00  0.74505805969E-08  0.10566000000E+00  0.10566000000E+00 0. -1.
     999900   -1    0    0    0    0 -0.00000000000E+00 -0.00000000000E+00 -0.74505805969E-08  0.93827000000E+00  0.93827000000E+00 0. -1.
     999902    2    1    2    0    0 -0.11913409910E-01  0.18204576513E-01 -0.92720515260E-02  0.10202803302E+01  0.10200061987E+01 0.  0.
     999903    2    3    3    0    0 -0.99468686903E-01  0.12055241164E-01  0.82273608554E-01  0.13118846278E+00  0.20052869810E-01 0.  0.
         14    1    1    2    0    0  0.11913409910E-01 -0.18204576513E-01  0.92720515260E-02  0.23649669791E-01  0.00000000000E+00 0. -1.
     999901    1    3    3    0    0  0.87555276992E-01  0.61493353488E-02 -0.91545660080E-01  0.88909186743E+00  0.88000000000E+00 0. -1.
        -11    1    4    4    0    0 -0.14380051920E-01  0.20008198068E-02  0.22253237741E-01  0.26575494051E-01  0.51100000000E-03 0.  1.
         11    1    4    4    0    0 -0.85088634983E-01  0.10054421357E-01  0.60020370813E-01  0.10461296873E+00  0.51100000000E-03 0. -1.
</event>
<event>
 8    1  0.1042301E+005  0.1043930E+01  0.7957747E-01            NaN
         13   -1    0    0    0    0  0.00000000000E+00  0.00000000000E+00  0.74505805969E-08  0.10566000000E+00  0.10566000000E+00 0.  1.
     999900   -1    0    0    0    0 -0.00000000000E+00 -0.00000000000E+00 -0.74505805969E-08  0.93827000000E+00  0.93827000000E+00 0. -1.
     999902    2    1    2    0    0 -0.64327321569E-02 -0.17426807604E-02  0.22320169353E-01  0.10206360751E+01  0.10203702224E+01 0.  0.
     999903    2    3    3    0    0 -0.10716652481E+00 -0.36825636562E-01  0.66911088937E-01  0.13307398659E+00  0.19768675670E-01 0.  0.
         14    1    1    2    0    0  0.64327321569E-02  0.17426807604E-02 -0.22320169353E-01  0.23293924942E-01  0.00000000000E+00 0. -1.
     999901    1    3    3    0    0  0.10073379265E+00  0.35082955801E-01 -0.44590919583E-01  0.88756208846E+00  0.88000000000E+00 0. -1.
        -11    1    4    4    0    0 -0.92828156784E-01 -0.33357332576E-01  0.49875986288E-01  0.11053349473E+00  0.51100000000E-03 0. -1.
         11    1    4    4    0    0 -0.14338368024E-01 -0.34683039857E-02  0.17035102649E-01  0.22540491862E-01  0.51100000000E-03 0.  1.
</event>
<event>
 8    1  0.1042301E+005  0.1043930E+01  0.7957747E-01            NaN
         13   -1    0    0    0    0  0.00000000000E+00  0.00000000000E+00  0.74505805969E-08  0.10566000000E+00  0.10566000000E+00 0. -1.
     999900   -1    0    0    0    0 -0.00000000000E+00 -0.00000000000E+00 -0.74505805969E-08  0.93827000000E+00  0.93827000000E+00 0.  1.
     999902    2    1    2    0    0  0.21279060657E-01  0.38478803904E-02  0.92147244087E-02  0.10204243464E+01  0.10201535820E+01 0.  0.
     999903    2    3    3    0    0  0.63466484862E-02 -0.10637620345E+00  0.73708736373E-01  0.13108087889E+00  0.19825296628E-01 0.  0.
         14    1    1    2    0    0 -0.21279060657E-01 -0.38478803904E-02 -0.92147244087E-02  0.23505653615E-01  0.00000000000E+00 0.  1.
     999901    1    3    3    0    0  0.14932412170E-01  0.11022408384E+00 -0.64494011964E-01  0.88934346749E+00  0.88000000000E+00 0.  1.
        -11    1    4    4    0    0  0.34203598778E-02 -0.26286678632E-01  0.29064221660E-01  0.39340544441E-01  0.51100000000E-03 0.  1.
         11    1    4    4    0    0  0.29262886084E-02 -0.80089524817E-01  0.44644514714E-01  0.91740334453E-01  0.51100000000E-03 0. -1.
</event>
<event>
 8    1  0.1042301E+005  0.1043930E+01  0.7957747E-01            NaN
         13   -1    0    0    0    0  0.00000000000E+00  0.00000000000E+00  0.74505805969E-08  0.10566000000E+00  0.10566000000E+00 0. -1.
     999900   -1    0    0    0    0 -0.00000000000E+00 -0.00000000000E+00 -0.74505805969E-08  0.93827000000E+00  0.93827000000E+00 0. -1.
     999902    2    1    2    0    0  0.18398295318E-02 -0.12592786620E-01  0.20161352145E-01  0.10200879496E+01  0.10198092868E+01 0.  0.
     999903    2    3    3    0    0  0.87132476194E-01  0.53618187703E-01  0.79141237114E-01  0.13152880382E+00  0.23864458138E-01 0.  0.
         14    1    1    2    0    0 -0.18398295318E-02  0.12592786620E-01 -0.20161352145E-01  0.23842050412E-01  0.00000000000E+00 0.  1.
     999901    1    3    3    0    0 -0.85292646662E-01 -0.66210974323E-01 -0.58979884970E-01  0.88855914577E+00  0.88000000000E+00 0. -1.
        -11    1    4    4    0    0  0.78263170308E-01  0.55510561240E-01  0.72993526762E-01  0.12056061673E+00  0.51100000000E-03 0. -1.
         11    1    4    4    0    0  0.88693058858E-02 -0.18923735373E-02  0.61477103520E-02  0.10968187091E-01  0.51100000000E-03 0.  1.
</event>
<event>
 8    1  0.1042301E+005  0.1043930E+01  0.7957747E-01            NaN
         13   -1    0    0    0    0  0.00000000000E+00  0.00000000000E+00  0.74505805969E-08  0.10566000000E+00  0.10566000000E+00 0. -1.
     999900   -1    0    0    0    0 -0.00000000000E+00 -0.00000000000E+00 -0.74505805969E-08  0.93827000000E+00  0.93827000000E+00 0.  1.
     999902    2    1    2    0    0 -0.23352467940E-01 -0.24584618907E-02 -0.31846631027E-02  0.10202335051E+01  0.10199582741E+01 0.  0.
     999903    2    3    3    0    0 -0.93524793363E-01  0.51814130025E-01 -0.75647539759E-01  0.13280996582E+00  0.22007855551E-01 0.  0.
         14    1    1    2    0    0  0.23352467940E-01  0.24584618907E-02  0.31846631027E-02  0.23696494948E-01  0.00000000000E+00 0. -1.
     999901    1    3    3    0    0  0.70172325423E-01 -0.54272591915E-01  0.72462876656E-01  0.88742353923E+00  0.88000000000E+00 0. -1.
        -11    1    4    4    0    0 -0.82117674913E-02  0.12864736280E-01 -0.86276873103E-02  0.17539460488E-01  0.51100000000E-03 0. -1.
         11    1    4    4    0    0 -0.85313025872E-01  0.38949393745E-01 -0.67019852448E-01  0.11527050533E+00  0.51100000000E-03 0.  1.
</event>
<event>
 8    1  0.1042301E+005  0.1043930E+01  0.7957747E-01            NaN
         13   -1    0    0    0    0  0.00000000000E+00  0.00000000000E+00  0.74505805969E-08  0.10566000000E+00  0.10566000000E+00 0. -1.
     999900   -1    0    0    0    0 -0.00000000000E+00 -0.00000000000E+00 -0.74505805969E-08  0.93827000000E+00  0.93827000000E+00 0. -1.
     999902    2    1    2    0    0  0.17925288163E-01  0.14284672997E-01 -0.46235010795E-02  0.10205474296E+01  0.10202795261E+01 0.  0.
     999903    2    3    3    0    0  0.12435676880E+00  0.69871261862E-02 -0.43461304233E-01  0.13325419211E+00  0.18824687828E-01 0.  0.
         14    1    1    2    0    0 -0.17925288163E-01 -0.14284672997E-01  0.46235010795E-02  0.23382570444E-01  0.00000000000E+00 0. -1.
     999901    1    3    3    0    0 -0.10643148063E+00  0.72975468105E-02  0.38837803154E-01  0.88729323744E+00  0.88000000000E+00 0.  1.
        -11    1    4    4    0    0  0.18934357148E-01 -0.45430280641E-02 -0.10873983545E-01  0.22308151508E-01  0.51100000000E-03 0.  1.
         11    1    4    4    0    0  0.10542241165E+00  0.11530154250E-01 -0.32587320689E-01  0.11094604060E+00  0.51100000000E-03 0. -1.
</event>
<event>
 8    1  0.1042301E+005  0.1043930E+01  0.7957747E-01            NaN
         13   -1    0    0    0    0  0.00000000000E+00  0.00000000000E+00  0.74505805969E-08  0.10566000000E+00  0.10566000000E+00 0.  1.
     999900   -1    0    0    0    0 -0.00000000000E+00 -0.00000000000E+00 -0.74505805969E-08  0.93827000000E+00  0.93827000000E+00 0. -1.
     999902    2    1    2    0    0  0.19924933947E-01 -0.62363677636E-02  0.10867375798E-01  0.10203928988E+01  0.10201214010E+01 0.  0.
     999903    2    3    3    0    0 -0.10159686165E+00  0.61692263903E-01 -0.42627169790E-01  0.12784401376E+00  0.19978952084E-01 0.  0.
         14    1    1    2    0    0 -0.19924933947E-01  0.62363677636E-02 -0.10867375798E-01  0.23537101189E-01  0.00000000000E+00 0.  1.
     999901    1    3    3    0    0  0.12152179560E+00 -0.67928631667E-01  0.53494545587E-01  0.89254888505E+00  0.88000000000E+00 0. -1.
        -11    1    4    4    0    0 -0.10208341091E-01  0.13544819128E-01 -0.90223746148E-02  0.19218135126E-01  0.51100000000E-03 0. -1.
         11    1    4    4    0    0 -0.91388520559E-01  0.48147444775E-01 -0.33604795175E-01  0.10862587863E+00  0.51100000000E-03 0.  1.
</event>
<event>
 8    1  0.1042301E+005  0.1043930E+01  0.7957747E-01            NaN
         13   -1    0    0    0    0  0.00000000000E+00  0.00000000000E+00  0.74505805969E-08  0.10566000000E+00  0.10566000000E+00 0. -1.
     999900   -1    0    0    0    0 -0.00000000000E+00 -0.00000000000E+00 -0.74505805969E-08  0.93827000000E+00  0.93827000000E+00 0.  1.
     999902    2    1    2    0    0 -0.21389143995E-01  0.92867312172E-02  0.46079101450E-02  0.10201608668E+01  0.10198839260E+01 0.  0.
     999903    2    3    3    0    0 -0.84459472001E-01  0.42735256577E-02 -0.98960017686E-01  0.13183135913E+00  0.20850820560E-01 0.  0.
         14    1    1    2    0    0  0.21389143995E-01 -0.92867312172E-02 -0.46079101450E-02  0.23769133207E-01  0.00000000000E+00 0. -1.
     999901    1    3    3    0    0  0.63070328006E-01  0.50132055596E-02  0.10356792783E+00  0.88832950766E+00  0.88000000000E+00 0. -1.
        -11    1    4    4    0    0 -0.50690878350E-01 -0.10128551564E-02 -0.73121789021E-01  0.88981167525E-01  0.51100000000E-03 0. -1.
         11    1    4    4    0    0 -0.33768593650E-01  0.52863808141E-02 -0.25838228666E-01  0.42850191607E-01  0.51100000000E-03 0.  1.
</event>
<event>
 8    1  0.1042301E+005  0.1043930E+01  0.7957747E-01            NaN
         13   -1    0    0    0    0  0.00000000000E+00  0.00000000000E+00  0.74505805969E-08  0.10566000000E+00  0.10566000000E+00 0. -1.
     999900   -1    0    0    0    0 -0.00000000000E+00 -0.00000000000E+00 -0.74505805969E-08  0.93827000000E+00  0.93827000000E+00 0.  1.
     999902    2    1    2    0    0 -0.89247484710E-02  0.21783194138E-01 -0.40080665838E-03  0.10203860129E+01  0.10201143544E+01 0.  0.
     999903    2    3    3    0    0  0.94876164360E-01  0.10973081665E-01 -0.85937866471E-01  0.13010062235E+00  0.20468511385E-01 0.  0.
         14    1    1    2    0    0  0.89247484710E-02 -0.21783194138E-01  0.40080665838E-03  0.23543987090E-01  0.00000000000E+00 0. -1.
     999901    1    3    3    0    0 -0.10380091283E+00  0.10810112473E-01  0.85537059812E-01  0.89028539056E+00  0.88000000000E+00 0. -1.
        -11    1    4    4    0    0  0.83779712730E-01  0.51634550108E-02 -0.67053758799E-01  0.10743448805E+00  0.51100000000E-03 0.  1.
         11    1    4    4    0    0  0.11096451630E-01  0.58096266546E-02 -0.18884107672E-01  0.22666134302E-01  0.51100000000E-03 0. -1.
</event>
<event>
 8    1  0.1042301E+005  0.1043930E+01  0.7957747E-01            NaN
         13   -1    0    0    0    0  0.00000000000E+00  0.00000000000E+00  0.74505805969E-08  0.10566000000E+00  0.10566000000E+00 0.  1.
     999900   -1    0    0    0    0 -0.00000000000E+00 -0.00000000000E+00 -0.74505805969E-08  0.93827000000E+00  0.93827000000E+00 0. -1.
     999902    2    1    2    0    0 -0.59612557372E-02 -0.10718554114E-01 -0.20557822988E-01  0.10199915778E+01  0.10197106309E+01 0.  0.
     999903    2    3    3    0    0  0.12014260985E+00  0.36691166838E-01 -0.24804008048E-01  0.12972875331E+00  0.20828398712E-01 0.  0.
         14    1    1    2    0    0  0.59612557372E-02  0.10718554114E-01  0.20557822988E-01  0.23938422217E-01  0.00000000000E+00 0.  1.
     999901    1    3    3    0    0 -0.12610386559E+00 -0.47409720951E-01  0.42461850606E-02  0.89026282448E+00  0.88000000000E+00 0. -1.
        -11    1    4    4    0    0  0.69500643778E-01  0.23066255887E-01 -0.24699502483E-01  0.77283362959E-01  0.51100000000E-03 0. -1.
         11    1    4    4    0    0  0.50641966074E-01  0.13624910950E-01 -0.10450556545E-03  0.52445390347E-01  0.51100000000E-03 0.  1.
</event>
<event>
 8    1  0.1042301E+005  0.1043930E+01  0.7957747E-01            NaN
         13   -1    0    0    0    0  0.00000000000E+00  0.00000000000E+00  0.74505805969E-08  0.10566000000E+00  0.10566000000E+00 0.  1.
     999900   -1    0    0    0    0 -0.00000000000E+00 -0.00000000000E+00 -0.74505805969E-08  0.93827000000E+00  0.93827000000E+00 0.  1.
     999902    2    1    2    0    0 -0.11214743703E-01  0.92702483930E-02  0.19144429766E-01  0.10198838533E+01  0.10196003418E+01 0.  0.
     999903    2    3    3    0    0  0.39435732540E-01  0.94564645243E-01  0.80994943651E-01  0.13215298699E+00  0.20163877157E-01 0.  0.
         14    1    1    2    0    0  0.11214743703E-01 -0.92702483930E-02 -0.19144429766E-01  0.24046146732E-01  0.00000000000E+00 0.  1.
     999901    1    3    3    0    0 -0.50650476243E-01 -0.85294396850E-01 -0.61850513886E-01  0.88773086628E+00  0.88000000000E+00 0.  1.
        -11    1    4    4    0    0  0.24367010592E-01  0.73819114564E-01  0.52440381130E-01  0.93772424381E-01  0.51100000000E-03 0. -1.
         11    1    4    4    0    0  0.15068721948E-01  0.20745530679E-01  0.28554562521E-01  0.38380562608E-01  0.51100000000E-03 0.  1.
</event>
<event>
 8    1  0.1042301E+005  0.1043930E+01  0.7957747E-01            NaN
         13   -1    0    0    0    0  0.00000000000E+00  0.00000000000E+00  0.74505805969E-08  0.10566000000E+00  0.10566000000E+00 0.  1.
     999900   -1    0    0    0    0 -0.00000000000E+00 -0.00000000000E+00 -0.74505805969E-08  0.93827000000E+00  0.93827000000E+00 0.  1.
     999902    2    1    2    0    0 -0.60191004187E-02 -0.15580453787E-01  0.16092709717E-01  0.10207361341E+01  0.10204725866E+01 0.  0.
     999903    2    3    3    0    0  0.66985019233E-01 -0.13446054703E-01 -0.10741217536E+00  0.12911535495E+00  0.21578004535E-01 0.  0.
         14    1    1    2    0    0  0.60191004187E-02  0.15580453787E-01 -0.16092709717E-01  0.23193865915E-01  0.00000000000E+00 0.  1.
     999901    1    3    3    0    0 -0.73004119652E-01 -0.21343990840E-02  0.12350488508E+00  0.89162077913E+00  0.88000000000E+00 0. -1.
        -11    1    4    4    0    0  0.64425470839E-01 -0.14901961969E-01 -0.91325143347E-01  0.11275306068E+00  0.51100000000E-03 0. -1.
         11    1    4    4    0    0  0.25595483941E-02  0.14559072661E-02 -0.16087032014E-01  0.16362294275E-01  0.51100000000E-03 0.  1.
</event>
<event>
 8    1  0.1042301E+005  0.1043930E+01  0.7957747E-01            NaN
         13   -1    0    0    0    0  0.00000000000E+00  0.00000000000E+00  0.74505805969E-08  0.10566000000E+00  0.10566000000E+00 0.  1.
     999900   -1    0    0    0    0 -0.00000000000E+00 -0.00000000000E+00 -0.74505805969E-08  0.93827000000E+00  0.93827000000E+00 0.  1.
     999902    2    1    2    0    0 -0.21705065081E-01 -0.39266333876E-02 -0.62501387496E-02  0.10210041950E+01  0.10207467726E+01 0.  0.
     999903    2    3    3    0    0 -0.66884128865E-01  0.79265463967E-01 -0.80542508285E-01  0.13281422151E+00  0.19900284458E-01 0.  0.
         14    1    1    2    0    0  0.21705065081E-01  0.39266333876E-02  0.62501387496E-02  0.22925804988E-01  0.00000000000E+00 0.  1.
     999901    1    3    3    0    0  0.45179063784E-01 -0.83192097355E-01  0.74292369535E-01  0.88818997351E+00  0.88000000000E+00 0.  1.
        -11    1    4    4    0    0 -0.26574856443E-01  0.41882795054E-01 -0.29034689184E-01  0.57477524420E-01  0.51100000000E-03 0.  1.
         11    1    4    4    0    0 -0.40309272422E-01  0.37382668913E-01 -0.51507819100E-01  0.75336697085E-01  0.51100000000E-03 0. -1.
</event>
<event>
 8    1  0.1042301E+005  0.1043930E+01  0.7957747E-01            NaN
         13   -1    0    0    0    0  0.00000000000E+00  0.00000000000E+00  0.74505805969E-08  0.10566000000E+00  0.10566000000E+00 0.  1.
     999900   -1    0    0    0    0 -0.00000000000E+00 -0.00000000000E+00 -0.74505805969E-08  0.93827000000E+00  0.93827000000E+00 0. -1.
     999902    2    1    2    0    0  0.60706471978E-03 -0.13988714203E-01  0.20386310643E-01  0.10191983540E+01  0.10188982434E+01 0.  0.
     999903    2    3    3    0    0 -0.10503892520E+00 -0.37332389472E-01 -0.61352384011E-01  0.12881236097E+00  0.20040613882E-01 0.  0.
         14    1    1    2    0    0 -0.60706471978E-03  0.13988714203E-01 -0.20386310643E-01  0.24731646009E-01  0.00000000000E+00 0.  1.
     999901    1    3    3    0    0  0.10564598992E+00  0.23343675269E-01  0.81738694654E-01  0.89038599302E+00  0.88000000000E+00 0. -1.
        -11    1    4    4    0    0 -0.84049961938E-01 -0.37978345475E-01 -0.48923573511E-01  0.10440559369E+00  0.51100000000E-03 0. -1.
         11    1    4    4    0    0 -0.20988963261E-01  0.64595600299E-03 -0.12428810499E-01  0.24406767286E-01  0.51100000000E-03 0.  1.
</event>
<event>
 8    1  0.1042301E+005  0.1043930E+01  0.7957747E-01            NaN
         13   -1    0    0    0    0  0.00000000000E+00  0.00000000000E+00  0.74505805969E-08  0.10566000000E+00  0.10566000000E+00 0.  1.
     999900   -1    0    0    0    0 -0.00000000000E+00 -0.00000000000E+00 -0.74505805969E-08  0.93827000000E+00  0.93827000000E+00 0.  1.
     999902    2    1    2    0    0  0.86063826355E-02  0.54252700731E-02  0.20250947329E-01  0.10212671616E+01  0.10210156762E+01 0.  0.
     999903    2    3    3    0    0 -0.49686840380E-01 -0.11782219507E+00  0.19089540219E-01  0.13076764649E+00  0.19619252374E-01 0.  0.
         14    1    1    2    0    0 -0.86063826355E-02 -0.54252700731E-02 -0.20250947329E-01  0.22662838418E-01  0.00000000000E+00 0. -1.
     999901    1    3    3    0    0  0.58293223016E-01  0.12324746515E+00  0.11614071099E-02  0.89049951509E+00  0.88000000000E+00 0. -1.
        -11    1    4    4    0    0 -0.16158205196E-01 -0.22271756288E-01 -0.96441584431E-03  0.27537428025E-01  0.51100000000E-03 0. -1.
         11    1    4    4    0    0 -0.33528635184E-01 -0.95550438785E-01  0.20053956064E-01  0.10323021846E+00  0.51100000000E-03 0.  1.
</event>
<event>
 8    1  0.1042301E+005  0.1043930E+01  0.7957747E-01            NaN
         13   -1    0    0    0    0  0.00000000000E+00  0.00000000000E+00  0.74505805969E-08  0.10566000000E+00  0.10566000000E+00 0.  1.
     999900   -1    0    0    0    0 -0.00000000000E+00 -0.00000000000E+00 -0.74505805969E-08  0.93827000000E+00  0.93827000000E+00 0. -1.
     999902    2    1    2    0    0 -0.41834913527E-02  0.23455297910E-01  0.79994626727E-02  0.10187974712E+01  0.10184874292E+01 0.  0.
     999903    2    3    3    0    0 -0.11104036533E+00 -0.61079638965E-01 -0.49896065286E-02  0.12821717557E+00  0.18816559461E-01 0.  0.
         14    1    1    2    0    0  0.41834913527E-02 -0.23455297910E-01 -0.79994626727E-02  0.25132528782E-01  0.00000000000E+00 0. -1.
     999901    1    3    3    0    0  0.10685687398E+00  0.84534936875E-01  0.12989069201E-01  0.89058029564E+00  0.88000000000E+00 0. -1.
        -11    1    4    4    0    0 -0.10335081766E+00 -0.55676913460E-01 -0.95035944037E-02  0.11777898637E+00  0.51100000000E-03 0.  1.
         11    1    4    4    0    0 -0.76895476715E-02 -0.54027255042E-02  0.45139878750E-02  0.10438189201E-01  0.51100000000E-03 0. -1.
</event>
<event>
 8    1  0.1042301E+005  0.1043930E+01  0.7957747E-01            NaN
         13   -1    0    0    0    0  0.00000000000E+00  0.00000000000E+00  0.74505805969E-08  0.10566000000E+00  0.10566000000E+00 0.  1.
     999900   -1    0    0    0    0 -0.00000000000E+00 -0.00000000000E+00 -0.74505805969E-08  0.93827000000E+00  0.93827000000E+00 0.  1.
     999902    2    1    2    0    0 -0.21751932046E-01  0.77028247441E-02  0.67457336128E-02  0.10198886818E+01  0.10196052856E+01 0.  0.
     999903    2    3    3    0    0  0.43986168609E-01  0.19964448515E-01 -0.11748064180E+00  0.12865131860E+00  0.20398488784E-01 0.  0.
         14    1    1    2    0    0  0.21751932046E-01 -0.77028247441E-02 -0.67457336128E-02  0.24041318158E-01  0.00000000000E+00 0. -1.
     999901    1    3    3    0    0 -0.65738100655E-01 -0.12261623771E-01  0.12422637542E+00  0.89123736325E+00  0.88000000000E+00 0. -1.
        -11    1    4    4    0    0  0.89152993979E-02  0.13714292216E-01 -0.45103571673E-01  0.47980805255E-01  0.51100000000E-03 0.  1.
         11    1    4    4    0    0  0.35070869211E-01  0.62501562989E-02 -0.72377070132E-01  0.80670513342E-01  0.51100000000E-03 0. -1.
</event>
<event>
 8    1  0.1042301E+005  0.1043930E+01  0.7957747E-01            NaN
         13   -1    0    0    0    0  0.00000000000E+00  0.00000000000E+00  0.74505805969E-08  0.10566000000E+00  0.10566000000E+00 0.  1.
     999900   -1    0    0    0    0 -0.00000000000E+00 -0.00000000000E+00 -0.74505805969E-08  0.93827000000E+00  0.93827000000E+00 0. -1.
     999902    2    1    2    0    0  0.54016089143E-02 -0.21598909551E-01 -0.48503160843E-02  0.10211436919E+01  0.10208894277E+01 0.  0.
     999903    2    3    3    0    0 -0.46078821819E-02 -0.12175753385E+00 -0.52848060382E-01  0.13410608082E+00  0.18584773340E-01 0.  0.
         14    1    1    2    0    0 -0.54016089143E-02  0.21598909551E-01  0.48503160843E-02  0.22786308142E-01  0.00000000000E+00 0.  1.
     999901    1    3    3    0    0  0.10009491096E-01  0.10015862430E+00  0.47997744298E-01  0.88703761104E+00  0.88000000000E+00 0.  1.
        -11    1    4    4    0    0 -0.68550554825E-02 -0.65591885113E-01 -0.19623763577E-01  0.68808723257E-01  0.51100000000E-03 0. -1.
         11    1    4    4    0    0  0.22471733006E-02 -0.56165648736E-01 -0.33224296805E-01  0.65297357566E-01  0.51100000000E-03 0.  1.
</event>
<event>
 8    1  0.1042301E+005  0.1043930E+01  0.7957747E-01            NaN
         13   -1    0    0    0    0  0.00000000000E+00  0.00000000000E+00  0.74505805969E-08  0.10566000000E+00  0.10566000000E+00 0.  1.
     999900   -1    0    0    0    0 -0.00000000000E+00 -0.00000000000E+00 -0.74505805969E-08  0.93827000000E+00  0.93827000000E+00 0.  1.
     999902    2    1    2    0    0  0.49188347917E-02  0.15156658093E-01  0.17266980478E-01  0.10204338762E+01  0.10201633339E+01 0.  0.
     999903    2    3    3    0    0  0.31613035713E-01 -0.38659803421E-01  0.12087670288E+00  0.13232140217E+00  0.20095067718E-01 0.  0.
         14    1    1    2    0    0 -0.49188347917E-02 -0.15156658093E-01 -0.17266980478E-01  0.23496123831E-01  0.00000000000E+00 0. -1.
     999901    1    3    3    0    0 -0.26694200921E-01  0.53816461514E-01 -0.10360972240E+00  0.88811247400E+00  0.88000000000E+00 0.  1.
        -11    1    4    4    0    0  0.25087020468E-01 -0.37525508948E-01  0.89392610700E-01  0.10014400824E+00  0.51100000000E-03 0.  1.
         11    1    4    4    0    0  0.65260152441E-02 -0.11342944726E-02  0.31484092178E-01  0.32177393931E-01  0.51100000000E-03 0. -1.
</event>
<event>
 8    1  0.1284868E+005  0.1043930E+01  0.7957747E-01            NaN
         13   -1    0    0    0    0  0.00000000000E+00  0.00000000000E+00  0.74505805969E-08  0.10566000000E+00  0.10566000000E+00 0.  1.
     999900   -1    0    0    0    0 -0.00000000000E+00 -0.00000000000E+00 -0.74505805969E-08  0.93827000000E+00  0.93827000000E+00 0. -1.
     999902    2    1    2    0    0  0.86075135349E-02  0.21090506592E-01 -0.86688681341E-02  0.10195568994E+01  0.10192655312E+01 0.  0.
     999903    2    3    3    0    0  0.12701302905E+00 -0.12115123946E-01 -0.21358934796E-01  0.13091551066E+00  0.20089327010E-01 0.  0.
         14    1    1    2    0    0 -0.86075135349E-02 -0.21090506592E-01  0.86688681341E-02  0.24373100588E-01  0.00000000000E+00 0.  1.
     999901    1    3    3    0    0 -0.11840551552E+00  0.33205630538E-01  0.12690066662E-01  0.88864138875E+00  0.88000000000E+00 0.  1.
        -11    1    4    4    0    0  0.73895149550E-01 -0.12055335184E-01 -0.38070698413E-02  0.74970521775E-01  0.51100000000E-03 0.  1.
         11    1    4    4    0    0  0.53117879501E-01 -0.59788762680E-04 -0.17551864955E-01  0.55944988889E-01  0.51100000000E-03 0. -1.
</event>
<event>
 8    1  0.1042301E+005  0.1043930E+01  0.7957747E-01            NaN
         13   -1    0    0    0    0  0.00000000000E+00  0.00000000000E+00  0.74505805969E-08  0.10566000000E+00  0.10566000000E+00 0. -1.
     999900   -1    0    0    0    0 -0.00000000000E+00 -0.00000000000E+00 -0.74505805969E-08  0.93827000000E+00  0.93827000000E+00 0. -1.
     999902    2    1    2    0    0  0.13651589737E-03 -0.19707262288E-01 -0.16095826646E-01  0.10184845592E+01  0.10181666498E+01 0.  0.
     999903    2    3    3    0    0 -0.24640614941E-01 -0.45295276945E-02  0.12330064425E+00  0.12703874145E+00  0.17553245576E-01 0.  0.
         14    1    1    2    0    0 -0.13651589737E-03  0.19707262288E-01  0.16095826646E-01  0.25445440828E-01  0.00000000000E+00 0.  1.
     999901    1    3    3    0    0  0.24777130839E-01 -0.15177734594E-01 -0.13939647090E+00  0.89144581772E+00  0.88000000000E+00 0. -1.
        -11    1    4    4    0    0 -0.17252835588E-01  0.35539697732E-02  0.96269345434E-01  0.97868989104E-01  0.51100000000E-03 0. -1.
         11    1    4    4    0    0 -0.73877793533E-02 -0.80834974678E-02  0.27031298816E-01  0.29169752344E-01  0.51100000000E-03 0.  1.
</event>
<event>
 8    1  0.1042301E+005  0.1043930E+01  0.7957747E-01            NaN
         13   -1    0    0    0    0  0.00000000000E+00  0.00000000000E+00  0.74505805969E-08  0.10566000000E+00  0.10566000000E+00 0.  1.
     999900   -1    0    0    0    0 -0.00000000000E+00 -0.00000000000E+00 -0.74505805969E-08  0.93827000000E+00  0.93827000000E+00 0.  1.
     999902    2    1    2    0    0  0.65516286617E-02  0.24862893222E-02  0.22671250810E-01  0.10202004596E+01  0.10199244515E+01 0.  0.
     999903    2    3    3    0    0  0.64889583158E-01 -0.62820452773E-01 -0.89729896031E-01  0.12873968915E+00  0.19115073417E-01 0.  0.
         14    1    1    2    0    0 -0.65516286617E-02 -0.24862893222E-02 -0.22671250810E-01  0.23729540367E-01  0.00000000000E+00 0. -1.
     999901    1    3    3    0    0 -0.58337954497E-01  0.65306742096E-01  0.11240114684E+00  0.89146077048E+00  0.88000000000E+00 0. -1.
        -11    1    4    4    0    0  0.33447727592E-01 -0.20282789973E-01 -0.33082291687E-01  0.51233204023E-01  0.51100000000E-03 0. -1.
         11    1    4    4    0    0  0.31441855566E-01 -0.42537662800E-01 -0.56647604344E-01  0.77506485128E-01  0.51100000000E-03 0.  1.
</event>
<event>
 8    1  0.1042301E+005  0.1043930E+01  0.7957747E-01            NaN
         13   -1    0    0    0    0  0.00000000000E+00  0.00000000000E+00  0.74505805969E-08  0.10566000000E+00  0.10566000000E+00 0. -1.
     999900   -1    0    0    0    0 -0.00000000000E+00 -0.00000000000E+00 -0.74505805969E-08  0.93827000000E+00  0.93827000000E+00 0. -1.
     999902    2    1    2    0    0 -0.19876488717E-01  0.12725593036E-01 -0.50986125825E-02  0.10197843716E+01  0.10194984812E+01 0.  0.
     999903    2    3    3    0    0 -0.10453570005E+00 -0.35223461542E-01  0.68563937848E-01  0.13136303840E+00  0.19667980492E-01 0.  0.
         14    1    1    2    0    0  0.19876488717E-01 -0.12725593036E-01  0.50986125825E-02  0.24145628426E-01  0.00000000000E+00 0.  1.
     999901    1    3    3    0    0  0.84659211335E-01  0.47949054577E-01 -0.73662550430E-01  0.88842133317E+00  0.88000000000E+00 0. -1.
        -11    1    4    4    0    0 -0.34921076173E-01 -0.36227478296E-02  0.27361855493E-01  0.44514470904E-01  0.51100000000E-03 0. -1.
         11    1    4    4    0    0 -0.69614623879E-01 -0.31600713712E-01  0.41202082355E-01  0.86848567497E-01  0.51100000000E-03 0.  1.
</event>
<event>
 8    1  0.1042301E+005  0.1043930E+01  0.7957747E-01            NaN
         13   -1    0    0    0    0  0.00000000000E+00  0.00000000000E+00  0.74505805969E-08  0.10566000000E+00  0.10566000000E+00 0.  1.
     999900   -1    0    0    0    0 -0.00000000000E+00 -0.00000000000E+00 -0.74505805969E-08  0.93827000000E+00  0.93827000000E+00 0. -1.
     999902    2    1    2    0    0  0.56084975952E-02 -0.22646765651E-01  0.10510046853E-03  0.10205988559E+01  0.10203321431E+01 0.  0.
     999903    2    3    3    0    0  0.93844110902E-01 -0.16930891313E-01  0.88891480995E-01  0.13172247750E+00  0.18861162594E-01 0.  0.
         14    1    1    2    0    0 -0.56084975952E-02  0.22646765651E-01 -0.10510046853E-03  0.23331144118E-01  0.00000000000E+00 0. -1.
     999901    1    3    3    0    0 -0.88235613306E-01 -0.57158743375E-02 -0.88786380526E-01  0.88887637838E+00  0.88000000000E+00 0.  1.
        -11    1    4    4    0    0  0.14233917519E-01 -0.28184559954E-03  0.22966780990E-01  0.27026246409E-01  0.51100000000E-03 0.  1.
         11    1    4    4    0    0  0.79610193383E-01 -0.16649045714E-01  0.65924700004E-01  0.10469623109E+00  0.51100000000E-03 0. -1.
</event>
<event>
 8    1  0.1042301E+005  0.1043930E+01  0.7957747E-01            NaN
         13   -1    0    0    0    0  0.00000000000E+00  0.00000000000E+00  0.74505805969E-08  0.10566000000E+00  0.10566000000E+00 0. -1.
     999900   -1    0    0    0    0 -0.00000000000E+00 -0.00000000000E+00 -0.74505805969E-08  0.93827000000E+00  0.93827000000E+00 0.  1.
     999902    2    1    2    0    0  0.12462197990E-01 -0.86411064942E-02  0.18508583407E-01  0.10200021342E+01  0.10197214380E+01 0.  0.
     999903    2    3    3    0    0 -0.11236709728E+00  0.49300135522E-01  0.34627760729E-01  0.12916019070E+00  0.20649579521E-01 0.  0.
         14    1    1    2    0    0 -0.12462197990E-01  0.86411064942E-02 -0.18508583407E-01  0.23927865762E-01  0.00000000000E+00 0.  1.
     999901    1    3    3    0    0  0.12482929527E+00 -0.57941242016E-01 -0.16119177322E-01  0.89084194354E+00  0.88000000000E+00 0. -1.
        -11    1    4    4    0    0 -0.35513347012E-01  0.13571544643E-01  0.11660916801E-02  0.38039525902E-01  0.51100000000E-03 0.  1.
         11    1    4    4    0    0 -0.76853750272E-01  0.35728590879E-01  0.33461669049E-01  0.91120664800E-01  0.51100000000E-03 0. -1.
</event>
<event>
 8    1  0.1042301E+005  0.1043930E+01  0.7957747E-01            NaN
         13   -1    0    0    0    0  0.00000000000E+00  0.00000000000E+00  0.74505805969E-08  0.10566000000E+00  0.10566000000E+00 0. -1.
     999900   -1    0    0    0    0 -0.00000000000E+00 -0.00000000000E+00 -0.74505805969E-08  0.93827000000E+00  0.93827000000E+00 0.  1.
     999902    2    1    2    0    0 -0.61505352157E-02 -0.56290417112E-03  0.23299011906E-01  0.10198262679E+01  0.10195413806E+01 0.  0.
     999903    2    3    3    0    0  0.76892570573E-01 -0.49292650326E-01 -0.86921526973E-01  0.12773921344E+00  0.20487118215E-01 0.  0.
         14    1    1    2    0    0  0.61505352157E-02  0.56290417112E-03 -0.23299011906E-01  0.24103732083E-01  0.00000000000E+00 0.  1.
     999901    1    3    3    0    0 -0.83043105789E-01  0.48729746155E-01  0.11022053888E+00  0.89208705448E+00  0.88000000000E+00 0. -1.
        -11    1    4    4    0    0  0.66575493832E-01 -0.40226293686E-01 -0.82289549331E-01  0.11323551622E+00  0.51100000000E-03 0.  1.
         11    1    4    4    0    0  0.10317076740E-01 -0.90663566397E-02 -0.46319776419E-02  0.14503697220E-01  0.51100000000E-03 0. -1.
</event>
<event>
 8    1  0.1042301E+005  0.1043930E+01  0.7957747E-01            NaN
         13   -1    0    0    0    0  0.00000000000E+00  0.00000000000E+00  0.74505805969E-08  0.10566000000E+00  0.10566000000E+00 0.  1.
     999900   -1    0    0    0    0 -0.00000000000E+00 -0.00000000000E+00 -0.74505805969E-08  0.93827000000E+00  0.93827000000E+00 0.  1.
     999902    2    1    2    0    0 -0.46333844639E-02 -0.14157841096E-01  0.19551009117E-01  0.10193504420E+01  0.10190540559E+01 0.  0.
     999903    2    3    3    0    0  0.12232582972E+00  0.35006165100E-01  0.62713036957E-02  0.12878203237E+00  0.18879682222E-01 0.  0.
         14    1    1    2    0    0  0.46333844639E-02  0.14157841096E-01 -0.19551009117E-01  0.24579558042E-01  0.00000000000E+00 0. -1.
     999901    1    3    3    0    0 -0.12695921418E+00 -0.49164006195E-01  0.13279705421E-01  0.89056840958E+00  0.88000000000E+00 0.  1.
        -11    1    4    4    0    0  0.54931246214E-01  0.16418525109E-01  0.12200038647E-01  0.58618357546E-01  0.51100000000E-03 0. -1.
         11    1    4    4    0    0  0.67394583506E-01  0.18587639990E-01 -0.59287349509E-02  0.70163674828E-01  0.51100000000E-03 0.  1.
</event>
<event>
 8    1  0.1042301E+005  0.1043930E+01  0.7957747E-01            NaN
         13   -1    0    0    0    0  0.00000000000E+00  0.00000000000E+00  0.74505805969E-08  0.10566000000E+00  0.10566000000E+00 0. -1.
     999900   -1    0    0    0    0 -0.00000000000E+00 -0.00000000000E+00 -0.74505805969E-08  0.93827000000E+00  0.93827000000E+00 0. -1.
     999902    2    1    2    0    0  0.10303075364E-03  0.56903531827E-03  0.23160983046E-01  0.10207617987E+01  0.10204988408E+01 0.  0.
     999903    2    3    3    0    0 -0.37407055608E-01  0.11499370868E+00 -0.43220233408E-01  0.13008425976E+00  0.20762591743E-01 0.  0.
         14    1    1    2    0    0 -0.10303075364E-03 -0.56903531827E-03 -0.23160983046E-01  0.23168201315E-01  0.00000000000E+00 0.  1.
     999901    1    3    3    0    0  0.37510086362E-01 -0.11442467336E+00  0.66381216454E-01  0.89067753893E+00  0.88000000000E+00 0.  1.
        -11    1    4    4    0    0 -0.12717947512E-01  0.32246299503E-01 -0.29214952796E-02  0.34790318714E-01  0.51100000000E-03 0.  1.
         11    1    4    4    0    0 -0.24689108097E-01  0.82747409175E-01 -0.40298738128E-01  0.95293941043E-01  0.51100000000E-03 0. -1.
</event>
<event>
 8    1  0.1042301E+005  0.1043930E+01  0.7957747E-01            NaN
         13   -1    0    0    0    0  0.00000000000E+00  0.00000000000E+00  0.74505805969E-08  0.10566000000E+00  0.10566000000E+00 0.  1.
     999900   -1    0    0    0    0 -0.00000000000E+00 -0.00000000000E+00 -0.74505805969E-08  0.93827000000E+00  0.93827000000E+00 0. -1.
     999902    2    1    2    0    0  0.22641504073E-02  0.17452988515E-01  0.11599767555E-01  0.10228518646E+01  0.10226346606E+01 0.  0.
     999903    2    3    3    0    0  0.92659325723E-01  0.65895786467E-01  0.69861179170E-01  0.13498228831E+00  0.20288629455E-01 0.  0.
         14    1    1    2    0    0 -0.22641504073E-02 -0.17452988515E-01 -0.11599767555E-01  0.21078135413E-01  0.00000000000E+00 0. -1.
     999901    1    3    3    0    0 -0.90395175315E-01 -0.48442797952E-01 -0.58261411615E-01  0.88786957628E+00  0.88000000000E+00 0. -1.
        -11    1    4    4    0    0  0.63279609915E-01  0.37371747151E-01  0.35959913511E-01  0.81818903787E-01  0.51100000000E-03 0. -1.
         11    1    4    4    0    0  0.29379715808E-01  0.28524039315E-01  0.33901265658E-01  0.53163384524E-01  0.51100000000E-03 0.  1.
</event>
<event>
 8    1  0.1042301E+005  0.1043930E+01  0.7957747E-01            NaN
         13   -1    0    0    0    0  0.00000000000E+00  0.00000000000E+00  0.74505805969E-08  0.10566000000E+00  0.10566000000E+00 0. -1.
     999900   -1    0    0    0    0 -0.00000000000E+00 -0.00000000000E+00 -0.74505805969E-08  0.93827000000E+00  0.93827000000E+00 0.  1.
     999902    2    1    2    0    0  0.12002164421E-01 -0.17906271443E-01  0.90344466222E-02  0.10205567731E+01  0.10202890862E+01 0.  0.
     999903    2    3    3    0    0  0.24542162048E-02  0.91745170579E-01 -0.87621610507E-01  0.12844859841E+00  0.19957362144E-01 0.  0.
         14    1    1    2    0    0 -0.12002164421E-01  0.17906271443E-01 -0.90344466222E-02  0.23373226854E-01  0.00000000000E+00 0.  1.
     999901    1    3    3    0    0  0.95479482165E-02 -0.10965144202E+00  0.96656057129E-01  0.89210817474E+00  0.88000000000E+00 0.  1.
        -11    1    4    4    0    0  0.20375194762E-02  0.33888752713E-01 -0.45997382288E-01  0.57171840485E-01  0.51100000000E-03 0.  1.
         11    1    4    4    0    0  0.41669672862E-03  0.57856417866E-01 -0.41624228219E-01  0.71276757925E-01  0.51100000000E-03 0. -1.
</event>
<event>
 8    1  0.1042301E+005  0.1043930E+01  0.7957747E-01            NaN
         13   -1    0    0    0    0  0.00000000000E+00  0.00000000000E+00  0.74505805969E-08  0.10566000000E+00  0.10566000000E+00 0. -1.
     999900   -1    0    0    0    0 -0.00000000000E+00 -0.00000000000E+00 -0.74505805969E-08  0.93827000000E+00  0.93827000000E+00 0.  1.
     999902    2    1    2    0    0  0.22084539150E-01 -0.57201465291E-02  0.84983591321E-02  0.10195852048E+01  0.10192945211E+01 0.  0.
     999903    2    3    3    0    0  0.60367573596E-01  0.11374190880E+00 -0.74808185711E-02  0.13054521272E+00  0.20115271761E-01 0.  0.
         14    1    1    2    0    0 -0.22084539150E-01  0.57201465291E-02 -0.84983591321E-02  0.24344795208E-01  0.00000000000E+00 0.  1.
     999901    1    3    3    0    0 -0.38283034446E-01 -0.11946205533E+00  0.15979177703E-01  0.88903999208E+00  0.88000000000E+00 0. -1.
        -11    1    4    4    0    0  0.44973978018E-01  0.75100888674E-01 -0.13297020959E-01  0.88543063341E-01  0.51100000000E-03 0.  1.
         11    1    4    4    0    0  0.15393595578E-01  0.38641020123E-01  0.58162023876E-02  0.42002149376E-01  0.51100000000E-03 0. -1.
</event>
<event>
 8    1  0.1042301E+005  0.1043930E+01  0.7957747E-01            NaN
         13   -1    0    0    0    0  0.00000000000E+00  0.00000000000E+00  0.74505805969E-08  0.10566000000E+00  0.10566000000E+00 0. -1.
     999900   -1    0    0    0    0 -0.00000000000E+00 -0.00000000000E+00 -0.74505805969E-08  0.93827000000E+00  0.93827000000E+00 0. -1.
     999902    2    1    2    0    0  0.10003579736E-01  0.14048544173E-01  0.16585078515E-01  0.10200030689E+01  0.10197223949E+01 0.  0.
     999903    2    3    3    0    0  0.93948249332E-01  0.63876994411E-01 -0.62101327166E-01  0.13111548749E+00  0.20691840329E-01 0.  0.
         14    1    1    2    0    0 -0.10003579736E-01 -0.14048544173E-01 -0.16585078515E-01  0.23926931067E-01  0.00000000000E+00 0.  1.
     999901    1    3    3    0    0 -0.83944669595E-01 -0.49828450238E-01  0.78686405681E-01  0.88888758144E+00  0.88000000000E+00 0. -1.
        -11    1    4    4    0    0  0.50469000252E-01  0.36951516227E-01 -0.45480681657E-01  0.77338787571E-01  0.51100000000E-03 0.  1.
         11    1    4    4    0    0  0.43479249080E-01  0.26925478184E-01 -0.16620645510E-01  0.53776699918E-01  0.51100000000E-03 0. -1.
</event>
<event>
 8    1  0.1042301E+005  0.1043930E+01  0.7957747E-01            NaN
         13   -1    0    0    0    0  0.00000000000E+00  0.00000000000E+00  0.74505805969E-08  0.10566000000E+00  0.10566000000E+00 0.  1.
     999900   -1    0    0    0    0 -0.00000000000E+00 -0.00000000000E+00 -0.74505805969E-08  0.93827000000E+00  0.93827000000E+00 0.  1.
     999902    2    1    2    0    0 -0.14921273533E-02  0.68357403718E-02 -0.22932282319E-01  0.10199541087E+01  0.10196722711E+01 0.  0.
     999903    2    3    3    0    0  0.14450213333E-01  0.11013137471E+00  0.63038652613E-01  0.12960858705E+00  0.22063221732E-01 0.  0.
         14    1    1    2    0    0  0.14921273533E-02 -0.68357403718E-02  0.22932282319E-01  0.23975891284E-01  0.00000000000E+00 0.  1.
     999901    1    3    3    0    0 -0.15942340686E-01 -0.10329563434E+00 -0.85970934932E-01  0.89034552167E+00  0.88000000000E+00 0. -1.
        -11    1    4    4    0    0 -0.15054726629E-02  0.68331063716E-01  0.41350820538E-01  0.79884618023E-01  0.51100000000E-03 0.  1.
         11    1    4    4    0    0  0.15955685996E-01  0.41800310991E-01  0.21687832075E-01  0.49723969026E-01  0.51100000000E-03 0. -1.
</event>
<event>
 8    1  0.1042301E+005  0.1043930E+01  0.7957747E-01            NaN
         13   -1    0    0    0    0  0.00000000000E+00  0.00000000000E+00  0.74505805969E-08  0.10566000000E+00  0.10566000000E+00 0. -1.
     999900   -1    0    0    0    0 -0.00000000000E+00 -0.00000000000E+00 -0.74505805969E-08  0.93827000000E+00  0.93827000000E+00 0. -1.
     999902    2    1    2    0    0 -0.11084202789E-01  0.89240679387E-03 -0.20107217579E-01  0.10209527038E+01  0.10206941105E+01 0.  0.
     999903    2    3    3    0    0  0.12323463656E+00 -0.30726629266E-01 -0.20223751229E-01  0.13019946771E+00  0.20297780289E-01 0.  0.
         14    1    1    2    0    0  0.11084202789E-01 -0.89240679387E-03  0.20107217579E-01  0.22977296188E-01  0.00000000000E+00 0.  1.
     999901    1    3    3    0    0 -0.13431883935E+00  0.31619036060E-01  0.11653365008E-03  0.89075323610E+00  0.88000000000E+00 0. -1.
        -11    1    4    4    0    0  0.30279450454E-01 -0.54178970681E-02 -0.13585438707E-01  0.33630700175E-01  0.51100000000E-03 0. -1.
         11    1    4    4    0    0  0.92955186104E-01 -0.25308732198E-01 -0.66383125228E-02  0.96568767535E-01  0.51100000000E-03 0.  1.
</event>
<event>
 8    1  0.1042301E+005  0.1043930E+01  0.7957747E-01            NaN
         13   -1    0    0    0    0  0.00000000000E+00  0.00000000000E+00  0.74505805969E-08  0.10566000000E+00  0.10566000000E+00 0. -1.
     999900   -1    0    0    0    0 -0.00000000000E+00 -0.00000000000E+00 -0.74505805969E-08  0.93827000000E+00  0.93827000000E+00 0.  1.
     999902    2    1    2    0    0  0.20603158901E-01 -0.10820209923E-01  0.12800216468E-02  0.10206232294E+01  0.10203570801E+01 0.  0.
     999903    2    3    3    0    0  0.38387001945E-01  0.83941193249E-01 -0.90204821905E-01  0.13064263120E+00  0.20270701758E-01 0.  0.
         14    1    1    2    0    0 -0.20603158901E-01  0.10820209923E-01 -0.12800216468E-02  0.23306770581E-01  0.00000000000E+00 0. -1.
     999901    1    3    3    0    0 -0.17783843044E-01 -0.94761403172E-01  0.91484843552E-01  0.88998059822E+00  0.88000000000E+00 0. -1.
        -11    1    4    4    0    0  0.38193967624E-01  0.75685590706E-01 -0.74363815875E-01  0.11277112235E+00  0.51100000000E-03 0.  1.
         11    1    4    4    0    0  0.19303432121E-03  0.82556025429E-02 -0.15841006030E-01  0.17871508852E-01  0.51100000000E-03 0. -1.
</event>
<event>
 8    1  0.1042301E+005  0.1043930E+01  0.7957747E-01            NaN
         13   -1    0    0    0    0  0.00000000000E+00  0.00000000000E+00  0.74505805969E-08  0.10566000000E+00  0.10566000000E+00 0. -1.
     999900   -1    0    0    0    0 -0.00000000000E+00 -0.00000000000E+00 -0.74505805969E-08  0.93827000000E+00  0.93827000000E+00 0. -1.
     999902    2    1    2    0    0 -0.37442695777E-02  0.12023341271E-01 -0.19138644009E-01  0.10210200025E+01  0.10207629390E+01 0.  0.
     999903    2    3    3    0    0  0.12880745176E+00 -0.43423030583E-02 -0.62853565153E-02  0.13084979400E+00  0.21724356354E-01 0.  0.
         14    1    1    2    0    0  0.37442695777E-02 -0.12023341271E-01  0.19138644009E-01  0.22909997479E-01  0.00000000000E+00 0. -1.
     999901    1    3    3    0    0 -0.13255172133E+00  0.16365644329E-01 -0.12853287494E-01  0.89017020852E+00  0.88000000000E+00 0. -1.
        -11    1    4    4    0    0  0.82874020773E-01  0.69473756397E-02 -0.77278555495E-02  0.83524548605E-01  0.51100000000E-03 0. -1.
         11    1    4    4    0    0  0.45933430983E-01 -0.11289678698E-01  0.14424990343E-02  0.47325245392E-01  0.51100000000E-03 0.  1.
</event>
<event>
 8    1  0.1042301E+005  0.1043930E+01  0.7957747E-01            NaN
         13   -1    0    0    0    0  0.00000000000E+00  0.00000000000E+00  0.74505805969E-08  0.10566000000E+00  0.10566000000E+00 0.  1.
     999900   -1    0    0    0    0 -0.00000000000E+00 -0.00000000000E+00 -0.74505805969E-08  0.93827000000E+00  0.93827000000E+00 0. -1.
     999902    2    1    2    0    0  0.21905605359E-01 -0.14080206482E-03 -0.16227307562E-01  0.10166682891E+01  0.10163027153E+01 0.  0.
     999903    2    3    3    0    0 -0.98349309269E-01 -0.60349577522E-01 -0.46659323520E-01  0.12593126351E+00  0.19155482682E-01 0.  0.
         14    1    1    2    0    0 -0.21905605359E-01  0.14080206482E-03  0.16227307562E-01  0.27261710916E-01  0.00000000000E+00 0.  1.
     999901    1    3    3    0    0  0.12025491463E+00  0.60208775458E-01  0.30432015957E-01  0.89073702557E+00  0.88000000000E+00 0.  1.
        -11    1    4    4    0    0 -0.65248636010E-01 -0.48603769785E-01 -0.27287763726E-01  0.85817213358E-01  0.51100000000E-03 0.  1.
         11    1    4    4    0    0 -0.33100673260E-01 -0.11745807737E-01 -0.19371559794E-01  0.40114050151E-01  0.51100000000E-03 0. -1.
</event>
<event>
 8    1  0.1042301E+005  0.1043930E+01  0.7957747E-01            NaN
         13   -1    0    0    0    0  0.00000000000E+00  0.00000000000E+00  0.74505805969E-08  0.10566000000E+00  0.10566000000E+00 0. -1.
     999900   -1    0    0    0    0 -0.00000000000E+00 -0.00000000000E+00 -0.74505805969E-08  0.93827000000E+00  0.93827000000E+00 0. -1.
     999902    2    1    2    0    0  0.22577968846E-01 -0.25345860750E-02  0.52197285242E-02  0.10206183212E+01  0.10203520584E+01 0.  0.
     999903    2    3    3    0    0 -0.33907505024E-02 -0.11465792408E+00  0.61270937892E-01  0.13135584284E+00  0.18501158732E-01 0.  0.
         14    1    1    2    0    0 -0.22577968846E-01  0.25345860750E-02 -0.52197285242E-02  0.23311678825E-01  0.00000000000E+00 0.  1.
     999901    1    3    3    0    0  0.25968719348E-01  0.11212333800E+00 -0.56051209368E-01  0.88926247834E+00  0.88000000000E+00 0. -1.
        -11    1    4    4    0    0 -0.98362443555E-02 -0.84235971646E-01  0.40727661396E-01  0.94082166992E-01  0.51100000000E-03 0. -1.
         11    1    4    4    0    0  0.64454938531E-02 -0.30421952431E-01  0.20543276496E-01  0.37273675844E-01  0.51100000000E-03 0.  1.
</event>
<event>
 8    1  0.1042301E+005  0.1043930E+01  0.7957747E-01            NaN
         13   -1    0    0    0    0  0.00000000000E+00  0.00000000000E+00  0.74505805969E-08  0.10566000000E+00  0.10566000000E+00 0. -1.
     999900   -1    0    0    0    0 -0.00000000000E+00 -0.00000000000E+00 -0.74505805969E-08  0.93827000000E+00  0.93827000000E+00 0.  1.
     999902    2    1    2    0    0 -0.47403506534E-02 -0.23228930911E-01  0.30587797358E-02  0.10200258102E+01  0.10197456758E+01 0.  0.
     999903    2    3    3    0    0  0.46694703541E-01  0.65473263476E-01 -0.97981226267E-01  0.12832926604E+00  0.20023392633E-01 0.  0.
         14    1    1    2    0    0  0.47403506534E-02  0.23228930911E-01 -0.30587797358E-02  0.23904189781E-01  0.00000000000E+00 0.  1.
     999901    1    3    3    0    0 -0.51435054194E-01 -0.88702194388E-01  0.10104000600E+00  0.89169654418E+00  0.88000000000E+00 0. -1.
        -11    1    4    4    0    0  0.11851355001E-01  0.14042433856E-01 -0.10938526124E-01  0.21390582945E-01  0.51100000000E-03 0.  1.
         11    1    4    4    0    0  0.34843348540E-01  0.51430829620E-01 -0.87042700142E-01  0.10693868309E+00  0.51100000000E-03 0. -1.
</event>
<event>
 8    1  0.1042301E+005  0.1043930E+01  0.7957747E-01            NaN
         13   -1    0    0    0    0  0.00000000000E+00  0.00000000000E+00  0.74505805969E-08  0.10566000000E+00  0.10566000000E+00 0. -1.
     999900   -1    0    0    0    0 -0.00000000000E+00 -0.00000000000E+00 -0.74505805969E-08  0.93827000000E+00  0.93827000000E+00 0.  1.
     999902    2    1    2    0    0  0.11027307400E-01  0.19953203337E-01  0.10010728066E-01  0.10190312750E+01  0.10187270453E+01 0.  0.
     999903    2    3    3    0    0  0.12735894326E+00  0.25615569297E-01 -0.37222296988E-02  0.13125106229E+00  0.18344714214E-01 0.  0.
         14    1    1    2    0    0 -0.11027307400E-01 -0.19953203337E-01 -0.10010728066E-01  0.24898725034E-01  0.00000000000E+00 0.  1.
     999901    1    3    3    0    0 -0.11633163586E+00 -0.56623659596E-02  0.13732957765E-01  0.88778021268E+00  0.88000000000E+00 0. -1.
        -11    1    4    4    0    0  0.84181664481E-01  0.19843943372E-01  0.57050195597E-02  0.86678388844E-01  0.51100000000E-03 0.  1.
         11    1    4    4    0    0  0.43177278779E-01  0.57716259248E-02 -0.94272492585E-02  0.44572673446E-01  0.51100000000E-03 0. -1.
</event>
<event>
 8    1  0.1042301E+005  0.1043930E+01  0.7957747E-01            NaN
         13   -1    0    0    0    0  0.00000000000E+00  0.00000000000E+00  0.74505805969E-08  0.10566000000E+00  0.10566000000E+00 0. -1.
     999900   -1    0    0    0    0 -0.00000000000E+00 -0.00000000000E+00 -0.74505805969E-08  0.93827000000E+00  0.93827000000E+00 0.  1.
     999902    2    1    2    0    0 -0.40953763300E-02  0.23601732138E-01  0.53612279499E-03  0.10199695890E+01  0.10196881196E+01 0.  0.
     999903    2    3    3    0    0 -0.74567693506E-01  0.10579577083E+00  0.23345171601E-01  0.13304092210E+00  0.20045046141E-01 0.  0.
         14    1    1    2    0    0  0.40953763300E-02 -0.23601732138E-01 -0.53612279499E-03  0.23960410991E-01  0.00000000000E+00 0.  1.
     999901    1    3    3    0    0  0.70472317176E-01 -0.82194038692E-01 -0.22809048806E-01  0.88692866691E+00  0.88000000000E+00 0.  1.
        -11    1    4    4    0    0 -0.49071114106E-01  0.53855864513E-01  0.88992928841E-02  0.73402226921E-01  0.51100000000E-03 0. -1.
         11    1    4    4    0    0 -0.25496579399E-01  0.51939906317E-01  0.14445878717E-01  0.59638695175E-01  0.51100000000E-03 0.  1.
</event>
<event>
 8    1  0.1042301E+005  0.1043930E+01  0.7957747E-01            NaN
         13   -1    0    0    0    0  0.00000000000E+00  0.00000000000E+00  0.74505805969E-08  0.10566000000E+00  0.10566000000E+00 0. -1.
     999900   -1    0    0    0    0 -0.00000000000E+00 -0.00000000000E+00 -0.74505805969E-08  0.93827000000E+00  0.93827000000E+00 0.  1.
     999902    2    1    2    0    0 -0.81414256118E-02  0.22392993151E-01 -0.31270905663E-02  0.10198986112E+01  0.10196154517E+01 0.  0.
     999903    2    3    3    0    0  0.12259955901E+00  0.33533005487E-01  0.18150500465E-01  0.12991544234E+00  0.19836006755E-01 0.  0.
         14    1    1    2    0    0  0.81414256118E-02 -0.22392993151E-01  0.31270905663E-02  0.24031388821E-01  0.00000000000E+00 0. -1.
     999901    1    3    3    0    0 -0.13074098463E+00 -0.11140012337E-01 -0.21277591031E-01  0.88998316884E+00  0.88000000000E+00 0. -1.
        -11    1    4    4    0    0  0.72952872994E-01  0.10373037329E-01  0.13684722618E-01  0.74948344449E-01  0.51100000000E-03 0.  1.
         11    1    4    4    0    0  0.49646686020E-01  0.23159968158E-01  0.44657778471E-02  0.54967097892E-01  0.51100000000E-03 0. -1.
</event>
<event>
 8    1  0.1042301E+005  0.1043930E+01  0.7957747E-01            NaN
         13   -1    0    0    0    0  0.00000000000E+00  0.00000000000E+00  0.74505805969E-08  0.10566000000E+00  0.10566000000E+00 0. -1.
     999900   -1    0    0    0    0 -0.00000000000E+00 -0.00000000000E+00 -0.74505805969E-08  0.93827000000E+00  0.93827000000E+00 0. -1.
     999902    2    1    2    0    0 -0.48424274784E-02 -0.14468888424E-01  0.32655666110E-02  0.10283267388E+01  0.10282083543E+01 0.  0.
     999903    2    3    3    0    0  0.29714764055E-01 -0.77482781163E-01 -0.10830570510E+00  0.13837556098E+00  0.23046074238E-01 0.  0.
         14    1    1    2    0    0  0.48424274784E-02  0.14468888424E-01 -0.32655666110E-02  0.15603261242E-01  0.00000000000E+00 0. -1.
     999901    1    3    3    0    0 -0.34557191533E-01  0.63013892740E-01  0.11157127171E+00  0.88995117778E+00  0.88000000000E+00 0.  1.
        -11    1    4    4    0    0  0.13451478441E-01 -0.18433314363E-01 -0.43998525860E-01  0.49566730269E-01  0.51100000000E-03 0. -1.
         11    1    4    4    0    0  0.16263285614E-01 -0.59049466800E-01 -0.64307179242E-01  0.88808830707E-01  0.51100000000E-03 0.  1.
</event>
<event>
 8    1  0.1042301E+005  0.1043930E+01  0.7957747E-01            NaN
         13   -1    0    0    0    0  0.00000000000E+00  0.00000000000E+00  0.74505805969E-08  0.10566000000E+00  0.10566000000E+00 0.  1.
     999900   -1    0    0    0    0 -0.00000000000E+00 -0.00000000000E+00 -0.74505805969E-08  0.93827000000E+00  0.93827000000E+00 0. -1.
     999902    2    1    2    0    0  0.10681099232E-01  0.16140536789E-01  0.13656482261E-01  0.10202424016E+01  0.10199673798E+01 0.  0.
     999903    2    3    3    0    0 -0.22912680962E-01  0.74163063922E-01 -0.10242687472E+00  0.13009044748E+00  0.20176938850E-01 0.  0.
         14    1    1    2    0    0 -0.10681099232E-01 -0.16140536789E-01 -0.13656482261E-01  0.23687598366E-01  0.00000000000E+00 0. -1.
     999901    1    3    3    0    0  0.33593780193E-01 -0.58022527134E-01  0.11608335698E+00  0.89015195416E+00  0.88000000000E+00 0.  1.
        -11    1    4    4    0    0 -0.57311479500E-02  0.46913316105E-01 -0.52203967720E-01  0.70421734227E-01  0.51100000000E-03 0.  1.
         11    1    4    4    0    0 -0.17181533012E-01  0.27249747817E-01 -0.50222906997E-01  0.59668713250E-01  0.51100000000E-03 0. -1.
</event>
<event>
 8    1  0.1042301E+005  0.1043930E+01  0.7957747E-01            NaN
         13   -1    0    0    0    0  0.00000000000E+00  0.00000000000E+00  0.74505805969E-08  0.10566000000E+00  0.10566000000E+00 0. -1.
     999900   -1    0    0    0    0 -0.00000000000E+00 -0.00000000000E+00 -0.74505805969E-08  0.93827000000E+00  0.93827000000E+00 0.  1.
     999902    2    1    2    0    0  0.27228619415E-02  0.17188522090E-01  0.14748417522E-01  0.10211182686E+01  0.10208634304E+01 0.  0.
     999903    2    3    3    0    0  0.16034721915E-01 -0.10436683208E+00 -0.71192793895E-01  0.12851600470E+00  0.17274305111E-01 0.  0.
         14    1    1    2    0    0 -0.27228619415E-02 -0.17188522090E-01 -0.14748417522E-01  0.22811731372E-01  0.00000000000E+00 0.  1.
     999901    1    3    3    0    0 -0.13311859974E-01  0.12155535417E+00  0.85941211417E-01  0.89260226392E+00  0.88000000000E+00 0. -1.
        -11    1    4    4    0    0  0.12621777379E-02 -0.70989219424E-02 -0.27077951415E-03  0.72334105325E-02  0.51100000000E-03 0.  1.
         11    1    4    4    0    0  0.14772544177E-01 -0.97267910138E-01 -0.70922014381E-01  0.12128259417E+00  0.51100000000E-03 0. -1.
</event>
<event>
 8    1  0.1042301E+005  0.1043930E+01  0.7957747E-01            NaN
         13   -1    0    0    0    0  0.00000000000E+00  0.00000000000E+00  0.74505805969E-08  0.10566000000E+00  0.10566000000E+00 0.  1.
     999900   -1    0    0    0    0 -0.00000000000E+00 -0.00000000000E+00 -0.74505805969E-08  0.93827000000E+00  0.93827000000E+00 0.  1.
     999902    2    1    2    0    0  0.19307289772E-01 -0.58559325414E-02  0.14191834853E-01  0.10192627837E+01  0.10189642539E+01 0.  0.
     999903    2    3    3    0    0 -0.20105454274E-01 -0.40946506752E-01 -0.11728152223E+00  0.12793234192E+00  0.23040897236E-01 0.  0.
         14    1    1    2    0    0 -0.19307289772E-01  0.58559325414E-02 -0.14191834853E-01  0.24667216316E-01  0.00000000000E+00 0.  1.
     999901    1    3    3    0    0  0.39412744046E-01  0.35090574210E-01  0.13147335708E+00  0.89133044176E+00  0.88000000000E+00 0. -1.
        -11    1    4    4    0    0  0.21646282436E-03 -0.25588554691E-01 -0.56479933399E-01  0.62008587995E-01  0.51100000000E-03 0.  1.
         11    1    4    4    0    0 -0.20321917098E-01 -0.15357952061E-01 -0.60801588833E-01  0.65923753925E-01  0.51100000000E-03 0. -1.
</event>
<event>
 8    1  0.1042301E+005  0.1043930E+01  0.7957747E-01            NaN
         13   -1    0    0    0    0  0.00000000000E+00  0.00000000000E+00  0.74505805969E-08  0.10566000000E+00  0.10566000000E+00 0. -1.
     999900   -1    0    0    0    0 -0.00000000000E+00 -0.00000000000E+00 -0.74505805969E-08  0.93827000000E+00  0.93827000000E+00 0.  1.
     999902    2    1    2    0    0 -0.47920929105E-02  0.15099097631E-01 -0.16335288197E-01  0.10211750325E+01  0.10209214752E+01 0.  0.
     999903    2    3    3    0    0  0.45414739628E-01  0.11966071715E+00  0.27800989247E-01  0.13246705502E+00  0.19835318510E-01 0.  0.
         14    1    1    2    0    0  0.47920929105E-02 -0.15099097631E-01  0.16335288197E-01  0.22754967462E-01  0.00000000000E+00 0.  1.
     999901    1    3    3    0    0 -0.50206832539E-01 -0.10456161951E+00 -0.44136277444E-01  0.88870797751E+00  0.88000000000E+00 0. -1.
        -11    1    4    4    0    0  0.38534319884E-01  0.10745540731E+00  0.30562411875E-01  0.11817732654E+00  0.51100000000E-03 0. -1.
         11    1    4    4    0    0  0.68804197439E-02  0.12205309839E-01 -0.27614226282E-02  0.14289728481E-01  0.51100000000E-03 0.  1.
</event>
<event>
 8    1  0.1042301E+005  0.1043930E+01  0.7957747E-01            NaN
         13   -1    0    0    0    0  0.00000000000E+00  0.00000000000E+00  0.74505805969E-08  0.10566000000E+00  0.10566000000E+00 0. -1.
     999900   -1    0    0    0    0 -0.00000000000E+00 -0.00000000000E+00 -0.74505805969E-08  0.93827000000E+00  0.93827000000E+00 0. -1.
     999902    2    1    2    0    0  0.56142186865E-02 -0.17899644050E-01  0.34426597950E-02  0.10248572809E+01  0.10246797927E+01 0.  0.
     999903    2    3    3    0    0 -0.86047930362E-01  0.32445499738E-01 -0.94829558958E-01  0.13323291375E+00  0.17361085219E-01 0.  0.
         14    1    1    2    0    0 -0.56142186865E-02  0.17899644050E-01 -0.34426597950E-02  0.19072719130E-01  0.00000000000E+00 0. -1.
     999901    1    3    3    0    0  0.91662149048E-01 -0.50345143788E-01  0.98272218753E-01  0.89162436712E+00  0.88000000000E+00 0.  1.
        -11    1    4    4    0    0 -0.74931152258E-01  0.25303872338E-01 -0.72552385597E-01  0.10732694588E+00  0.51100000000E-03 0. -1.
         11    1    4    4    0    0 -0.11116778104E-01  0.71416273998E-02 -0.22277173361E-01  0.25905967870E-01  0.51100000000E-03 0.  1.
</event>
<event>
 8    1  0.1042301E+005  0.1043930E+01  0.7957747E-01            NaN
         13   -1    0    0    0    0  0.00000000000E+00  0.00000000000E+00  0.74505805969E-08  0.10566000000E+00  0.10566000000E+00 0. -1.
     999900   -1    0    0    0    0 -0.00000000000E+00 -0.00000000000E+00 -0.74505805969E-08  0.93827000000E+00  0.93827000000E+00 0. -1.
     999902    2    1    2    0    0 -0.24534224490E-01 -0.20419006172E-02 -0.17759515960E-02  0.10192469788E+01  0.10189480617E+01 0.  0.
     999903    2    3    3    0    0  0.78103602097E-01  0.30284194995E-01 -0.94463771948E-01  0.12786012009E+00  0.20186653338E-01 0.  0.
         14    1    1    2    0    0  0.24534224490E-01  0.20419006172E-02  0.17759515960E-02  0.24683021159E-01  0.00000000000E+00 0.  1.
     999901    1    3    3    0    0 -0.10263782659E+00 -0.32326095612E-01  0.92687820352E-01  0.89138685875E+00  0.88000000000E+00 0.  1.
        -11    1    4    4    0    0  0.74296471925E-02  0.88330274169E-02 -0.19208961283E-01  0.22415783398E-01  0.51100000000E-03 0.  1.
         11    1    4    4    0    0  0.70673954904E-01  0.21451167578E-01 -0.75254810665E-01  0.10544433670E+00  0.51100000000E-03 0. -1.
</event>
<event>
 8    1  0.1042301E+005  0.1043930E+01  0.7957747E-01            NaN
         13   -1    0    0    0    0  0.00000000000E+00  0.00000000000E+00  0.74505805969E-08  0.10566000000E+00  0.10566000000E+00 0. -1.
     999900   -1    0    0    0    0 -0.00000000000E+00 -0.00000000000E+00 -0.74505805969E-08  0.93827000000E+00  0.93827000000E+00 0. -1.
     999902    2    1    2    0    0 -0.13025264815E-01 -0.13332418629E-01  0.15160385717E-01  0.10199040098E+01  0.10196209791E+01 0.  0.
     999903    2    3    3    0    0  0.12607662776E-01 -0.13014341712E+00 -0.94885364412E-02  0.13147313139E+00  0.99443337967E-02 0.  0.
         14    1    1    2    0    0  0.13025264815E-01  0.13332418629E-01 -0.15160385717E-01  0.24025990200E-01  0.00000000000E+00 0.  1.
     999901    1    3    3    0    0 -0.25632927591E-01  0.11681099849E+00  0.24648922159E-01  0.88843087841E+00  0.88000000000E+00 0. -1.
        -11    1    4    4    0    0  0.98466639605E-03 -0.13042078726E-01  0.19786300366E-02  0.13237880617E-01  0.51100000000E-03 0. -1.
         11    1    4    4    0    0  0.11622996380E-01 -0.11710133839E+00 -0.11467166478E-01  0.11823525078E+00  0.51100000000E-03 0.  1.
</event>
<event>
 8    1  0.1042301E+005  0.1043930E+01  0.7957747E-01            NaN
         13   -1    0    0    0    0  0.00000000000E+00  0.00000000000E+00  0.74505805969E-08  0.10566000000E+00  0.10566000000E+00 0.  1.
     999900   -1    0    0    0    0 -0.00000000000E+00 -0.00000000000E+00 -0.74505805969E-08  0.93827000000E+00  0.93827000000E+00 0.  1.
     999902    2    1    2    0    0 -0.21809159423E-01  0.82585355395E-02 -0.10833549537E-02  0.10205844115E+01  0.10203173646E+01 0.  0.
     999903    2    3    3    0    0  0.12471471096E+00 -0.17289346334E-01 -0.10691357255E-01  0.12805191766E+00  0.20743863443E-01 0.  0.
         14    1    1    2    0    0  0.21809159423E-01 -0.82585355395E-02  0.10833549537E-02  0.23345588490E-01  0.00000000000E+00 0.  1.
     999901    1    3    3    0    0 -0.14652387039E+00  0.25547881874E-01  0.96080023015E-02  0.89253249385E+00  0.88000000000E+00 0.  1.
        -11    1    4    4    0    0  0.96837554911E-01 -0.21874974448E-01 -0.10075489791E-01  0.99788792776E-01  0.51100000000E-03 0.  1.
         11    1    4    4    0    0  0.27877156052E-01  0.45856281142E-02 -0.61586746410E-03  0.28263124889E-01  0.51100000000E-03 0. -1.
</event>
<event>
 8    1  0.1042301E+005  0.1043930E+01  0.7957747E-01            NaN
         13   -1    0    0    0    0  0.00000000000E+00  0.00000000000E+00  0.74505805969E-08  0.10566000000E+00  0.10566000000E+00 0. -1.
     999900   -1    0    0    0    0 -0.00000000000E+00 -0.00000000000E+00 -0.74505805969E-08  0.93827000000E+00  0.93827000000E+00 0.  1.
     999902    2    1    2    0    0  0.90854273863E-02  0.21171988472E-01 -0.20189077398E-02  0.10208026553E+01  0.10205406346E+01 0.  0.
     999903    2    3    3    0    0 -0.92330034843E-01  0.91290633760E-01 -0.14671732465E-01  0.13211721351E+00  0.19516229783E-01 0.  0.
         14    1    1    2    0    0 -0.90854273863E-02 -0.21171988472E-01  0.20189077398E-02  0.23127344748E-01  0.00000000000E+00 0. -1.
     999901    1    3    3    0    0  0.10141546223E+00 -0.70118645288E-01  0.12652824726E-01  0.88868544175E+00  0.88000000000E+00 0.  1.
        -11    1    4    4    0    0 -0.52758152119E-01  0.38972227875E-01 -0.99901166752E-02  0.66349986531E-01  0.51100000000E-03 0.  1.
         11    1    4    4    0    0 -0.39571882724E-01  0.52318405885E-01 -0.46816157901E-02  0.65767226975E-01  0.51100000000E-03 0. -1.
</event>
<event>
 8    1  0.1042301E+005  0.1043930E+01  0.7957747E-01            NaN
         13   -1    0    0    0    0  0.00000000000E+00  0.00000000000E+00  0.74505805969E-08  0.10566000000E+00  0.10566000000E+00 0. -1.
     999900   -1    0    0    0    0 -0.00000000000E+00 -0.00000000000E+00 -0.74505805969E-08  0.93827000000E+00  0.93827000000E+00 0. -1.
     999902    2    1    2    0    0  0.11334931136E-01  0.15085384860E-01 -0.13276700481E-01  0.10208579330E+01  0.10205971777E+01 0.  0.
     999903    2    3    3    0    0  0.81601809908E-01  0.67492848159E-01 -0.78823219558E-01  0.13407705666E+00  0.23439651221E-01 0.  0.
         14    1    1    2    0    0 -0.11334931136E-01 -0.15085384860E-01  0.13276700481E-01  0.23072067005E-01  0.00000000000E+00 0. -1.
     999901    1    3    3    0    0 -0.70266878772E-01 -0.52407463299E-01  0.65546519078E-01  0.88678087633E+00  0.88000000000E+00 0.  1.
        -11    1    4    4    0    0  0.18441041253E-01  0.14215770428E-01 -0.62839156922E-02  0.24122786920E-01  0.51100000000E-03 0. -1.
         11    1    4    4    0    0  0.63160768655E-01  0.53277077731E-01 -0.72539303866E-01  0.10995426974E+00  0.51100000000E-03 0.  1.
</event>
<event>
 8    1  0.1042301E+005  0.1043930E+01  0.7957747E-01            NaN
         13   -1    0    0    0    0  0.00000000000E+00  0.00000000000E+00  0.74505805969E-08  0.10566000000E+00  0.10566000000E+00 0. -1.
     999900   -1    0    0    0    0 -0.00000000000E+00 -0.00000000000E+00 -0.74505805969E-08  0.93827000000E+00  0.93827000000E+00 0. -1.
     999902    2    1    2    0    0 -0.65291317010E-03  0.18526565446E-01 -0.14073591052E-01  0.10206549944E+01  0.10203895784E+01 0.  0.
     999903    2    3    3    0    0 -0.87768897654E-01 -0.77968979826E-01  0.45946722174E-01  0.12908165300E+00  0.27720581741E-01 0.  0.
         14    1    1    2    0    0  0.65291317010E-03 -0.18526565446E-01  0.14073591052E-01  0.23275005648E-01  0.00000000000E+00 0. -1.
     999901    1    3    3    0    0  0.87115984484E-01  0.96495545272E-01 -0.60020313226E-01  0.89157334135E+00  0.88000000000E+00 0.  1.
        -11    1    4    4    0    0 -0.47348260079E-01 -0.45827782136E-01  0.11212443916E-01  0.66843274663E-01  0.51100000000E-03 0.  1.
         11    1    4    4    0    0 -0.40420637575E-01 -0.32141197690E-01  0.34734278259E-01  0.62238378337E-01  0.51100000000E-03 0. -1.
</event>
<event>
 8    1  0.1042301E+005  0.1043930E+01  0.7957747E-01            NaN
         13   -1    0    0    0    0  0.00000000000E+00  0.00000000000E+00  0.74505805969E-08  0.10566000000E+00  0.10566000000E+00 0.  1.
     999900   -1    0    0    0    0 -0.00000000000E+00 -0.00000000000E+00 -0.74505805969E-08  0.93827000000E+00  0.93827000000E+00 0.  1.
     999902    2    1    2    0    0  0.10697071805E-02  0.21636637536E-01 -0.11433989090E-01  0.10194346032E+01  0.10191402680E+01 0.  0.
     999903    2    3    3    0    0  0.64023848164E-02 -0.10750629724E+00  0.63886514834E-01  0.12680953446E+00  0.20014414178E-01 0.  0.
         14    1    1    2    0    0 -0.10697071805E-02 -0.21636637536E-01  0.11433989090E-01  0.24495396788E-01  0.00000000000E+00 0.  1.
     999901    1    3    3    0    0 -0.53326776359E-02  0.12914293478E+00 -0.75320503924E-01  0.89262506875E+00  0.88000000000E+00 0. -1.
        -11    1    4    4    0    0  0.10988860424E-01 -0.54249937472E-01  0.25182717699E-01  0.60813166016E-01  0.51100000000E-03 0. -1.
         11    1    4    4    0    0 -0.45864756078E-02 -0.53256359767E-01  0.38703797135E-01  0.65996368444E-01  0.51100000000E-03 0.  1.
</event>
<event>
 8    1  0.1042301E+005  0.1043930E+01  0.7957747E-01            NaN
         13   -1    0    0    0    0  0.00000000000E+00  0.00000000000E+00  0.74505805969E-08  0.10566000000E+00  0.10566000000E+00 0. -1.
     999900   -1    0    0    0    0 -0.00000000000E+00 -0.00000000000E+00 -0.74505805969E-08  0.93827000000E+00  0.93827000000E+00 0.  1.
     999902    2    1    2    0    0  0.17681138080E-01 -0.12719999508E-01 -0.37594485328E-02  0.10218267314E+01  0.10215876440E+01 0.  0.
     999903    2    3    3    0    0  0.97429507499E-01  0.13900685030E-02  0.88773476941E-01  0.13327665470E+00  0.19684899205E-01 0.  0.
         14    1    1    2    0    0 -0.17681138080E-01  0.12719999508E-01  0.37594485328E-02  0.22103268639E-01  0.00000000000E+00 0. -1.
     999901    1    3    3    0    0 -0.79748369419E-01 -0.14110068011E-01 -0.92532925474E-01  0.88855007666E+00  0.88000000000E+00 0.  1.
        -11    1    4    4    0    0  0.69995213980E-01  0.32746795038E-03  0.74880240822E-01  0.10250243315E+00  0.51100000000E-03 0.  1.
         11    1    4    4    0    0  0.27434293519E-01  0.10626005526E-02  0.13893236120E-01  0.30774221545E-01  0.51100000000E-03 0. -1.
</event>
<event>
 8    1  0.1042301E+005  0.1043930E+01  0.7957747E-01            NaN
         13   -1    0    0    0    0  0.00000000000E+00  0.00000000000E+00  0.74505805969E-08  0.10566000000E+00  0.10566000000E+00 0.  1.
     999900   -1    0    0    0    0 -0.00000000000E+00 -0.00000000000E+00 -0.74505805969E-08  0.93827000000E+00  0.93827000000E+00 0.  1.
     999902    2    1    2    0    0 -0.13790461296E-01 -0.15196268134E-01 -0.79423988560E-02  0.10219257939E+01  0.10216888680E+01 0.  0.
     999903    2    3    3    0    0  0.94330255960E-01 -0.74670187347E-01 -0.50042928457E-01  0.13231931280E+00  0.23027630859E-01 0.  0.
         14    1    1    2    0    0  0.13790461296E-01  0.15196268134E-01  0.79423988560E-02  0.22004206133E-01  0.00000000000E+00 0. -1.
     999901    1    3    3    0    0 -0.10812071726E+00  0.59473919213E-01  0.42100529601E-01  0.88960648107E+00  0.88000000000E+00 0. -1.
        -11    1    4    4    0    0  0.26748789219E-01 -0.93695197669E-02 -0.87151256136E-02  0.29656367964E-01  0.51100000000E-03 0.  1.
         11    1    4    4    0    0  0.67581466741E-01 -0.65300667580E-01 -0.41327802843E-01  0.10266294483E+00  0.51100000000E-03 0. -1.
</event>
<event>
 8    1  0.1042301E+005  0.1043930E+01  0.7957747E-01            NaN
         13   -1    0    0    0    0  0.00000000000E+00  0.00000000000E+00  0.74505805969E-08  0.10566000000E+00  0.10566000000E+00 0.  1.
     999900   -1    0    0    0    0 -0.00000000000E+00 -0.00000000000E+00 -0.74505805969E-08  0.93827000000E+00  0.93827000000E+00 0.  1.
     999902    2    1    2    0    0 -0.53758444243E-02  0.17960648434E-01  0.14628129551E-01  0.10201504548E+01  0.10198732684E+01 0.  0.
     999903    2    3    3    0    0 -0.11411890081E+00 -0.58219661209E-01 -0.71207696733E-02  0.12992491793E+00  0.20423674160E-01 0.  0.
         14    1    1    2    0    0  0.53758444243E-02 -0.17960648434E-01 -0.14628129551E-01  0.23779545193E-01  0.00000000000E+00 0.  1.
     999901    1    3    3    0    0  0.10874305638E+00  0.76180309643E-01  0.21748899224E-01  0.89022553688E+00  0.88000000000E+00 0. -1.
        -11    1    4    4    0    0 -0.18241779069E-01 -0.14123952302E-01  0.52616724209E-02  0.23668435730E-01  0.51100000000E-03 0.  1.
         11    1    4    4    0    0 -0.95877121736E-01 -0.44095708908E-01 -0.12382442094E-01  0.10625648220E+00  0.51100000000E-03 0. -1.
</event>
<event>
 8    1  0.1042301E+005  0.1043930E+01  0.7957747E-01            NaN
         13   -1    0    0    0    0  0.00000000000E+00  0.00000000000E+00  0.74505805969E-08  0.10566000000E+00  0.10566000000E+00 0.  1.
     999900   -1    0    0    0    0 -0.00000000000E+00 -0.00000000000E+00 -0.74505805969E-08  0.93827000000E+00  0.93827000000E+00 0.  1.
     999902    2    1    2    0    0  0.55748524504E-02  0.20749757428E-01  0.12861851523E-01  0.10188888611E+01  0.10185810977E+01 0.  0.
     999903    2    3    3    0    0  0.11152725079E+00  0.44561155995E-01  0.49886220137E-01  0.13144100500E+00  0.19080842318E-01 0.  0.
         14    1    1    2    0    0 -0.55748524504E-02 -0.20749757428E-01 -0.12861851523E-01  0.25041138907E-01  0.00000000000E+00 0. -1.
     999901    1    3    3    0    0 -0.10595239834E+00 -0.23811398567E-01 -0.37024368614E-01  0.88744785609E+00  0.88000000000E+00 0.  1.
        -11    1    4    4    0    0  0.69933510624E-01  0.30075796940E-01  0.21748787508E-01  0.79173987829E-01  0.51100000000E-03 0. -1.
         11    1    4    4    0    0  0.41593740164E-01  0.14485359056E-01  0.28137432630E-01  0.52267017169E-01  0.51100000000E-03 0.  1.
</event>
<event>
 8    1  0.1042301E+005  0.1043930E+01  0.7957747E-01            NaN
         13   -1    0    0    0    0  0.00000000000E+00  0.00000000000E+00  0.74505805969E-08  0.10566000000E+00  0.10566000000E+00 0.  1.
     999900   -1    0    0    0    0 -0.00000000000E+00 -0.00000000000E+00 -0.74505805969E-08  0.93827000000E+00  0.93827000000E+00 0. -1.
     999902    2    1    2    0    0 -0.18586966599E-01 -0.12895748059E-01 -0.66415080071E-02  0.10203527806E+01  0.10200803457E+01 0.  0.
     999903    2    3    3    0    0 -0.12582232967E+00 -0.39580349110E-01 -0.17281065106E-02  0.13342796275E+00  0.20054231820E-01 0.  0.
         14    1    1    2    0    0  0.18586966599E-01  0.12895748059E-01  0.66415080071E-02  0.23577219386E-01  0.00000000000E+00 0.  1.
     999901    1    3    3    0    0  0.10723536307E+00  0.26684601052E-01 -0.49134014965E-02  0.88692481786E+00  0.88000000000E+00 0. -1.
        -11    1    4    4    0    0 -0.82394874675E-01 -0.25111939976E-01 -0.10635684913E-01  0.86792302750E-01  0.51100000000E-03 0.  1.
         11    1    4    4    0    0 -0.43427454991E-01 -0.14468409135E-01  0.89075784025E-02  0.46635660002E-01  0.51100000000E-03 0. -1.
</event>
<event>
 8    1  0.1042301E+005  0.1043930E+01  0.7957747E-01            NaN
         13   -1    0    0    0    0  0.00000000000E+00  0.00000000000E+00  0.74505805969E-08  0.10566000000E+00  0.10566000000E+00 0. -1.
     999900   -1    0    0    0    0 -0.00000000000E+00 -0.00000000000E+00 -0.74505805969E-08  0.93827000000E+00  0.93827000000E+00 0.  1.
     999902    2    1    2    0    0  0.19271884330E-02  0.13398737013E-01  0.18616235564E-01  0.10209125189E+01  0.10206530100E+01 0.  0.
     999903    2    3    3    0    0 -0.42814534001E-01 -0.35975753745E-01  0.11859397248E+00  0.13274856449E+00  0.20743960271E-01 0.  0.
         14    1    1    2    0    0 -0.19271884330E-02 -0.13398737013E-01 -0.18616235564E-01  0.23017481082E-01  0.00000000000E+00 0.  1.
     999901    1    3    3    0    0  0.44741722434E-01  0.49374490758E-01 -0.99977736912E-01  0.88816395443E+00  0.88000000000E+00 0.  1.
        -11    1    4    4    0    0 -0.24622855181E-01 -0.23542736973E-01  0.48499853197E-01  0.59270923247E-01  0.51100000000E-03 0.  1.
         11    1    4    4    0    0 -0.18191678820E-01 -0.12433016772E-01  0.70094119279E-01  0.73477641245E-01  0.51100000000E-03 0. -1.
</event>
<event>
 8    1  0.1042301E+005  0.1043930E+01  0.7957747E-01            NaN
         13   -1    0    0    0    0  0.00000000000E+00  0.00000000000E+00  0.74505805969E-08  0.10566000000E+00  0.10566000000E+00 0. -1.
     999900   -1    0    0    0    0 -0.00000000000E+00 -0.00000000000E+00 -0.74505805969E-08  0.93827000000E+00  0.93827000000E+00 0.  1.
     999902    2    1    2    0    0  0.19803702080E-01 -0.87131865764E-02 -0.35604217678E-02  0.10220032392E+01  0.10217679962E+01 0.  0.
     999903    2    3    3    0    0 -0.56638278427E-01 -0.11754978868E+00 -0.21897945528E-02  0.13200848586E+00  0.19889638949E-01 0.  0.
         14    1    1    2    0    0 -0.19803702080E-01  0.87131865764E-02  0.35604217678E-02  0.21926760809E-01  0.00000000000E+00 0.  1.
     999901    1    3    3    0    0  0.76441980507E-01  0.10883660210E+00 -0.13706272150E-02  0.88999475333E+00  0.88000000000E+00 0.  1.
        -11    1    4    4    0    0 -0.16842779723E-01 -0.56469049871E-01 -0.41904270307E-02  0.59078368476E-01  0.51100000000E-03 0. -1.
         11    1    4    4    0    0 -0.39795498704E-01 -0.61080738805E-01  0.20006324779E-02  0.72930117382E-01  0.51100000000E-03 0.  1.
</event>
<event>
 8    1  0.1401741E+005  0.1043930E+01  0.7957747E-01            NaN
         13   -1    0    0    0    0  0.00000000000E+00  0.00000000000E+00  0.74505805969E-08  0.10566000000E+00  0.10566000000E+00 0. -1.
     999900   -1    0    0    0    0 -0.00000000000E+00 -0.00000000000E+00 -0.74505805969E-08  0.93827000000E+00  0.93827000000E+00 0. -1.
     999902    2    1    2    0    0  0.61348375484E-02 -0.20038923250E-01  0.93295875403E-02  0.10209901683E+01  0.10207324271E+01 0.  0.
     999903    2    3    3    0    0 -0.10294140410E+00 -0.30932048030E-01  0.73698253451E-01  0.13185597602E+00  0.20021028367E-01 0.  0.
         14    1    1    2    0    0 -0.61348375484E-02  0.20038923250E-01 -0.93295875403E-02  0.22939831743E-01  0.00000000000E+00 0.  1.
     999901    1    3    3    0    0  0.10907624164E+00  0.10893124780E-01 -0.64368665911E-01  0.88913419224E+00  0.88000000000E+00 0. -1.
        -11    1    4    4    0    0 -0.42900976228E-01 -0.23241583254E-01  0.32047981501E-01  0.58378071164E-01  0.51100000000E-03 0. -1.
         11    1    4    4    0    0 -0.60040427869E-01 -0.76904647756E-02  0.41650271950E-01  0.73477904853E-01  0.51100000000E-03 0.  1.
</event>
<event>
 8    1  0.1042301E+005  0.1043930E+01  0.7957747E-01            NaN
         13   -1    0    0    0    0  0.00000000000E+00  0.00000000000E+00  0.74505805969E-08  0.10566000000E+00  0.10566000000E+00 0. -1.
     999900   -1    0    0    0    0 -0.00000000000E+00 -0.00000000000E+00 -0.74505805969E-08  0.93827000000E+00  0.93827000000E+00 0.  1.
     999902    2    1    2    0    0  0.15585030209E-01  0.15409705200E-01 -0.87742900682E-02  0.10203219432E+01  0.10200487868E+01 0.  0.
     999903    2    3    3    0    0  0.55738847973E-01  0.53813230348E-01 -0.10647318310E+00  0.13317357141E+00  0.19899207712E-01 0.  0.
         14    1    1    2    0    0 -0.15585030209E-01 -0.15409705200E-01  0.87742900682E-02  0.23608056827E-01  0.00000000000E+00 0.  1.
     999901    1    3    3    0    0 -0.40153817763E-01 -0.38403525148E-01  0.97698893035E-01  0.88714837176E+00  0.88000000000E+00 0. -1.
        -11    1    4    4    0    0  0.37397495573E-01  0.22359137582E-01 -0.57513166131E-01  0.72156282526E-01  0.51100000000E-03 0.  1.
         11    1    4    4    0    0  0.18341352400E-01  0.31454092766E-01 -0.48960016972E-01  0.61017288882E-01  0.51100000000E-03 0. -1.
</event>
<event>
 8    1  0.1042301E+005  0.1043930E+01  0.7957747E-01            NaN
         13   -1    0    0    0    0  0.00000000000E+00  0.00000000000E+00  0.74505805969E-08  0.10566000000E+00  0.10566000000E+00 0.  1.
     999900   -1    0    0    0    0 -0.00000000000E+00 -0.00000000000E+00 -0.74505805969E-08  0.93827000000E+00  0.93827000000E+00 0.  1.
     999902    2    1    2    0    0  0.23244464731E-01  0.25577694591E-02  0.36617081223E-02  0.10202602845E+01  0.10199856826E+01 0.  0.
     999903    2    3    3    0    0  0.33181438076E-01  0.28322785492E-01  0.12270858193E+00  0.13181516090E+00  0.20363019293E-01 0.  0.
         14    1    1    2    0    0 -0.23244464731E-01 -0.25577694591E-02 -0.36617081223E-02  0.23669715495E-01  0.00000000000E+00 0. -1.
     999901    1    3    3    0    0 -0.99369733450E-02 -0.25765016033E-01 -0.11904687380E+00  0.88844512360E+00  0.88000000000E+00 0.  1.
        -11    1    4    4    0    0  0.27387649128E-01  0.10616509574E-01  0.79706697287E-01  0.84948292000E-01  0.51100000000E-03 0. -1.
         11    1    4    4    0    0  0.57937889482E-02  0.17706275918E-01  0.43001884639E-01  0.46866868903E-01  0.51100000000E-03 0.  1.
</event>
<event>
 7    1  0.1042301E+005  0.1043930E+01  0.7957747E-01            NaN
         13   -1    0    0    0    0  0.00000000000E+00  0.00000000000E+00  0.74505805969E-08  0.10566000000E+00  0.10566000000E+00 0. -1.
     999900   -1    0    0    0    0 -0.00000000000E+00 -0.00000000000E+00 -0.74505805969E-08  0.93827000000E+00  0.93827000000E+00 0.  1.
     999903    2    1    2    0    0  0.10033829372E+00 -0.12573595558E-01 -0.57489709646E-01  0.11799705454E+00  0.19808323339E-01 0.  0.
         14    1    1    2    0    0 -0.19009273943E-01  0.13923497719E-01  0.34629902604E-01  0.41886112722E-01  0.00000000000E+00 0. -1.
     999901    1    1    2    0    0 -0.81329019777E-01 -0.13499021608E-02  0.22859807042E-01  0.88404683274E+00  0.88000000000E+00 0. -1.
        -11    1    3    3    0    0  0.73552497757E-01 -0.11075349842E-01 -0.31956448010E-01  0.80957451731E-01  0.51100000000E-03 0.  1.
         11    1    3    3    0    0  0.26785795963E-01 -0.14982457153E-02 -0.25533261636E-01  0.37039602810E-01  0.51100000000E-03 0. -1.
</event>
<event>
 8    1  0.1042301E+005  0.1043930E+01  0.7957747E-01            NaN
         13   -1    0    0    0    0  0.00000000000E+00  0.00000000000E+00  0.74505805969E-08  0.10566000000E+00  0.10566000000E+00 0. -1.
     999900   -1    0    0    0    0 -0.00000000000E+00 -0.00000000000E+00 -0.74505805969E-08  0.93827000000E+00  0.93827000000E+00 0.  1.
     999902    2    1    2    0    0 -0.14413787310E-03  0.23459579118E-01  0.14855058976E-03  0.10204695078E+01  0.10201997949E+01 0.  0.
     999903    2    3    3    0    0 -0.53165447192E-01  0.11936871819E+00  0.18248006146E-01  0.13348731377E+00  0.20258764772E-01 0.  0.
         14    1    1    2    0    0  0.14413787310E-03 -0.23459579118E-01 -0.14855058976E-03  0.23460492224E-01  0.00000000000E+00 0. -1.
     999901    1    3    3    0    0  0.53021309319E-01 -0.95909139075E-01 -0.18099455556E-01  0.88698219401E+00  0.88000000000E+00 0. -1.
        -11    1    4    4    0    0 -0.18778992133E-01  0.66735536372E-01  0.80914804622E-02  0.69799824767E-01  0.51100000000E-03 0.  1.
         11    1    4    4    0    0 -0.34386455058E-01  0.52633181821E-01  0.10156525684E-01  0.63687488999E-01  0.51100000000E-03 0. -1.
</event>
<event>
 8    1  0.1042301E+005  0.1043930E+01  0.7957747E-01            NaN
         13   -1    0    0    0    0  0.00000000000E+00  0.00000000000E+00  0.74505805969E-08  0.10566000000E+00  0.10566000000E+00 0.  1.
     999900   -1    0    0    0    0 -0.00000000000E+00 -0.00000000000E+00 -0.74505805969E-08  0.93827000000E+00  0.93827000000E+00 0.  1.
     999902    2    1    2    0    0 -0.12039099398E-01  0.19045752423E-01  0.76279750345E-02  0.10201420492E+01  0.10198646645E+01 0.  0.
     999903    2    3    3    0    0 -0.52132791372E-01 -0.71807425086E-01  0.93163391718E-01  0.13043529330E+00  0.21443272811E-01 0.  0.
         14    1    1    2    0    0  0.12039099398E-01 -0.19045752423E-01 -0.76279750345E-02  0.23787950790E-01  0.00000000000E+00 0.  1.
     999901    1    3    3    0    0  0.40093691974E-01  0.90853177508E-01 -0.85535416684E-01  0.88970675591E+00  0.88000000000E+00 0.  1.
        -11    1    4    4    0    0 -0.31870834457E-01 -0.51035120025E-01  0.75174002453E-01  0.96289798685E-01  0.51100000000E-03 0. -1.
         11    1    4    4    0    0 -0.20261956915E-01 -0.20772305061E-01  0.17989389265E-01  0.34145494618E-01  0.51100000000E-03 0.  1.
</event>
<event>
 8    1  0.1042301E+005  0.1043930E+01  0.7957747E-01            NaN
         13   -1    0    0    0    0  0.00000000000E+00  0.00000000000E+00  0.74505805969E-08  0.10566000000E+00  0.10566000000E+00 0. -1.
     999900   -1    0    0    0    0 -0.00000000000E+00 -0.00000000000E+00 -0.74505805969E-08  0.93827000000E+00  0.93827000000E+00 0.  1.
     999902    2    1    2    0    0  0.42326673085E-02 -0.11615125596E-01 -0.20081136113E-01  0.10203486802E+01  0.10200761494E+01 0.  0.
     999903    2    3    3    0    0 -0.26163041018E-01  0.75119734893E-01 -0.10296999499E+00  0.13168822873E+00  0.20285226966E-01 0.  0.
         14    1    1    2    0    0 -0.42326673085E-02  0.11615125596E-01  0.20081136113E-01  0.23581319784E-01  0.00000000000E+00 0. -1.
     999901    1    3    3    0    0  0.30395708326E-01 -0.86734860488E-01  0.82888858873E-01  0.88866045149E+00  0.88000000000E+00 0.  1.
        -11    1    4    4    0    0 -0.15937812428E-01  0.33433513150E-01 -0.33045449272E-01  0.49639465197E-01  0.51100000000E-03 0.  1.
         11    1    4    4    0    0 -0.10225228590E-01  0.41686221743E-01 -0.69924545715E-01  0.82048763534E-01  0.51100000000E-03 0. -1.
</event>
<event>
 8    1  0.1042301E+005  0.1043930E+01  0.7957747E-01            NaN
         13   -1    0    0    0    0  0.00000000000E+00  0.00000000000E+00  0.74505805969E-08  0.10566000000E+00  0.10566000000E+00 0. -1.
     999900   -1    0    0    0    0 -0.00000000000E+00 -0.00000000000E+00 -0.74505805969E-08  0.93827000000E+00  0.93827000000E+00 0. -1.
     999902    2    1    2    0    0  0.10537957406E-01  0.15024464430E-01 -0.15060552327E-01  0.10201896690E+01  0.10199134069E+01 0.  0.
     999903    2    3    3    0    0 -0.44982804185E-01 -0.10826250106E+00 -0.50307975693E-01  0.12916519593E+00  0.20212214446E-01 0.  0.
         14    1    1    2    0    0 -0.10537957406E-01 -0.15024464430E-01  0.15060552327E-01  0.23740330960E-01  0.00000000000E+00 0. -1.
     999901    1    3    3    0    0  0.55520761591E-01  0.12328696549E+00  0.35247423366E-01  0.89102447311E+00  0.88000000000E+00 0.  1.
        -11    1    4    4    0    0 -0.34784081429E-01 -0.62251346175E-01 -0.36164554524E-01  0.79958104945E-01  0.51100000000E-03 0.  1.
         11    1    4    4    0    0 -0.10198722757E-01 -0.46011154886E-01 -0.14143421168E-01  0.49207090984E-01  0.51100000000E-03 0. -1.
</event>
<event>
 8    1  0.1042301E+005  0.1043930E+01  0.7957747E-01            NaN
         13   -1    0    0    0    0  0.00000000000E+00  0.00000000000E+00  0.74505805969E-08  0.10566000000E+00  0.10566000000E+00 0. -1.
     999900   -1    0    0    0    0 -0.00000000000E+00 -0.00000000000E+00 -0.74505805969E-08  0.93827000000E+00  0.93827000000E+00 0.  1.
     999902    2    1    2    0    0  0.17955947177E-01  0.12925330353E-01 -0.85410704215E-02  0.10202143915E+01  0.10199387111E+01 0.  0.
     999903    2    3    3    0    0 -0.50316941971E-01 -0.82033285678E-01 -0.83104932237E-01  0.12935071187E+00  0.23747048042E-01 0.  0.
         14    1    1    2    0    0 -0.17955947177E-01 -0.12925330353E-01  0.85410704215E-02  0.23715608525E-01  0.00000000000E+00 0. -1.
     999901    1    3    3    0    0  0.68272889147E-01  0.94958616032E-01  0.74563861815E-01  0.89086367961E+00  0.88000000000E+00 0. -1.
        -11    1    4    4    0    0 -0.29539485770E-01 -0.67489701617E-01 -0.64085172671E-01  0.97645335378E-01  0.51100000000E-03 0. -1.
         11    1    4    4    0    0 -0.20777456201E-01 -0.14543584062E-01 -0.19019759566E-01  0.31705376492E-01  0.51100000000E-03 0.  1.
</event>
<event>
 8    1  0.1042301E+005  0.1043930E+01  0.7957747E-01            NaN
         13   -1    0    0    0    0  0.00000000000E+00  0.00000000000E+00  0.74505805969E-08  0.10566000000E+00  0.10566000000E+00 0. -1.
     999900   -1    0    0    0    0 -0.00000000000E+00 -0.00000000000E+00 -0.74505805969E-08  0.93827000000E+00  0.93827000000E+00 0. -1.
     999902    2    1    2    0    0  0.16814702530E-01  0.14850967496E-02  0.17068867262E-01  0.10199240432E+01  0.10196414899E+01 0.  0.
     999903    2    3    3    0    0 -0.83736443559E-02  0.12017354364E+00  0.47719482007E-01  0.13107036544E+00  0.19760901339E-01 0.  0.
         14    1    1    2    0    0 -0.16814702530E-01 -0.14850967496E-02 -0.17068867262E-01  0.24005956826E-01  0.00000000000E+00 0.  1.
     999901    1    3    3    0    0  0.25188346886E-01 -0.11868844689E+00 -0.30650614745E-01  0.88885367774E+00  0.88000000000E+00 0. -1.
        -11    1    4    4    0    0 -0.67031482119E-02  0.64898768452E-01  0.36076251791E-01  0.74555612846E-01  0.51100000000E-03 0.  1.
         11    1    4    4    0    0 -0.16704961439E-02  0.55274775188E-01  0.11643230216E-01  0.56514752590E-01  0.51100000000E-03 0. -1.
</event>
<event>
 8    1  0.1042301E+005  0.1043930E+01  0.7957747E-01            NaN
         13   -1    0    0    0    0  0.00000000000E+00  0.00000000000E+00  0.74505805969E-08  0.10566000000E+00  0.10566000000E+00 0.  1.
     999900   -1    0    0    0    0 -0.00000000000E+00 -0.00000000000E+00 -0.74505805969E-08  0.93827000000E+00  0.93827000000E+00 0.  1.
     999902    2    1    2    0    0  0.68602737137E-02 -0.11989879022E-01 -0.19982030786E-01  0.10196379826E+01  0.10193485731E+01 0.  0.
     999903    2    3    3    0    0 -0.45408574154E-01 -0.11534263146E+00  0.35132249431E-01  0.13033971556E+00  0.19705462778E-01 0.  0.
         14    1    1    2    0    0 -0.68602737137E-02  0.11989879022E-01  0.19982030786E-01  0.24292017386E-01  0.00000000000E+00 0.  1.
     999901    1    3    3    0    0  0.52268847868E-01  0.10335275244E+00 -0.55114280217E-01  0.88929826705E+00  0.88000000000E+00 0.  1.
        -11    1    4    4    0    0 -0.20181069319E-01 -0.27652914502E-01  0.83195149019E-02  0.35233999042E-01  0.51100000000E-03 0.  1.
         11    1    4    4    0    0 -0.25227504836E-01 -0.87689716962E-01  0.26812734529E-01  0.95105716521E-01  0.51100000000E-03 0. -1.
</event>
<event>
 7    1  0.1042301E+005  0.1043930E+01  0.7957747E-01            NaN
         13   -1    0    0    0    0  0.00000000000E+00  0.00000000000E+00  0.74505805969E-08  0.10566000000E+00  0.10566000000E+00 0.  1.
     999900   -1    0    0    0    0 -0.00000000000E+00 -0.00000000000E+00 -0.74505805969E-08  0.93827000000E+00  0.93827000000E+00 0. -1.
     999903    2    1    2    0    0 -0.40046872655E-01 -0.91608775613E-01  0.42040665108E-01  0.11052226299E+00  0.21256371140E-01 0.  0.
         14    1    1    2    0    0  0.18606536025E-01 -0.59962724742E-02  0.39432485367E-01  0.44012263844E-01  0.00000000000E+00 0. -1.
     999901    1    1    2    0    0  0.21440336631E-01  0.97605048087E-01 -0.81473150475E-01  0.88939547317E+00  0.88000000000E+00 0. -1.
        -11    1    3    3    0    0 -0.32561796525E-01 -0.48381055782E-01  0.22908586559E-01  0.62658292433E-01  0.51100000000E-03 0. -1.
         11    1    3    3    0    0 -0.74850761300E-02 -0.43227719831E-01  0.19132078549E-01  0.47863970553E-01  0.51100000000E-03 0.  1.
</event>
<event>
 8    1  0.1042301E+005  0.1043930E+01  0.7957747E-01            NaN
         13   -1    0    0    0    0  0.00000000000E+00  0.00000000000E+00  0.74505805969E-08  0.10566000000E+00  0.10566000000E+00 0. -1.
     999900   -1    0    0    0    0 -0.00000000000E+00 -0.00000000000E+00 -0.74505805969E-08  0.93827000000E+00  0.93827000000E+00 0. -1.
     999902    2    1    2    0    0  0.73802343824E-02 -0.22354461634E-01 -0.46841654809E-02  0.10199272664E+01  0.10196447899E+01 0.  0.
     999903    2    3    3    0    0  0.15294779202E-01 -0.54461898362E-01 -0.11775457651E+00  0.13207680299E+00  0.19445126785E-01 0.  0.
         14    1    1    2    0    0 -0.73802343824E-02  0.22354461634E-01  0.46841654809E-02  0.24002733610E-01  0.00000000000E+00 0. -1.
     999901    1    3    3    0    0 -0.79145448191E-02  0.32107436727E-01  0.11307041102E+00  0.88785046340E+00  0.88000000000E+00 0.  1.
        -11    1    4    4    0    0  0.16851154091E-01 -0.29786173832E-01 -0.79113928032E-01  0.86200071203E-01  0.51100000000E-03 0. -1.
         11    1    4    4    0    0 -0.15563748898E-02 -0.24675724529E-01 -0.38640648473E-01  0.45876731785E-01  0.51100000000E-03 0.  1.
</event>
<event>
 8    1  0.1042301E+005  0.1043930E+01  0.7957747E-01            NaN
         13   -1    0    0    0    0  0.00000000000E+00  0.00000000000E+00  0.74505805969E-08  0.10566000000E+00  0.10566000000E+00 0.  1.
     999900   -1    0    0    0    0 -0.00000000000E+00 -0.00000000000E+00 -0.74505805969E-08  0.93827000000E+00  0.93827000000E+00 0.  1.
     999902    2    1    2    0    0  0.25143719999E-02  0.65413797769E-02  0.21310230898E-01  0.10214970408E+01  0.10212506875E+01 0.  0.
     999903    2    3    3    0    0 -0.97361254511E-01 -0.85079656322E-01  0.51564679264E-02  0.13097444197E+00  0.20247308190E-01 0.  0.
         14    1    1    2    0    0 -0.25143719999E-02 -0.65413797769E-02 -0.21310230898E-01  0.22432959164E-01  0.00000000000E+00 0. -1.
     999901    1    3    3    0    0  0.99875626510E-01  0.91621036099E-01  0.16153762972E-01  0.89052259886E+00  0.88000000000E+00 0. -1.
        -11    1    4    4    0    0 -0.65651856758E-01 -0.59409309060E-01 -0.57849387372E-02  0.88731949916E-01  0.51100000000E-03 0. -1.
         11    1    4    4    0    0 -0.31709397752E-01 -0.25670347262E-01  0.10941406664E-01  0.42242492057E-01  0.51100000000E-03 0.  1.
</event>
<event>
 8    1  0.1042301E+005  0.1043930E+01  0.7957747E-01            NaN
         13   -1    0    0    0    0  0.00000000000E+00  0.00000000000E+00  0.74505805969E-08  0.10566000000E+00  0.10566000000E+00 0. -1.
     999900   -1    0    0    0    0 -0.00000000000E+00 -0.00000000000E+00 -0.74505805969E-08  0.93827000000E+00  0.93827000000E+00 0. -1.
     999902    2    1    2    0    0  0.69823983980E-02  0.21046803393E-01  0.10055072003E-01  0.10195819756E+01  0.10192912138E+01 0.  0.
     999903    2    3    3    0    0 -0.49284478532E-01  0.57371292117E-01  0.10603570393E+00  0.13183329964E+00  0.20396651720E-01 0.  0.
         14    1    1    2    0    0 -0.69823983980E-02 -0.21046803393E-01 -0.10055072003E-01  0.24348024426E-01  0.00000000000E+00 0. -1.
     999901    1    3    3    0    0  0.56266876930E-01 -0.36324488724E-01 -0.95980631930E-01  0.88774867594E+00  0.88000000000E+00 0. -1.
        -11    1    4    4    0    0 -0.28460729950E-01  0.21249184832E-01  0.59949751844E-01  0.69683390220E-01  0.51100000000E-03 0. -1.
         11    1    4    4    0    0 -0.20823748583E-01  0.36122107285E-01  0.46085952089E-01  0.62149909418E-01  0.51100000000E-03 0.  1.
</event>
<event>
 8    1  0.1042301E+005  0.1043930E+01  0.7957747E-01            NaN
         13   -1    0    0    0    0  0.00000000000E+00  0.00000000000E+00  0.74505805969E-08  0.10566000000E+00  0.10566000000E+00 0.  1.
     999900   -1    0    0    0    0 -0.00000000000E+00 -0.00000000000E+00 -0.74505805969E-08  0.93827000000E+00  0.93827000000E+00 0.  1.
     999902    2    1    2    0    0  0.33750591163E-02 -0.11011239638E-01 -0.20884058794E-01  0.10200808421E+01  0.10198020112E+01 0.  0.
     999903    2    3    3    0    0 -0.11747705348E+00  0.22598353277E-01 -0.48664693980E-01  0.13075154336E+00  0.20400244711E-01 0.  0.
         14    1    1    2    0    0 -0.33750591163E-02  0.11011239638E-01  0.20884058794E-01  0.23849157933E-01  0.00000000000E+00 0.  1.
     999901    1    3    3    0    0  0.12085211260E+00 -0.33609592915E-01  0.27780635187E-01  0.88932929871E+00  0.88000000000E+00 0. -1.
        -11    1    4    4    0    0 -0.64509917690E-01  0.81799745759E-02 -0.36319761307E-01  0.74483740822E-01  0.51100000000E-03 0. -1.
         11    1    4    4    0    0 -0.52967135791E-01  0.14418378701E-01 -0.12344932674E-01  0.56267802534E-01  0.51100000000E-03 0.  1.
</event>
<event>
 8    1  0.1042301E+005  0.1043930E+01  0.7957747E-01            NaN
         13   -1    0    0    0    0  0.00000000000E+00  0.00000000000E+00  0.74505805969E-08  0.10566000000E+00  0.10566000000E+00 0.  1.
     999900   -1    0    0    0    0 -0.00000000000E+00 -0.00000000000E+00 -0.74505805969E-08  0.93827000000E+00  0.93827000000E+00 0.  1.
     999902    2    1    2    0    0 -0.23732486559E-01  0.98848143421E-02 -0.13191694820E-02  0.10181874150E+01  0.10178619412E+01 0.  0.
     999903    2    3    3    0    0  0.19172099575E-01  0.10698897864E+00 -0.67285037588E-01  0.12935586857E+00  0.19785183770E-01 0.  0.
         14    1    1    2    0    0  0.23732486559E-01 -0.98848143421E-02  0.13191694820E-02  0.25742584971E-01  0.00000000000E+00 0. -1.
     999901    1    3    3    0    0 -0.42904586134E-01 -0.97104164296E-01  0.65965868106E-01  0.88883154646E+00  0.88000000000E+00 0. -1.
        -11    1    4    4    0    0  0.19599253281E-01  0.87306821232E-01 -0.46959951310E-01  0.10105498459E+00  0.51100000000E-03 0. -1.
         11    1    4    4    0    0 -0.42715370633E-03  0.19682157407E-01 -0.20325086278E-01  0.28300883974E-01  0.51100000000E-03 0.  1.
</event>
<event>
 8    1  0.1042301E+005  0.1043930E+01  0.7957747E-01            NaN
         13   -1    0    0    0    0  0.00000000000E+00  0.00000000000E+00  0.74505805969E-08  0.10566000000E+00  0.10566000000E+00 0. -1.
     999900   -1    0    0    0    0 -0.00000000000E+00 -0.00000000000E+00 -0.74505805969E-08  0.93827000000E+00  0.93827000000E+00 0. -1.
     999902    2    1    2    0    0 -0.10122198890E-01  0.18426195244E-01  0.10975385342E-01  0.10202141263E+01  0.10199384397E+01 0.  0.
     999903    2    3    3    0    0 -0.31666827171E-01  0.95876046650E-01 -0.82393093061E-01  0.13163080256E+00  0.18521396635E-01 0.  0.
         14    1    1    2    0    0  0.10122198890E-01 -0.18426195244E-01 -0.10975385342E-01  0.23715873691E-01  0.00000000000E+00 0.  1.
     999901    1    3    3    0    0  0.21544628282E-01 -0.77449851406E-01  0.93368478402E-01  0.88858332375E+00  0.88000000000E+00 0.  1.
        -11    1    4    4    0    0 -0.74334159664E-02  0.51574206861E-01 -0.39870430133E-01  0.65613007904E-01  0.51100000000E-03 0. -1.
         11    1    4    4    0    0 -0.24233411205E-01  0.44301839789E-01 -0.42522662928E-01  0.66017794653E-01  0.51100000000E-03 0.  1.
</event>
<event>
 8    1  0.1042301E+005  0.1043930E+01  0.7957747E-01            NaN
         13   -1    0    0    0    0  0.00000000000E+00  0.00000000000E+00  0.74505805969E-08  0.10566000000E+00  0.10566000000E+00 0. -1.
     999900   -1    0    0    0    0 -0.00000000000E+00 -0.00000000000E+00 -0.74505805969E-08  0.93827000000E+00  0.93827000000E+00 0. -1.
     999902    2    1    2    0    0  0.25974344818E-02 -0.91401582106E-02  0.17777499477E-01  0.10237724048E+01  0.10235739388E+01 0.  0.
     999903    2    3    3    0    0 -0.17150719065E-01  0.11003210483E+00 -0.67060441075E-01  0.13147789396E+00  0.19700827040E-01 0.  0.
         14    1    1    2    0    0 -0.25974344818E-02  0.91401582106E-02 -0.17777499477E-01  0.20157595235E-01  0.00000000000E+00 0.  1.
     999901    1    3    3    0    0  0.19748153547E-01 -0.11917226304E+00  0.84837940552E-01  0.89229451080E+00  0.88000000000E+00 0. -1.
        -11    1    4    4    0    0 -0.17305004125E-01  0.79266864681E-01 -0.56803845297E-01  0.99043611432E-01  0.51100000000E-03 0.  1.
         11    1    4    4    0    0  0.15428505954E-03  0.30765240151E-01 -0.10256595778E-01  0.32434282532E-01  0.51100000000E-03 0. -1.
</event>
<event>
 8    1  0.1042301E+005  0.1043930E+01  0.7957747E-01            NaN
         13   -1    0    0    0    0  0.00000000000E+00  0.00000000000E+00  0.74505805969E-08  0.10566000000E+00  0.10566000000E+00 0.  1.
     999900   -1    0    0    0    0 -0.00000000000E+00 -0.00000000000E+00 -0.74505805969E-08  0.93827000000E+00  0.93827000000E+00 0.  1.
     999902    2    1    2    0    0 -0.10226181704E-01  0.21270253214E-01  0.21331770246E-02  0.10202329768E+01  0.10199577335E+01 0.  0.
     999903    2    3    3    0    0 -0.91136477748E-01 -0.30965133706E-02 -0.92088873730E-01  0.13117841708E+00  0.20297055739E-01 0.  0.
         14    1    1    2    0    0  0.10226181704E-01 -0.21270253214E-01 -0.21331770246E-02  0.23697023194E-01  0.00000000000E+00 0.  1.
     999901    1    3    3    0    0  0.80910296044E-01  0.24366766585E-01  0.94222050755E-01  0.88905455973E+00  0.88000000000E+00 0. -1.
        -11    1    4    4    0    0 -0.28795088863E-01 -0.16141047287E-02 -0.43168653552E-01  0.51918746587E-01  0.51100000000E-03 0.  1.
         11    1    4    4    0    0 -0.62341388885E-01 -0.14824086420E-02 -0.48920220178E-01  0.79259670494E-01  0.51100000000E-03 0. -1.
</event>
<event>
 8    1  0.1042301E+005  0.1043930E+01  0.7957747E-01            NaN
         13   -1    0    0    0    0  0.00000000000E+00  0.00000000000E+00  0.74505805969E-08  0.10566000000E+00  0.10566000000E+00 0. -1.
     999900   -1    0    0    0    0 -0.00000000000E+00 -0.00000000000E+00 -0.74505805969E-08  0.93827000000E+00  0.93827000000E+00 0.  1.
     999902    2    1    2    0    0  0.32266367733E-02 -0.43794422042E-02  0.26852649764E-01  0.10165319070E+01  0.10161626162E+01 0.  0.
     999903    2    3    3    0    0  0.13519030626E-03  0.10601072877E+00  0.70281428087E-01  0.12856703967E+00  0.18753977292E-01 0.  0.
         14    1    1    2    0    0 -0.32266367733E-02  0.43794422042E-02 -0.26852649764E-01  0.27398092967E-01  0.00000000000E+00 0.  1.
     999901    1    3    3    0    0  0.30914464671E-02 -0.11039017097E+00 -0.43428778324E-01  0.88796486737E+00  0.88000000000E+00 0.  1.
        -11    1    4    4    0    0 -0.38748479708E-02  0.24752861660E-01  0.86864790828E-02  0.26522342411E-01  0.51100000000E-03 0.  1.
         11    1    4    4    0    0  0.40100382770E-02  0.81257867110E-01  0.61594949004E-01  0.10204469726E+00  0.51100000000E-03 0. -1.
</event>
<event>
 8    1  0.1042301E+005  0.1043930E+01  0.7957747E-01            NaN
         13   -1    0    0    0    0  0.00000000000E+00  0.00000000000E+00  0.74505805969E-08  0.10566000000E+00  0.10566000000E+00 0. -1.
     999900   -1    0    0    0    0 -0.00000000000E+00 -0.00000000000E+00 -0.74505805969E-08  0.93827000000E+00  0.93827000000E+00 0. -1.
     999902    2    1    2    0    0 -0.17603591996E-01  0.10154056081E-01 -0.11728270999E-01  0.10204663335E+01  0.10201965468E+01 0.  0.
     999903    2    3    3    0    0  0.33028825417E-01  0.11837239851E+00  0.40311989482E-01  0.13086921116E+00  0.19969123544E-01 0.  0.
         14    1    1    2    0    0  0.17603591996E-01 -0.10154056081E-01  0.11728270999E-01  0.23463666523E-01  0.00000000000E+00 0. -1.
     999901    1    3    3    0    0 -0.50632417413E-01 -0.10821834243E+00 -0.52040260482E-01  0.88959712232E+00  0.88000000000E+00 0.  1.
        -11    1    4    4    0    0  0.81365827126E-03  0.31623211865E-01  0.61777359542E-02  0.32235308451E-01  0.51100000000E-03 0.  1.
         11    1    4    4    0    0  0.32215167146E-01  0.86749186645E-01  0.34134253528E-01  0.98633902705E-01  0.51100000000E-03 0. -1.
</event>
<event>
 8    1  0.1042301E+005  0.1043930E+01  0.7957747E-01            NaN
         13   -1    0    0    0    0  0.00000000000E+00  0.00000000000E+00  0.74505805969E-08  0.10566000000E+00  0.10566000000E+00 0. -1.
     999900   -1    0    0    0    0 -0.00000000000E+00 -0.00000000000E+00 -0.74505805969E-08  0.93827000000E+00  0.93827000000E+00 0.  1.
     999902    2    1    2    0    0  0.45690061433E-02  0.23218877928E-01 -0.71136027934E-02  0.10192197703E+01  0.10189201856E+01 0.  0.
     999903    2    3    3    0    0 -0.49506414928E-01  0.10618824203E+00 -0.58313365747E-01  0.13218567718E+00  0.18595073629E-01 0.  0.
         14    1    1    2    0    0 -0.45690061433E-02 -0.23218877928E-01  0.71136027934E-02  0.24710229745E-01  0.00000000000E+00 0. -1.
     999901    1    3    3    0    0  0.54075421071E-01 -0.82969364102E-01  0.51199762954E-01  0.88703409307E+00  0.88000000000E+00 0. -1.
        -11    1    4    4    0    0 -0.47473727249E-01  0.92287873671E-01 -0.46092471082E-01  0.11355872233E+00  0.51100000000E-03 0. -1.
         11    1    4    4    0    0 -0.20326876785E-02  0.13900368359E-01 -0.12220894666E-01  0.18626954854E-01  0.51100000000E-03 0.  1.
</event>
<event>
 8    1  0.1042301E+005  0.1043930E+01  0.7957747E-01            NaN
         13   -1    0    0    0    0  0.00000000000E+00  0.00000000000E+00  0.74505805969E-08  0.10566000000E+00  0.10566000000E+00 0.  1.
     999900   -1    0    0    0    0 -0.00000000000E+00 -0.00000000000E+00 -0.74505805969E-08  0.93827000000E+00  0.93827000000E+00 0.  1.
     999902    2    1    2    0    0  0.15120524155E-01  0.61785933366E-03 -0.19389951914E-01  0.10193336134E+01  0.10190368163E+01 0.  0.
     999903    2    3    3    0    0 -0.10635138784E+00  0.68987683260E-01 -0.15251211732E-03  0.12815465416E+00  0.18806221975E-01 0.  0.
         14    1    1    2    0    0 -0.15120524155E-01 -0.61785933365E-03  0.19389951914E-01  0.24596386647E-01  0.00000000000E+00 0.  1.
     999901    1    3    3    0    0  0.12147191199E+00 -0.68369823927E-01 -0.19237439796E-01  0.89117895920E+00  0.88000000000E+00 0.  1.
        -11    1    4    4    0    0 -0.87048097368E-01  0.55693446564E-01  0.71815598078E-02  0.10359038164E+00  0.51100000000E-03 0. -1.
         11    1    4    4    0    0 -0.19303290471E-01  0.13294236696E-01 -0.73340719251E-02  0.24564272518E-01  0.51100000000E-03 0.  1.
</event>
<event>
 8    1  0.1042301E+005  0.1043930E+01  0.7957747E-01            NaN
         13   -1    0    0    0    0  0.00000000000E+00  0.00000000000E+00  0.74505805969E-08  0.10566000000E+00  0.10566000000E+00 0. -1.
     999900   -1    0    0    0    0 -0.00000000000E+00 -0.00000000000E+00 -0.74505805969E-08  0.93827000000E+00  0.93827000000E+00 0.  1.
     999902    2    1    2    0    0 -0.17206115441E-01 -0.46570680248E-02 -0.96646193501E-02  0.10236533248E+01  0.10234524834E+01 0.  0.
     999903    2    3    3    0    0 -0.44373228333E-01  0.19209357112E-01 -0.12612804918E+00  0.13524385343E+00  0.66807416148E-02 0.  0.
         14    1    1    2    0    0  0.17206115441E-01  0.46570680248E-02  0.96646193501E-02  0.20276675229E-01  0.00000000000E+00 0. -1.
     999901    1    3    3    0    0  0.27167112892E-01 -0.23866425137E-01  0.11646342983E+00  0.88840947134E+00  0.88000000000E+00 0. -1.
        -11    1    4    4    0    0 -0.38022415109E-01  0.18687378996E-01 -0.11156086273E+00  0.11933570044E+00  0.51100000000E-03 0.  1.
         11    1    4    4    0    0 -0.63508132241E-02  0.52197811615E-03 -0.14567186450E-01  0.15908152998E-01  0.51100000000E-03 0. -1.
</event>
<event>
 8    1  0.1042301E+005  0.1043930E+01  0.7957747E-01            NaN
         13   -1    0    0    0    0  0.00000000000E+00  0.00000000000E+00  0.74505805969E-08  0.10566000000E+00  0.10566000000E+00 0.  1.
     999900   -1    0    0    0    0 -0.00000000000E+00 -0.00000000000E+00 -0.74505805969E-08  0.93827000000E+00  0.93827000000E+00 0. -1.
     999902    2    1    2    0    0 -0.18457567279E-01 -0.10422626467E-01 -0.11752073695E-01  0.10196931650E+01  0.10194050847E+01 0.  0.
     999903    2    3    3    0    0 -0.11348609711E+00  0.34528276944E-01 -0.55342215909E-01  0.13236509399E+00  0.19658613861E-01 0.  0.
         14    1    1    2    0    0  0.18457567279E-01  0.10422626467E-01  0.11752073695E-01  0.24236834951E-01  0.00000000000E+00 0. -1.
     999901    1    3    3    0    0  0.95028529828E-01 -0.44950903411E-01  0.43590142215E-01  0.88732807106E+00  0.88000000000E+00 0. -1.
        -11    1    4    4    0    0 -0.54364499788E-01  0.98681733913E-02 -0.33830470878E-01  0.64789208701E-01  0.51100000000E-03 0.  1.
         11    1    4    4    0    0 -0.59121597318E-01  0.24660103553E-01 -0.21511745031E-01  0.67575885284E-01  0.51100000000E-03 0. -1.
</event>
<event>
 8    1  0.1042301E+005  0.1043930E+01  0.7957747E-01            NaN
         13   -1    0    0    0    0  0.00000000000E+00  0.00000000000E+00  0.74505805969E-08  0.10566000000E+00  0.10566000000E+00 0.  1.
     999900   -1    0    0    0    0 -0.00000000000E+00 -0.00000000000E+00 -0.74505805969E-08  0.93827000000E+00  0.93827000000E+00 0.  1.
     999902    2    1    2    0    0 -0.22179819229E-01 -0.91148555174E-02  0.42974289743E-02  0.10195682909E+01  0.10192771983E+01 0.  0.
     999903    2    3    3    0    0 -0.90928568695E-01  0.26016426011E-01 -0.89065852476E-01  0.13126806027E+00  0.18807406602E-01 0.  0.
         14    1    1    2    0    0  0.22179819229E-01  0.91148555174E-02 -0.42974289743E-02  0.24361709052E-01  0.00000000000E+00 0.  1.
     999901    1    3    3    0    0  0.68748749465E-01 -0.35131281528E-01  0.93363281451E-01  0.88830023068E+00  0.88000000000E+00 0.  1.
        -11    1    4    4    0    0 -0.34627094190E-01  0.12389966310E-02 -0.27521538437E-01  0.44252310264E-01  0.51100000000E-03 0. -1.
         11    1    4    4    0    0 -0.56301474504E-01  0.24777429380E-01 -0.61544314039E-01  0.87015750009E-01  0.51100000000E-03 0.  1.
</event>
<event>
 8    1  0.1042301E+005  0.1043930E+01  0.7957747E-01            NaN
         13   -1    0    0    0    0  0.00000000000E+00  0.00000000000E+00  0.74505805969E-08  0.10566000000E+00  0.10566000000E+00 0.  1.
     999900   -1    0    0    0    0 -0.00000000000E+00 -0.00000000000E+00 -0.74505805969E-08  0.93827000000E+00  0.93827000000E+00 0. -1.
     999902    2    1    2    0    0 -0.71237247326E-03  0.22735478958E-01 -0.58653022355E-02  0.10204393370E+01  0.10201689219E+01 0.  0.
     999903    2    3    3    0    0 -0.11197284490E+00  0.49828433027E-01  0.43936422121E-01  0.13162375847E+00  0.19329093948E-01 0.  0.
         14    1    1    2    0    0  0.71237247326E-03 -0.22735478958E-01  0.58653022355E-02  0.23490663003E-01  0.00000000000E+00 0.  1.
     999901    1    3    3    0    0  0.11126047242E+00 -0.27092954069E-01 -0.49801724357E-01  0.88881557853E+00  0.88000000000E+00 0. -1.
        -11    1    4    4    0    0 -0.30511694306E-01  0.11481325537E-01  0.20756448940E-01  0.38650687175E-01  0.51100000000E-03 0. -1.
         11    1    4    4    0    0 -0.81461150589E-01  0.38347107490E-01  0.23179973182E-01  0.92973071294E-01  0.51100000000E-03 0.  1.
</event>
<event>
 8    1  0.1042301E+005  0.1043930E+01  0.7957747E-01            NaN
         13   -1    0    0    0    0  0.00000000000E+00  0.00000000000E+00  0.74505805969E-08  0.10566000000E+00  0.10566000000E+00 0.  1.
     999900   -1    0    0    0    0 -0.00000000000E+00 -0.00000000000E+00 -0.74505805969E-08  0.93827000000E+00  0.93827000000E+00 0.  1.
     999902    2    1    2    0    0 -0.65161345655E-02  0.44123008678E-02  0.21961446273E-01  0.10206011867E+01  0.10203345278E+01 0.  0.
     999903    2    3    3    0    0 -0.97779498334E-02  0.72720092074E-01  0.10983909245E+00  0.13358423392E+00  0.19907315922E-01 0.  0.
         14    1    1    2    0    0  0.65161345655E-02 -0.44123008678E-02 -0.21961446273E-01  0.23328813322E-01  0.00000000000E+00 0. -1.
     999901    1    3    3    0    0  0.32618152679E-02 -0.68307791206E-01 -0.87877646181E-01  0.88701695276E+00  0.88000000000E+00 0.  1.
        -11    1    4    4    0    0 -0.49806886213E-02  0.48593882245E-01  0.55515500795E-01  0.73948661923E-01  0.51100000000E-03 0.  1.
         11    1    4    4    0    0 -0.47972612121E-02  0.24126209830E-01  0.54323591659E-01  0.59635571999E-01  0.51100000000E-03 0. -1.
</event>
<event>
 8    1  0.1042301E+005  0.1043930E+01  0.7957747E-01            NaN
         13   -1    0    0    0    0  0.00000000000E+00  0.00000000000E+00  0.74505805969E-08  0.10566000000E+00  0.10566000000E+00 0.  1.
     999900   -1    0    0    0    0 -0.00000000000E+00 -0.00000000000E+00 -0.74505805969E-08  0.93827000000E+00  0.93827000000E+00 0. -1.
     999902    2    1    2    0    0 -0.12882619290E-01  0.16522731601E-01  0.10010194990E-01  0.10207100400E+01  0.10204458923E+01 0.  0.
     999903    2    3    3    0    0 -0.67100567044E-01 -0.65248378719E-01  0.90331731725E-01  0.13162193996E+00  0.20116567793E-01 0.  0.
         14    1    1    2    0    0  0.12882619290E-01 -0.16522731601E-01 -0.10010194990E-01  0.23219960014E-01  0.00000000000E+00 0. -1.
     999901    1    3    3    0    0  0.54217947754E-01  0.81771110319E-01 -0.80321536735E-01  0.88908810002E+00  0.88000000000E+00 0. -1.
        -11    1    4    4    0    0 -0.39480159299E-01 -0.25386375488E-01  0.49570373449E-01  0.68268836840E-01  0.51100000000E-03 0.  1.
         11    1    4    4    0    0 -0.27620407745E-01 -0.39862003231E-01  0.40761358276E-01  0.63353103122E-01  0.51100000000E-03 0. -1.
</event>
<event>
 8    1  0.1042301E+005  0.1043930E+01  0.7957747E-01            NaN
         13   -1    0    0    0    0  0.00000000000E+00  0.00000000000E+00  0.74505805969E-08  0.10566000000E+00  0.10566000000E+00 0.  1.
     999900   -1    0    0    0    0 -0.00000000000E+00 -0.00000000000E+00 -0.74505805969E-08  0.93827000000E+00  0.93827000000E+00 0. -1.
     999902    2    1    2    0    0 -0.74313814715E-02 -0.20415680353E-01 -0.12127144190E-01  0.10190484192E+01  0.10187446136E+01 0.  0.
     999903    2    3    3    0    0  0.65588179236E-01  0.10434136005E+00  0.20829342412E-01  0.12664587252E+00  0.20405559271E-01 0.  0.
         14    1    1    2    0    0  0.74313814715E-02  0.20415680353E-01  0.12127144190E-01  0.24881580759E-01  0.00000000000E+00 0.  1.
     999901    1    3    3    0    0 -0.73019560708E-01 -0.12475704041E+00 -0.32956486602E-01  0.89240254672E+00  0.88000000000E+00 0.  1.
        -11    1    4    4    0    0  0.21595449537E-01  0.37809907626E-01 -0.22737812394E-02  0.43604859333E-01  0.51100000000E-03 0.  1.
         11    1    4    4    0    0  0.43992729699E-01  0.66531452427E-01  0.23103123651E-01  0.83041013191E-01  0.51100000000E-03 0. -1.
</event>
<event>
 8    1  0.1042301E+005  0.1043930E+01  0.7957747E-01            NaN
         13   -1    0    0    0    0  0.00000000000E+00  0.00000000000E+00  0.74505805969E-08  0.10566000000E+00  0.10566000000E+00 0.  1.
     999900   -1    0    0    0    0 -0.00000000000E+00 -0.00000000000E+00 -0.74505805969E-08  0.93827000000E+00  0.93827000000E+00 0. -1.
     999902    2    1    2    0    0  0.17507780369E-01  0.35715097453E-02 -0.16166418235E-01  0.10198337112E+01  0.10195490019E+01 0.  0.
     999903    2    3    3    0    0  0.75436725377E-01  0.89571044643E-01 -0.58039764529E-01  0.13275701790E+00  0.23283899166E-01 0.  0.
         14    1    1    2    0    0 -0.17507780369E-01 -0.35715097453E-02  0.16166418235E-01  0.24096288799E-01  0.00000000000E+00 0.  1.
     999901    1    3    3    0    0 -0.57928945008E-01 -0.85999534898E-01  0.41873346294E-01  0.88707669330E+00  0.88000000000E+00 0. -1.
        -11    1    4    4    0    0  0.34717759411E-01  0.28716733765E-01 -0.31041390574E-01  0.54715652847E-01  0.51100000000E-03 0.  1.
         11    1    4    4    0    0  0.40718965966E-01  0.60854310878E-01 -0.26998373955E-01  0.78041365051E-01  0.51100000000E-03 0. -1.
</event>
<event>
 8    1  0.1042301E+005  0.1043930E+01  0.7957747E-01            NaN
         13   -1    0    0    0    0  0.00000000000E+00  0.00000000000E+00  0.74505805969E-08  0.10566000000E+00  0.10566000000E+00 0.  1.
     999900   -1    0    0    0    0 -0.00000000000E+00 -0.00000000000E+00 -0.74505805969E-08  0.93827000000E+00  0.93827000000E+00 0. -1.
     999902    2    1    2    0    0  0.14872876233E-01  0.75610458587E-02 -0.17882369032E-01  0.10194728746E+01  0.10191794695E+01 0.  0.
     999903    2    3    3    0    0 -0.16091076338E-02 -0.71088266634E-01  0.10378039198E+00  0.12747556653E+00  0.20579587465E-01 0.  0.
         14    1    1    2    0    0 -0.14872876233E-01 -0.75610458587E-02  0.17882369032E-01  0.24457125426E-01  0.00000000000E+00 0. -1.
     999901    1    3    3    0    0  0.16481983867E-01  0.78649312493E-01 -0.12166276102E+00  0.89199730805E+00  0.88000000000E+00 0. -1.
        -11    1    4    4    0    0 -0.59257282038E-02 -0.21385653818E-01  0.46410407062E-01  0.51445577542E-01  0.51100000000E-03 0.  1.
         11    1    4    4    0    0  0.43166205700E-02 -0.49702612816E-01  0.57369984921E-01  0.76029988983E-01  0.51100000000E-03 0. -1.
</event>
<event>
 8    1  0.1042301E+005  0.1043930E+01  0.7957747E-01            NaN
         13   -1    0    0    0    0  0.00000000000E+00  0.00000000000E+00  0.74505805969E-08  0.10566000000E+00  0.10566000000E+00 0. -1.
     999900   -1    0    0    0    0 -0.00000000000E+00 -0.00000000000E+00 -0.74505805969E-08  0.93827000000E+00  0.93827000000E+00 0. -1.
     999902    2    1    2    0    0  0.18832287324E-02  0.10469909136E-01  0.21244491830E-01  0.10201709179E+01  0.10198942140E+01 0.  0.
     999903    2    3    3    0    0 -0.24959090544E-02 -0.81033178804E-01  0.10185198584E+00  0.13175121979E+00  0.20296582661E-01 0.  0.
         14    1    1    2    0    0 -0.18832287324E-02 -0.10469909136E-01 -0.21244491830E-01  0.23759082071E-01  0.00000000000E+00 0. -1.
     999901    1    3    3    0    0  0.43791377869E-02  0.91503087940E-01 -0.80607494009E-01  0.88841969814E+00  0.88000000000E+00 0. -1.
        -11    1    4    4    0    0  0.82175625125E-03 -0.17376468231E-01  0.36617244431E-01  0.40542578140E-01  0.51100000000E-03 0.  1.
         11    1    4    4    0    0 -0.33176653057E-02 -0.63656710574E-01  0.65234741408E-01  0.91208641651E-01  0.51100000000E-03 0. -1.
</event>
<event>
 8    1  0.1042301E+005  0.1043930E+01  0.7957747E-01            NaN
         13   -1    0    0    0    0  0.00000000000E+00  0.00000000000E+00  0.74505805969E-08  0.10566000000E+00  0.10566000000E+00 0.  1.
     999900   -1    0    0    0    0 -0.00000000000E+00 -0.00000000000E+00 -0.74505805969E-08  0.93827000000E+00  0.93827000000E+00 0.  1.
     999902    2    1    2    0    0  0.13824101705E-01 -0.17366597359E-01 -0.70895861532E-02  0.10206283536E+01  0.10203623227E+01 0.  0.
     999903    2    3    3    0    0  0.11260410661E-01  0.99402709271E-01  0.78405962151E-01  0.12880374516E+00  0.20861793042E-01 0.  0.
         14    1    1    2    0    0 -0.13824101705E-01  0.17366597359E-01  0.70895861532E-02  0.23301646371E-01  0.00000000000E+00 0. -1.
     999901    1    3    3    0    0  0.25636910438E-02 -0.11676930663E+00 -0.85495548304E-01  0.89182460846E+00  0.88000000000E+00 0.  1.
        -11    1    4    4    0    0 -0.47687424782E-02  0.15983978937E-01  0.81660281652E-02  0.18578848847E-01  0.51100000000E-03 0. -1.
         11    1    4    4    0    0  0.16029153140E-01  0.83418730334E-01  0.70239933986E-01  0.11022489632E+00  0.51100000000E-03 0.  1.
</event>
<event>
 8    1  0.1042301E+005  0.1043930E+01  0.7957747E-01            NaN
         13   -1    0    0    0    0  0.00000000000E+00  0.00000000000E+00  0.74505805969E-08  0.10566000000E+00  0.10566000000E+00 0. -1.
     999900   -1    0    0    0    0 -0.00000000000E+00 -0.00000000000E+00 -0.74505805969E-08  0.93827000000E+00  0.93827000000E+00 0. -1.
     999902    2    1    2    0    0 -0.20442805617E-01  0.13966315688E-01 -0.30395010628E-02  0.10189859658E+01  0.10186806142E+01 0.  0.
     999903    2    3    3    0    0  0.10249857411E+00  0.66934186301E-01 -0.31060764059E-01  0.12842133067E+00  0.23262074641E-01 0.  0.
         14    1    1    2    0    0  0.20442805617E-01 -0.13966315688E-01  0.30395010628E-02  0.24944034199E-01  0.00000000000E+00 0.  1.
     999901    1    3    3    0    0 -0.12294137973E+00 -0.52967870613E-01  0.28021262996E-01  0.89056463513E+00  0.88000000000E+00 0. -1.
        -11    1    4    4    0    0  0.75442132250E-01  0.53357348188E-01 -0.32904362890E-01  0.98089143856E-01  0.51100000000E-03 0. -1.
         11    1    4    4    0    0  0.27056441861E-01  0.13576838113E-01  0.18435988310E-02  0.30332186815E-01  0.51100000000E-03 0.  1.
</event>
<event>
 8    1  0.1042301E+005  0.1043930E+01  0.7957747E-01            NaN
         13   -1    0    0    0    0  0.00000000000E+00  0.00000000000E+00  0.74505805969E-08  0.10566000000E+00  0.10566000000E+00 0.  1.
     999900   -1    0    0    0    0 -0.00000000000E+00 -0.00000000000E+00 -0.74505805969E-08  0.93827000000E+00  0.93827000000E+00 0.  1.
     999902    2    1    2    0    0  0.19065774395E-01  0.93136433259E-02 -0.77213615768E-02  0.10213497624E+01  0.10211001273E+01 0.  0.
     999903    2    3    3    0    0 -0.75838518498E-01  0.10482124671E+00  0.55028961162E-02  0.13101083362E+00  0.19864088458E-01 0.  0.
         14    1    1    2    0    0 -0.19065774395E-01 -0.93136433259E-02  0.77213615768E-02  0.22580237596E-01  0.00000000000E+00 0.  1.
     999901    1    3    3    0    0  0.94904292893E-01 -0.95507603387E-01 -0.13224257693E-01  0.89033892878E+00  0.88000000000E+00 0.  1.
        -11    1    4    4    0    0 -0.63665791674E-01  0.83987597118E-01  0.11848193346E-01  0.10605607152E+00  0.51100000000E-03 0.  1.
         11    1    4    4    0    0 -0.12172726824E-01  0.20833649594E-01 -0.63452972294E-02  0.24954762104E-01  0.51100000000E-03 0. -1.
</event>
<event>
 8    1  0.1042301E+005  0.1043930E+01  0.7957747E-01            NaN
         13   -1    0    0    0    0  0.00000000000E+00  0.00000000000E+00  0.74505805969E-08  0.10566000000E+00  0.10566000000E+00 0.  1.
     999900   -1    0    0    0    0 -0.00000000000E+00 -0.00000000000E+00 -0.74505805969E-08  0.93827000000E+00  0.93827000000E+00 0. -1.
     999902    2    1    2    0    0  0.18002716259E-01  0.13967587790E-01 -0.69824418737E-02  0.10200983866E+01  0.10198199707E+01 0.  0.
     999903    2    3    3    0    0 -0.41658494651E-01 -0.11462490509E+00  0.32815516802E-01  0.12786558807E+00  0.19961248107E-01 0.  0.
         14    1    1    2    0    0 -0.18002716259E-01 -0.13967587790E-01  0.69824418737E-02  0.23831613371E-01  0.00000000000E+00 0.  1.
     999901    1    3    3    0    0  0.59661210910E-01  0.12859249288E+00 -0.39797958676E-01  0.89223279856E+00  0.88000000000E+00 0. -1.
        -11    1    4    4    0    0 -0.36390563732E-01 -0.83356093741E-01  0.17401220426E-01  0.92604401007E-01  0.51100000000E-03 0.  1.
         11    1    4    4    0    0 -0.52679309194E-02 -0.31268811348E-01  0.15414296376E-01  0.35261187062E-01  0.51100000000E-03 0. -1.
</event>
<event>
 8    1  0.1042301E+005  0.1043930E+01  0.7957747E-01            NaN
         13   -1    0    0    0    0  0.00000000000E+00  0.00000000000E+00  0.74505805969E-08  0.10566000000E+00  0.10566000000E+00 0. -1.
     999900   -1    0    0    0    0 -0.00000000000E+00 -0.00000000000E+00 -0.74505805969E-08  0.93827000000E+00  0.93827000000E+00 0. -1.
     999902    2    1    2    0    0  0.36913134894E-02  0.17382877440E-01  0.18473242442E-01  0.10182969957E+01  0.10179743221E+01 0.  0.
     999903    2    3    3    0    0  0.69108676654E-01  0.27303923252E-02 -0.10502460172E+00  0.12714838618E+00  0.18790447361E-01 0.  0.
         14    1    1    2    0    0 -0.36913134894E-02 -0.17382877440E-01 -0.18473242442E-01  0.25633004304E-01  0.00000000000E+00 0.  1.
     999901    1    3    3    0    0 -0.65417363165E-01  0.14652485114E-01  0.12349784416E+00  0.89114860951E+00  0.88000000000E+00 0. -1.
        -11    1    4    4    0    0  0.28777486893E-01 -0.57837938378E-02 -0.54838513989E-01  0.62202248838E-01  0.51100000000E-03 0. -1.
         11    1    4    4    0    0  0.40331189761E-01  0.85141861630E-02 -0.50186087729E-01  0.64946137346E-01  0.51100000000E-03 0.  1.
</event>
<event>
 8    1  0.1042301E+005  0.1043930E+01  0.7957747E-01            NaN
         13   -1    0    0    0    0  0.00000000000E+00  0.00000000000E+00  0.74505805969E-08  0.10566000000E+00  0.10566000000E+00 0. -1.
     999900   -1    0    0    0    0 -0.00000000000E+00 -0.00000000000E+00 -0.74505805969E-08  0.93827000000E+00  0.93827000000E+00 0. -1.
     999902    2    1    2    0    0 -0.19991635327E-01  0.81800985810E-02 -0.90028340219E-02  0.10205284933E+01  0.10202601507E+01 0.  0.
     999903    2    3    3    0    0 -0.74116001792E-01 -0.10431026811E+00  0.21981039565E-01  0.13117843282E+00  0.18729692492E-01 0.  0.
         14    1    1    2    0    0  0.19991635327E-01 -0.81800985810E-02  0.90028340219E-02  0.23401506709E-01  0.00000000000E+00 0. -1.
     999901    1    3    3    0    0  0.54124366465E-01  0.11249036669E+00 -0.30983873587E-01  0.88935006047E+00  0.88000000000E+00 0. -1.
        -11    1    4    4    0    0 -0.50962642518E-01 -0.59146305647E-01  0.18895674890E-01  0.80329222918E-01  0.51100000000E-03 0. -1.
         11    1    4    4    0    0 -0.23153359274E-01 -0.45163962464E-01  0.30853646750E-02  0.50849209898E-01  0.51100000000E-03 0.  1.
</event>
<event>
 8    1  0.1042301E+005  0.1043930E+01  0.7957747E-01            NaN
         13   -1    0    0    0    0  0.00000000000E+00  0.00000000000E+00  0.74505805969E-08  0.10566000000E+00  0.10566000000E+00 0. -1.
     999900   -1    0    0    0    0 -0.00000000000E+00 -0.00000000000E+00 -0.74505805969E-08  0.93827000000E+00  0.93827000000E+00 0.  1.
     999902    2    1    2    0    0  0.10612804710E-01  0.15782072570E-01 -0.96431838107E-02  0.10226063879E+01  0.10223840414E+01 0.  0.
     999903    2    3    3    0    0 -0.12480268846E+00 -0.23225726776E-01  0.23744598652E-01  0.13076912237E+00  0.20533191892E-01 0.  0.
         14    1    1    2    0    0 -0.10612804710E-01 -0.15782072570E-01  0.96431838107E-02  0.21323612087E-01  0.00000000000E+00 0. -1.
     999901    1    3    3    0    0  0.13541549317E+00  0.39007799346E-01 -0.33387782462E-01  0.89183726555E+00  0.88000000000E+00 0.  1.
        -11    1    4    4    0    0 -0.93403418274E-01 -0.23184393722E-01  0.10953165022E-01  0.96860454276E-01  0.51100000000E-03 0.  1.
         11    1    4    4    0    0 -0.31399270182E-01 -0.41333053597E-04  0.12791433630E-01  0.33908668091E-01  0.51100000000E-03 0. -1.
</event>
<event>
 8    1  0.1042301E+005  0.1043930E+01  0.7957747E-01            NaN
         13   -1    0    0    0    0  0.00000000000E+00  0.00000000000E+00  0.74505805969E-08  0.10566000000E+00  0.10566000000E+00 0. -1.
     999900   -1    0    0    0    0 -0.00000000000E+00 -0.00000000000E+00 -0.74505805969E-08  0.93827000000E+00  0.93827000000E+00 0.  1.
     999902    2    1    2    0    0 -0.21907139526E-01  0.23389628197E-02  0.64444290918E-02  0.10209751710E+01  0.10207170889E+01 0.  0.
     999903    2    3    3    0    0 -0.10776974325E+00  0.69003852882E-01 -0.32196122111E-01  0.13344506642E+00  0.19878284660E-01 0.  0.
         14    1    1    2    0    0  0.21907139526E-01 -0.23389628197E-02 -0.64444290918E-02  0.22954829026E-01  0.00000000000E+00 0.  1.
     999901    1    3    3    0    0  0.85862603725E-01 -0.66664890063E-01  0.38640551203E-01  0.88753010455E+00  0.88000000000E+00 0.  1.
        -11    1    4    4    0    0 -0.26088360239E-01  0.12750853823E-01 -0.15337154287E-01  0.32843206844E-01  0.51100000000E-03 0. -1.
         11    1    4    4    0    0 -0.81681383012E-01  0.56252999059E-01 -0.16858967824E-01  0.10060185958E+00  0.51100000000E-03 0.  1.
</event>
<event>
 8    1  0.1042301E+005  0.1043930E+01  0.7957747E-01            NaN
         13   -1    0    0    0    0  0.00000000000E+00  0.00000000000E+00  0.74505805969E-08  0.10566000000E+00  0.10566000000E+00 0. -1.
     999900   -1    0    0    0    0 -0.00000000000E+00 -0.00000000000E+00 -0.74505805969E-08  0.93827000000E+00  0.93827000000E+00 0.  1.
     999902    2    1    2    0    0 -0.20381049162E-01 -0.26395141230E-02 -0.14067770769E-01  0.10190250532E+01  0.10187206696E+01 0.  0.
     999903    2    3    3    0    0 -0.83710859917E-01  0.42926566193E-01 -0.90650803450E-01  0.13226020643E+00  0.20615428341E-01 0.  0.
         14    1    1    2    0    0  0.20381049162E-01  0.26395141230E-02  0.14067770769E-01  0.24904946781E-01  0.00000000000E+00 0. -1.
     999901    1    3    3    0    0  0.63329810755E-01 -0.45566080316E-01  0.76583032681E-01  0.88676484679E+00  0.88000000000E+00 0. -1.
        -11    1    4    4    0    0 -0.68430911046E-01  0.29803199801E-01 -0.80210886540E-01  0.10956764005E+00  0.51100000000E-03 0. -1.
         11    1    4    4    0    0 -0.15279948871E-01  0.13123366392E-01 -0.10439916910E-01  0.22692566383E-01  0.51100000000E-03 0.  1.
</event>
<event>
 8    1  0.1042301E+005  0.1043930E+01  0.7957747E-01            NaN
         13   -1    0    0    0    0  0.00000000000E+00  0.00000000000E+00  0.74505805969E-08  0.10566000000E+00  0.10566000000E+00 0. -1.
     999900   -1    0    0    0    0 -0.00000000000E+00 -0.00000000000E+00 -0.74505805969E-08  0.93827000000E+00  0.93827000000E+00 0. -1.
     999902    2    1    2    0    0 -0.13649582311E-01 -0.80881844854E-02  0.16443181567E-01  0.10210803163E+01  0.10208246197E+01 0.  0.
     999903    2    3    3    0    0  0.45814008161E-01  0.42619593493E-01 -0.10995611792E+00  0.12862080446E+00  0.23186426636E-01 0.  0.
         14    1    1    2    0    0  0.13649582311E-01  0.80881844854E-02 -0.16443181567E-01  0.22849683708E-01  0.00000000000E+00 0. -1.
     999901    1    3    3    0    0 -0.59463590472E-01 -0.50707777979E-01  0.12639929949E+00  0.89245951183E+00  0.88000000000E+00 0.  1.
        -11    1    4    4    0    0  0.34486319003E-01  0.32911280867E-01 -0.60879654436E-01  0.77324330272E-01  0.51100000000E-03 0. -1.
         11    1    4    4    0    0  0.11327689158E-01  0.97083126261E-02 -0.49076463482E-01  0.51296474193E-01  0.51100000000E-03 0.  1.
</event>
<event>
 8    1  0.1042301E+005  0.1043930E+01  0.7957747E-01            NaN
         13   -1    0    0    0    0  0.00000000000E+00  0.00000000000E+00  0.74505805969E-08  0.10566000000E+00  0.10566000000E+00 0.  1.
     999900   -1    0    0    0    0 -0.00000000000E+00 -0.00000000000E+00 -0.74505805969E-08  0.93827000000E+00  0.93827000000E+00 0.  1.
     999902    2    1    2    0    0  0.66133025982E-02  0.31802274238E-02  0.21650681194E-01  0.10210695185E+01  0.10208135775E+01 0.  0.
     999903    2    3    3    0    0 -0.15676837568E-01 -0.92258377605E-01  0.92131457404E-01  0.13282804375E+00  0.19942725175E-01 0.  0.
         14    1    1    2    0    0 -0.66133025982E-02 -0.31802274238E-02 -0.21650681194E-01  0.22860481489E-01  0.00000000000E+00 0. -1.
     999901    1    3    3    0    0  0.22290140166E-01  0.95438605029E-01 -0.70480776210E-01  0.88824147477E+00  0.88000000000E+00 0.  1.
        -11    1    4    4    0    0 -0.83512240783E-02 -0.79030563428E-01  0.69327054536E-01  0.10546124649E+00  0.51100000000E-03 0.  1.
         11    1    4    4    0    0 -0.73256134899E-02 -0.13227814177E-01  0.22804402868E-01  0.27366797257E-01  0.51100000000E-03 0. -1.
</event>
<event>
 8    1  0.1042301E+005  0.1043930E+01  0.7957747E-01            NaN
         13   -1    0    0    0    0  0.00000000000E+00  0.00000000000E+00  0.74505805969E-08  0.10566000000E+00  0.10566000000E+00 0.  1.
     999900   -1    0    0    0    0 -0.00000000000E+00 -0.00000000000E+00 -0.74505805969E-08  0.93827000000E+00  0.93827000000E+00 0. -1.
     999902    2    1    2    0    0  0.19912246265E-01  0.12535512926E-01 -0.27073756297E-02  0.10202452682E+01  0.10199703137E+01 0.  0.
     999903    2    3    3    0    0  0.91252957276E-01  0.52290530402E-01 -0.79418483176E-01  0.13314067887E+00  0.18914098418E-01 0.  0.
         14    1    1    2    0    0 -0.19912246265E-01 -0.12535512926E-01  0.27073756297E-02  0.23684731758E-01  0.00000000000E+00 0. -1.
     999901    1    3    3    0    0 -0.71340711011E-01 -0.39755017476E-01  0.76711107547E-01  0.88710458937E+00  0.88000000000E+00 0.  1.
        -11    1    4    4    0    0  0.55969049015E-01  0.39224557776E-01 -0.59214699979E-01  0.90430869701E-01  0.51100000000E-03 0.  1.
         11    1    4    4    0    0  0.35283908261E-01  0.13065972626E-01 -0.20203783197E-01  0.42709809170E-01  0.51100000000E-03 0. -1.
</event>
<event>
 8    1  0.1042301E+005  0.1043930E+01  0.7957747E-01            NaN
         13   -1    0    0    0    0  0.00000000000E+00  0.00000000000E+00  0.74505805969E-08  0.10566000000E+00  0.10566000000E+00 0.  1.
     999900   -1    0    0    0    0 -0.00000000000E+00 -0.00000000000E+00 -0.74505805969E-08  0.93827000000E+00  0.93827000000E+00 0. -1.
     999902    2    1    2    0    0 -0.12959394241E-01  0.57587114707E-02  0.20324323523E-01  0.10191472079E+01  0.10188458395E+01 0.  0.
     999903    2    3    3    0    0 -0.20107831329E-01 -0.11822061925E+00 -0.40285568231E-01  0.12836354530E+00  0.21767706776E-01 0.  0.
         14    1    1    2    0    0  0.12959394241E-01 -0.57587114707E-02 -0.20324323523E-01  0.24782792086E-01  0.00000000000E+00 0.  1.
     999901    1    3    3    0    0  0.71484370872E-02  0.12397933072E+00  0.60609891753E-01  0.89078366261E+00  0.88000000000E+00 0.  1.
        -11    1    4    4    0    0 -0.73629673583E-02 -0.25930889595E-01 -0.18457692275E-01  0.32673718010E-01  0.51100000000E-03 0. -1.
         11    1    4    4    0    0 -0.12744863970E-01 -0.92289729655E-01 -0.21827875956E-01  0.95689827292E-01  0.51100000000E-03 0.  1.
</event>
<event>
 8    1  0.1042301E+005  0.1043930E+01  0.7957747E-01            NaN
         13   -1    0    0    0    0  0.00000000000E+00  0.00000000000E+00  0.74505805969E-08  0.10566000000E+00  0.10566000000E+00 0.  1.
     999900   -1    0    0    0    0 -0.00000000000E+00 -0.00000000000E+00 -0.74505805969E-08  0.93827000000E+00  0.93827000000E+00 0. -1.
     999902    2    1    2    0    0  0.23904559574E-01 -0.10031272505E-03  0.62575732077E-02  0.10192197743E+01  0.10189201898E+01 0.  0.
     999903    2    3    3    0    0 -0.50287661879E-01 -0.14370855171E-01 -0.11513086166E+00  0.12767993436E+00  0.17654458822E-01 0.  0.
         14    1    1    2    0    0 -0.23904559574E-01  0.10031272505E-03 -0.62575732077E-02  0.24710225687E-01  0.00000000000E+00 0. -1.
     999901    1    3    3    0    0  0.74192221452E-01  0.14270542446E-01  0.12138843487E+00  0.89153983995E+00  0.88000000000E+00 0.  1.
        -11    1    4    4    0    0 -0.14698112348E-01  0.92088124617E-03 -0.47576324313E-01  0.49806126983E-01  0.51100000000E-03 0. -1.
         11    1    4    4    0    0 -0.35589549531E-01 -0.15291736417E-01 -0.67554537345E-01  0.77873807377E-01  0.51100000000E-03 0.  1.
</event>
<event>
 8    1  0.1640455E+005  0.1043930E+01  0.7957747E-01            NaN
         13   -1    0    0    0    0  0.00000000000E+00  0.00000000000E+00  0.74505805969E-08  0.10566000000E+00  0.10566000000E+00 0.  1.
     999900   -1    0    0    0    0 -0.00000000000E+00 -0.00000000000E+00 -0.74505805969E-08  0.93827000000E+00  0.93827000000E+00 0. -1.
     999902    2    1    2    0    0  0.91180797276E-02 -0.20352172752E-01 -0.98132539000E-02  0.10195650607E+01  0.10192738900E+01 0.  0.
     999903    2    3    3    0    0 -0.52105452573E-01 -0.11372145884E+00  0.34848598866E-01  0.13138668586E+00  0.20012196008E-01 0.  0.
         14    1    1    2    0    0 -0.91180797276E-02  0.20352172752E-01  0.98132539000E-02  0.24364939273E-01  0.00000000000E+00 0. -1.
     999901    1    3    3    0    0  0.61223532301E-01  0.93369286089E-01 -0.44661852766E-01  0.88817837487E+00  0.88000000000E+00 0.  1.
        -11    1    4    4    0    0 -0.35442027591E-01 -0.72031597623E-01  0.31913981280E-01  0.86391270960E-01  0.51100000000E-03 0.  1.
         11    1    4    4    0    0 -0.16663424982E-01 -0.41689861218E-01  0.29346175867E-02  0.44995414899E-01  0.51100000000E-03 0. -1.
</event>
<event>
 8    1  0.1042301E+005  0.1043930E+01  0.7957747E-01            NaN
         13   -1    0    0    0    0  0.00000000000E+00  0.00000000000E+00  0.74505805969E-08  0.10566000000E+00  0.10566000000E+00 0.  1.
     999900   -1    0    0    0    0 -0.00000000000E+00 -0.00000000000E+00 -0.74505805969E-08  0.93827000000E+00  0.93827000000E+00 0. -1.
     999902    2    1    2    0    0 -0.10992888409E-01 -0.75562019327E-03  0.23032678333E-01  0.10183972988E+01  0.10180771776E+01 0.  0.
     999903    2    3    3    0    0  0.70903028937E-01  0.83526805178E-01  0.66658361227E-01  0.12951391576E+00  0.18070709956E-01 0.  0.
         14    1    1    2    0    0  0.10992888409E-01  0.75562019327E-03 -0.23032678333E-01  0.25532701162E-01  0.00000000000E+00 0. -1.
     999901    1    3    3    0    0 -0.81895917346E-01 -0.84282425371E-01 -0.43625682894E-01  0.88888338308E+00  0.88000000000E+00 0. -1.
        -11    1    4    4    0    0  0.65501279088E-01  0.67236456399E-01  0.55977226776E-01  0.10929258744E+00  0.51100000000E-03 0. -1.
         11    1    4    4    0    0  0.54017498490E-02  0.16290348779E-01  0.10681134451E-01  0.20221328318E-01  0.51100000000E-03 0.  1.
</event>
<event>
 8    1  0.1042301E+005  0.1043930E+01  0.7957747E-01            NaN
         13   -1    0    0    0    0  0.00000000000E+00  0.00000000000E+00  0.74505805969E-08  0.10566000000E+00  0.10566000000E+00 0. -1.
     999900   -1    0    0    0    0 -0.00000000000E+00 -0.00000000000E+00 -0.74505805969E-08  0.93827000000E+00  0.93827000000E+00 0. -1.
     999902    2    1    2    0    0 -0.14735460298E-01  0.12008551788E-01  0.11762773137E-01  0.10215759861E+01  0.10213313828E+01 0.  0.
     999903    2    3    3    0    0 -0.73806141674E-01  0.10998077945E+00 -0.43307395556E-02  0.13402491491E+00  0.20020092791E-01 0.  0.
         14    1    1    2    0    0  0.14735460298E-01 -0.12008551788E-01 -0.11762773137E-01  0.22354013915E-01  0.00000000000E+00 0.  1.
     999901    1    3    3    0    0  0.59070681376E-01 -0.97972227659E-01  0.16093512692E-01  0.88755107117E+00  0.88000000000E+00 0. -1.
        -11    1    4    4    0    0 -0.44613273804E-01  0.48594164014E-01 -0.13659455764E-02  0.65983815470E-01  0.51100000000E-03 0.  1.
         11    1    4    4    0    0 -0.29192867870E-01  0.61386615434E-01 -0.29647939793E-02  0.68041099442E-01  0.51100000000E-03 0. -1.
</event>
<event>
 8    1  0.1042301E+005  0.1043930E+01  0.7957747E-01            NaN
         13   -1    0    0    0    0  0.00000000000E+00  0.00000000000E+00  0.74505805969E-08  0.10566000000E+00  0.10566000000E+00 0. -1.
     999900   -1    0    0    0    0 -0.00000000000E+00 -0.00000000000E+00 -0.74505805969E-08  0.93827000000E+00  0.93827000000E+00 0.  1.
     999902    2    1    2    0    0 -0.95316333990E-02 -0.19782182859E-01 -0.89558310936E-02  0.10202151586E+01  0.10199394963E+01 0.  0.
     999903    2    3    3    0    0 -0.19667376393E-02  0.11004532901E-01  0.12710293284E+00  0.12919493614E+00  0.20278268841E-01 0.  0.
         14    1    1    2    0    0  0.95316333990E-02  0.19782182859E-01  0.89558310936E-02  0.23714841440E-01  0.00000000000E+00 0.  1.
     999901    1    3    3    0    0 -0.75648957597E-02 -0.30786715761E-01 -0.13605876393E+00  0.89102022242E+00  0.88000000000E+00 0.  1.
        -11    1    4    4    0    0 -0.91468763010E-02  0.79134007724E-02  0.41369650820E-01  0.43104482224E-01  0.51100000000E-03 0.  1.
         11    1    4    4    0    0  0.71801386616E-02  0.30911321290E-02  0.85733282020E-01  0.86090453919E-01  0.51100000000E-03 0. -1.
</event>
<event>
 8    1  0.1042301E+005  0.1043930E+01  0.7957747E-01            NaN
         13   -1    0    0    0    0  0.00000000000E+00  0.00000000000E+00  0.74505805969E-08  0.10566000000E+00  0.10566000000E+00 0. -1.
     999900   -1    0    0    0    0 -0.00000000000E+00 -0.00000000000E+00 -0.74505805969E-08  0.93827000000E+00  0.93827000000E+00 0. -1.
     999902    2    1    2    0    0  0.83462859821E-03 -0.43890918548E-02  0.23410954247E-01  0.10200965464E+01  0.10198180869E+01 0.  0.
     999903    2    3    3    0    0 -0.38264314058E-01 -0.11451991745E+00 -0.43322010063E-01  0.12986578159E+00  0.20232534446E-01 0.  0.
         14    1    1    2    0    0 -0.83462859821E-03  0.43890918548E-02 -0.23410954247E-01  0.23833453610E-01  0.00000000000E+00 0.  1.
     999901    1    3    3    0    0  0.39098942656E-01  0.11013082560E+00  0.66732964310E-01  0.89023076480E+00  0.88000000000E+00 0.  1.
        -11    1    4    4    0    0 -0.13420381569E-01 -0.16569164461E-01 -0.88919012953E-02  0.23107809979E-01  0.51100000000E-03 0. -1.
         11    1    4    4    0    0 -0.24843932489E-01 -0.97950752989E-01 -0.34430108768E-01  0.10675797162E+00  0.51100000000E-03 0.  1.
</event>
<event>
 8    1  0.1042301E+005  0.1043930E+01  0.7957747E-01            NaN
         13   -1    0    0    0    0  0.00000000000E+00  0.00000000000E+00  0.74505805969E-08  0.10566000000E+00  0.10566000000E+00 0.  1.
     999900   -1    0    0    0    0 -0.00000000000E+00 -0.00000000000E+00 -0.74505805969E-08  0.93827000000E+00  0.93827000000E+00 0.  1.
     999902    2    1    2    0    0 -0.11111040769E-01  0.22523676968E-01  0.20668153119E-02  0.10187299409E+01  0.10184182096E+01 0.  0.
     999903    2    3    3    0    0 -0.54042095238E-01 -0.98727780963E-01 -0.56720173478E-01  0.12743823698E+00  0.18857448782E-01 0.  0.
         14    1    1    2    0    0  0.11111040769E-01 -0.22523676968E-01 -0.20668153119E-02  0.25200059061E-01  0.00000000000E+00 0.  1.
     999901    1    3    3    0    0  0.42931054469E-01  0.12125145793E+00  0.58786988790E-01  0.89129170396E+00  0.88000000000E+00 0. -1.
        -11    1    4    4    0    0 -0.25938092830E-01 -0.42284982572E-01 -0.14985884651E-01  0.51823182752E-01  0.51100000000E-03 0.  1.
         11    1    4    4    0    0 -0.28104002408E-01 -0.56442798392E-01 -0.41734288828E-01  0.75615054232E-01  0.51100000000E-03 0. -1.
</event>
<event>
 8    1  0.1042301E+005  0.1043930E+01  0.7957747E-01            NaN
         13   -1    0    0    0    0  0.00000000000E+00  0.00000000000E+00  0.74505805969E-08  0.10566000000E+00  0.10566000000E+00 0. -1.
     999900   -1    0    0    0    0 -0.00000000000E+00 -0.00000000000E+00 -0.74505805969E-08  0.93827000000E+00  0.93827000000E+00 0.  1.
     999902    2    1    2    0    0 -0.52977986665E-02 -0.23499433535E-01  0.57561631069E-02  0.10191626130E+01  0.10188616237E+01 0.  0.
     999903    2    3    3    0    0  0.44093021709E-01  0.11468790094E+00 -0.18268413182E-01  0.12668719435E+00  0.24867671936E-01 0.  0.
         14    1    1    2    0    0  0.52977986665E-02  0.23499433535E-01 -0.57561631069E-02  0.24767387042E-01  0.00000000000E+00 0.  1.
     999901    1    3    3    0    0 -0.49390820375E-01 -0.13818733448E+00  0.24024576289E-01  0.89247541860E+00  0.88000000000E+00 0. -1.
        -11    1    4    4    0    0  0.14642271382E-01  0.18011226655E-01 -0.10017767310E-01  0.25286699661E-01  0.51100000000E-03 0.  1.
         11    1    4    4    0    0  0.29450750327E-01  0.96676674286E-01 -0.82506458716E-02  0.10140049469E+00  0.51100000000E-03 0. -1.
</event>
<event>
 8    1  0.1042301E+005  0.1043930E+01  0.7957747E-01            NaN
         13   -1    0    0    0    0  0.00000000000E+00  0.00000000000E+00  0.74505805969E-08  0.10566000000E+00  0.10566000000E+00 0.  1.
     999900   -1    0    0    0    0 -0.00000000000E+00 -0.00000000000E+00 -0.74505805969E-08  0.93827000000E+00  0.93827000000E+00 0.  1.
     999902    2    1    2    0    0 -0.23572315688E-01 -0.16801220547E-02 -0.43452509516E-02  0.10199017233E+01  0.10196186380E+01 0.  0.
     999903    2    3    3    0    0  0.11705871462E+00  0.45164496885E-01  0.25739329911E-03  0.12749335859E+00  0.22625556042E-01 0.  0.
         14    1    1    2    0    0  0.23572315688E-01  0.16801220547E-02  0.43452509516E-02  0.24028276735E-01  0.00000000000E+00 0. -1.
     999901    1    3    3    0    0 -0.14063103031E+00 -0.46844618940E-01 -0.46026442507E-02  0.89240836468E+00  0.88000000000E+00 0.  1.
        -11    1    4    4    0    0  0.67978218525E-01  0.25003539822E-01 -0.10963231701E-01  0.73257550927E-01  0.51100000000E-03 0.  1.
         11    1    4    4    0    0  0.49080496093E-01  0.20160957063E-01  0.11220625000E-01  0.54235807662E-01  0.51100000000E-03 0. -1.
</event>
<event>
 8    1  0.1042301E+005  0.1043930E+01  0.7957747E-01            NaN
         13   -1    0    0    0    0  0.00000000000E+00  0.00000000000E+00  0.74505805969E-08  0.10566000000E+00  0.10566000000E+00 0. -1.
     999900   -1    0    0    0    0 -0.00000000000E+00 -0.00000000000E+00 -0.74505805969E-08  0.93827000000E+00  0.93827000000E+00 0.  1.
     999902    2    1    2    0    0  0.16808554569E-01 -0.69909552874E-02 -0.15625678948E-01  0.10199391100E+01  0.10196569154E+01 0.  0.
     999903    2    3    3    0    0 -0.12289867706E+00 -0.29634255490E-01  0.84721254278E-02  0.12830491715E+00  0.20201508214E-01 0.  0.
         14    1    1    2    0    0 -0.16808554569E-01  0.69909552874E-02  0.15625678948E-01  0.23990890044E-01  0.00000000000E+00 0. -1.
     999901    1    3    3    0    0  0.13970723162E+00  0.22643300202E-01 -0.24097804376E-01  0.89163419281E+00  0.88000000000E+00 0. -1.
        -11    1    4    4    0    0 -0.10576550739E+00 -0.27672030901E-01  0.56918422254E-03  0.10932826231E+00  0.51100000000E-03 0.  1.
         11    1    4    4    0    0 -0.17133169662E-01 -0.19622245887E-02  0.79029412052E-02  0.18976654834E-01  0.51100000000E-03 0. -1.
</event>
<event>
 8    1  0.1042301E+005  0.1043930E+01  0.7957747E-01            NaN
         13   -1    0    0    0    0  0.00000000000E+00  0.00000000000E+00  0.74505805969E-08  0.10566000000E+00  0.10566000000E+00 0. -1.
     999900   -1    0    0    0    0 -0.00000000000E+00 -0.00000000000E+00 -0.74505805969E-08  0.93827000000E+00  0.93827000000E+00 0. -1.
     999902    2    1    2    0    0 -0.16003234390E-01  0.10615152462E-01  0.13747766918E-01  0.10203125050E+01  0.10200391276E+01 0.  0.
     999903    2    3    3    0    0 -0.36538661791E-01  0.10241103694E+00 -0.71206197177E-01  0.13123131404E+00  0.18117421844E-01 0.  0.
         14    1    1    2    0    0  0.16003234390E-01 -0.10615152462E-01 -0.13747766918E-01  0.23617494955E-01  0.00000000000E+00 0.  1.
     999901    1    3    3    0    0  0.20535427400E-01 -0.91795884482E-01  0.84953964095E-01  0.88908119101E+00  0.88000000000E+00 0.  1.
        -11    1    4    4    0    0 -0.50648533644E-02  0.34364845442E-01 -0.28590047438E-01  0.44991635616E-01  0.51100000000E-03 0. -1.
         11    1    4    4    0    0 -0.31473808426E-01  0.68046191502E-01 -0.42616149739E-01  0.86239678422E-01  0.51100000000E-03 0.  1.
</event>
<event>
 7    1  0.1042301E+005  0.1043930E+01  0.7957747E-01            NaN
         13   -1    0    0    0    0  0.00000000000E+00  0.00000000000E+00  0.74505805969E-08  0.10566000000E+00  0.10566000000E+00 0.  1.
     999900   -1    0    0    0    0 -0.00000000000E+00 -0.00000000000E+00 -0.74505805969E-08  0.93827000000E+00  0.93827000000E+00 0.  1.
     999902    2    1    2    0    0 -0.24435052944E-01 -0.11414311684E-01 -0.13454489756E-01  0.10137906301E+01  0.10133425186E+01 0.  0.
         14    1    1    2    0    0  0.24435052944E-01  0.11414311684E-01  0.13454489756E-01  0.30139369904E-01  0.00000000000E+00 0.  1.
     999901    1    3    3    0    0  0.98941573577E-01 -0.40761488527E-01 -0.34006385366E-02  0.88648885964E+00  0.88000000000E+00 0.  1.
        -11    1    3    3    0    0 -0.67824825241E-01  0.15371287539E-01 -0.33744934829E-02  0.69628526675E-01  0.51100000000E-03 0.  1.
         11    1    3    3    0    0 -0.55551801279E-01  0.13975889304E-01 -0.66793577370E-02  0.57673243779E-01  0.51100000000E-03 0. -1.
</event>
<event>
 8    1  0.1042301E+005  0.1043930E+01  0.7957747E-01            NaN
         13   -1    0    0    0    0  0.00000000000E+00  0.00000000000E+00  0.74505805969E-08  0.10566000000E+00  0.10566000000E+00 0.  1.
     999900   -1    0    0    0    0 -0.00000000000E+00 -0.00000000000E+00 -0.74505805969E-08  0.93827000000E+00  0.93827000000E+00 0. -1.
     999902    2    1    2    0    0 -0.78088785876E-03  0.14037566231E-01 -0.18980518325E-01  0.10203096036E+01  0.10200361582E+01 0.  0.
     999903    2    3    3    0    0 -0.89677294327E-01 -0.89411260232E-01 -0.18742156040E-01  0.12980172175E+00  0.21466904315E-01 0.  0.
         14    1    1    2    0    0  0.78088785876E-03 -0.14037566231E-01  0.18980518325E-01  0.23620396428E-01  0.00000000000E+00 0.  1.
     999901    1    3    3    0    0  0.88896406469E-01  0.10344882646E+00 -0.23836228515E-03  0.89050788183E+00  0.88000000000E+00 0.  1.
        -11    1    4    4    0    0 -0.48023155194E-01 -0.51179544453E-01  0.15831898558E-03  0.70184438383E-01  0.51100000000E-03 0. -1.
         11    1    4    4    0    0 -0.41654139133E-01 -0.38231715779E-01 -0.18900475025E-01  0.59617283362E-01  0.51100000000E-03 0.  1.
</event>
<event>
 8    1  0.1042301E+005  0.1043930E+01  0.7957747E-01            NaN
         13   -1    0    0    0    0  0.00000000000E+00  0.00000000000E+00  0.74505805969E-08  0.10566000000E+00  0.10566000000E+00 0. -1.
     999900   -1    0    0    0    0 -0.00000000000E+00 -0.00000000000E+00 -0.74505805969E-08  0.93827000000E+00  0.93827000000E+00 0. -1.
     999902    2    1    2    0    0  0.12426604324E-01 -0.21589977478E-03 -0.19992378854E-01  0.10203893475E+01  0.10201177668E+01 0.  0.
     999903    2    3    3    0    0  0.14480049308E-01  0.11062540160E-01  0.12549273109E+00  0.12837066101E+00  0.19963702799E-01 0.  0.
         14    1    1    2    0    0 -0.12426604324E-01  0.21589977478E-03  0.19992378854E-01  0.23540652497E-01  0.00000000000E+00 0. -1.
     999901    1    3    3    0    0 -0.20534449841E-02 -0.11278439935E-01 -0.14548510994E+00  0.89201868650E+00  0.88000000000E+00 0. -1.
        -11    1    4    4    0    0  0.21202326431E-02 -0.43964620528E-02  0.52872632592E-01  0.53099912083E-01  0.51100000000E-03 0. -1.
         11    1    4    4    0    0  0.12359816665E-01  0.15459002213E-01  0.72620098494E-01  0.75270748924E-01  0.51100000000E-03 0.  1.
</event>
<event>
 8    1  0.1042301E+005  0.1043930E+01  0.7957747E-01            NaN
         13   -1    0    0    0    0  0.00000000000E+00  0.00000000000E+00  0.74505805969E-08  0.10566000000E+00  0.10566000000E+00 0.  1.
     999900   -1    0    0    0    0 -0.00000000000E+00 -0.00000000000E+00 -0.74505805969E-08  0.93827000000E+00  0.93827000000E+00 0. -1.
     999902    2    1    2    0    0 -0.14446347429E-01  0.19426488065E-01 -0.25450373508E-02  0.10195873911E+01  0.10192967603E+01 0.  0.
     999903    2    3    3    0    0  0.48051221506E-01  0.12061526210E+00  0.16951216184E-02  0.13157664057E+00  0.21273870565E-01 0.  0.
         14    1    1    2    0    0  0.14446347429E-01 -0.19426488065E-01  0.25450373508E-02  0.24342608893E-01  0.00000000000E+00 0. -1.
     999901    1    3    3    0    0 -0.62497568935E-01 -0.10118877403E+00 -0.42401589692E-02  0.88801075053E+00  0.88000000000E+00 0.  1.
        -11    1    4    4    0    0  0.40785040567E-01  0.75360150746E-01  0.26072555306E-02  0.85729987501E-01  0.51100000000E-03 0. -1.
         11    1    4    4    0    0  0.72661809388E-02  0.45255111351E-01 -0.91213391216E-03  0.45846653074E-01  0.51100000000E-03 0.  1.
</event>
<event>
 8    1  0.1042301E+005  0.1043930E+01  0.7957747E-01            NaN
         13   -1    0    0    0    0  0.00000000000E+00  0.00000000000E+00  0.74505805969E-08  0.10566000000E+00  0.10566000000E+00 0.  1.
     999900   -1    0    0    0    0 -0.00000000000E+00 -0.00000000000E+00 -0.74505805969E-08  0.93827000000E+00  0.93827000000E+00 0.  1.
     999902    2    1    2    0    0 -0.10547567394E-01 -0.14728890055E-01 -0.12096858947E-01  0.10221463966E+01  0.10219142482E+01 0.  0.
     999903    2    3    3    0    0 -0.15016091757E-01  0.11554311671E+00  0.54538442024E-01  0.13005277664E+00  0.19067989494E-01 0.  0.
         14    1    1    2    0    0  0.10547567394E-01  0.14728890055E-01  0.12096858947E-01  0.21783603388E-01  0.00000000000E+00 0.  1.
     999901    1    3    3    0    0  0.44685243630E-02 -0.13027200676E+00 -0.66635300971E-01  0.89209361997E+00  0.88000000000E+00 0.  1.
        -11    1    4    4    0    0 -0.13165299682E-01  0.90776480152E-01  0.34018492464E-01  0.97832578495E-01  0.51100000000E-03 0. -1.
         11    1    4    4    0    0 -0.18507920756E-02  0.24766636556E-01  0.20519949560E-01  0.32220198146E-01  0.51100000000E-03 0.  1.
</event>
<event>
 8    1  0.1042301E+005  0.1043930E+01  0.7957747E-01            NaN
         13   -1    0    0    0    0  0.00000000000E+00  0.00000000000E+00  0.74505805969E-08  0.10566000000E+00  0.10566000000E+00 0.  1.
     999900   -1    0    0    0    0 -0.00000000000E+00 -0.00000000000E+00 -0.74505805969E-08  0.93827000000E+00  0.93827000000E+00 0.  1.
     999902    2    1    2    0    0 -0.16286665997E-02  0.16761358473E-01  0.16137118911E-01  0.10206061431E+01  0.10203395989E+01 0.  0.
     999903    2    3    3    0    0 -0.63724652533E-02  0.95318697822E-01 -0.87524194572E-01  0.13103353389E+00  0.19571405161E-01 0.  0.
         14    1    1    2    0    0  0.16286665997E-02 -0.16761358473E-01 -0.16137118911E-01  0.23323856875E-01  0.00000000000E+00 0.  1.
     999901    1    3    3    0    0  0.47437986536E-02 -0.78557339349E-01  0.10366131348E+00  0.88957260924E+00  0.88000000000E+00 0. -1.
        -11    1    4    4    0    0 -0.98093944765E-02  0.22076525521E-01 -0.23060705624E-01  0.33401414101E-01  0.51100000000E-03 0.  1.
         11    1    4    4    0    0  0.34369292232E-02  0.73242172301E-01 -0.64463488948E-01  0.97632119788E-01  0.51100000000E-03 0. -1.
</event>
<event>
 8    1  0.1042301E+005  0.1043930E+01  0.7957747E-01            NaN
         13   -1    0    0    0    0  0.00000000000E+00  0.00000000000E+00  0.74505805969E-08  0.10566000000E+00  0.10566000000E+00 0.  1.
     999900   -1    0    0    0    0 -0.00000000000E+00 -0.00000000000E+00 -0.74505805969E-08  0.93827000000E+00  0.93827000000E+00 0.  1.
     999902    2    1    2    0    0  0.12493937668E-01 -0.26637432315E-02  0.20850736312E-01  0.10194770408E+01  0.10191837369E+01 0.  0.
     999903    2    3    3    0    0  0.80298491167E-01 -0.78615897423E-02  0.10430151915E+00  0.13291711155E+00  0.16688300363E-01 0.  0.
         14    1    1    2    0    0 -0.12493937668E-01  0.26637432315E-02 -0.20850736312E-01  0.24452959150E-01  0.00000000000E+00 0. -1.
     999901    1    3    3    0    0 -0.67804553499E-01  0.51978465107E-02 -0.83450782837E-01  0.88655992930E+00  0.88000000000E+00 0. -1.
        -11    1    4    4    0    0  0.28472887871E-01  0.50990192856E-02  0.38523861852E-01  0.48177322408E-01  0.51100000000E-03 0. -1.
         11    1    4    4    0    0  0.51825603296E-01 -0.12960609028E-01  0.65777657297E-01  0.84739789142E-01  0.51100000000E-03 0.  1.
</event>
<event>
 8    1  0.1042301E+005  0.1043930E+01  0.7957747E-01            NaN
         13   -1    0    0    0    0  0.00000000000E+00  0.00000000000E+00  0.74505805969E-08  0.10566000000E+00  0.10566000000E+00 0.  1.
     999900   -1    0    0    0    0 -0.00000000000E+00 -0.00000000000E+00 -0.74505805969E-08  0.93827000000E+00  0.93827000000E+00 0. -1.
     999902    2    1    2    0    0  0.14689685517E-02 -0.22380336889E-01 -0.64809892560E-02  0.10205838961E+01  0.10203168372E+01 0.  0.
     999903    2    3    3    0    0  0.96811797711E-01 -0.88286826115E-01  0.88040442925E-02  0.13285220649E+00  0.20127337943E-01 0.  0.
         14    1    1    2    0    0 -0.14689685517E-02  0.22380336889E-01  0.64809892560E-02  0.23346103949E-01  0.00000000000E+00 0.  1.
     999901    1    3    3    0    0 -0.95342829159E-01  0.65906489226E-01 -0.15285033548E-01  0.88773168956E+00  0.88000000000E+00 0. -1.
        -11    1    4    4    0    0  0.56447350445E-01 -0.56581875171E-01 -0.37362666870E-02  0.80012703866E-01  0.51100000000E-03 0. -1.
         11    1    4    4    0    0  0.40364447266E-01 -0.31704950944E-01  0.12540310979E-01  0.52839502627E-01  0.51100000000E-03 0.  1.
</event>
<event>
 8    1  0.1042301E+005  0.1043930E+01  0.7957747E-01            NaN
         13   -1    0    0    0    0  0.00000000000E+00  0.00000000000E+00  0.74505805969E-08  0.10566000000E+00  0.10566000000E+00 0.  1.
     999900   -1    0    0    0    0 -0.00000000000E+00 -0.00000000000E+00 -0.74505805969E-08  0.93827000000E+00  0.93827000000E+00 0. -1.
     999902    2    1    2    0    0 -0.20593788535E-01 -0.79442199143E-02 -0.52534141843E-02  0.10212405065E+01  0.10209884225E+01 0.  0.
     999903    2    3    3    0    0  0.97758775542E-01  0.15206889200E-01  0.80224736834E-01  0.12891219380E+00  0.19857432778E-01 0.  0.
         14    1    1    2    0    0  0.20593788535E-01  0.79442199143E-02  0.52534141843E-02  0.22689493534E-01  0.00000000000E+00 0. -1.
     999901    1    3    3    0    0 -0.11835256408E+00 -0.23151109115E-01 -0.85478151018E-01  0.89232831266E+00  0.88000000000E+00 0. -1.
        -11    1    4    4    0    0  0.67630742057E-01  0.73512699399E-02  0.43441005971E-01  0.80717659540E-01  0.51100000000E-03 0. -1.
         11    1    4    4    0    0  0.30128033485E-01  0.78556192605E-02  0.36783730863E-01  0.48194534263E-01  0.51100000000E-03 0.  1.
</event>
<event>
 8    1  0.1042301E+005  0.1043930E+01  0.7957747E-01            NaN
         13   -1    0    0    0    0  0.00000000000E+00  0.00000000000E+00  0.74505805969E-08  0.10566000000E+00  0.10566000000E+00 0.  1.
     999900   -1    0    0    0    0 -0.00000000000E+00 -0.00000000000E+00 -0.74505805969E-08  0.93827000000E+00  0.93827000000E+00 0.  1.
     999902    2    1    2    0    0 -0.43650902532E-02  0.21428554326E-01  0.65453665781E-02  0.10211028500E+01  0.10208476632E+01 0.  0.
     999903    2    3    3    0    0  0.11919600677E+00 -0.18569299709E-01 -0.44160280724E-01  0.13012684825E+00  0.20745103530E-01 0.  0.
         14    1    1    2    0    0  0.43650902532E-02 -0.21428554326E-01 -0.65453665781E-02  0.22827149998E-01  0.00000000000E+00 0.  1.
     999901    1    3    3    0    0 -0.12356109702E+00  0.39997854035E-01  0.50705647302E-01  0.89097600175E+00  0.88000000000E+00 0. -1.
        -11    1    4    4    0    0  0.11884010673E-01  0.43028576978E-02 -0.54746594097E-02  0.13783225700E-01  0.51100000000E-03 0. -1.
         11    1    4    4    0    0  0.10731199610E+00 -0.22872157407E-01 -0.38685621314E-01  0.11634362255E+00  0.51100000000E-03 0.  1.
</event>
<event>
 8    1  0.1042301E+005  0.1043930E+01  0.7957747E-01            NaN
         13   -1    0    0    0    0  0.00000000000E+00  0.00000000000E+00  0.74505805969E-08  0.10566000000E+00  0.10566000000E+00 0. -1.
     999900   -1    0    0    0    0 -0.00000000000E+00 -0.00000000000E+00 -0.74505805969E-08  0.93827000000E+00  0.93827000000E+00 0.  1.
     999902    2    1    2    0    0  0.41016739560E-02  0.11332047888E-01 -0.21362441649E-01  0.10194026081E+01  0.10191074941E+01 0.  0.
     999903    2    3    3    0    0  0.63946705379E-01  0.96086437478E-01  0.56187179100E-01  0.12992035535E+00  0.20012871922E-01 0.  0.
         14    1    1    2    0    0 -0.41016739560E-02 -0.11332047888E-01  0.21362441649E-01  0.24527391867E-01  0.00000000000E+00 0. -1.
     999901    1    3    3    0    0 -0.59845031423E-01 -0.84754389590E-01 -0.77549620749E-01  0.88948225278E+00  0.88000000000E+00 0.  1.
        -11    1    4    4    0    0  0.34438366015E-01  0.35425354867E-01  0.19386179453E-01  0.53075812721E-01  0.51100000000E-03 0.  1.
         11    1    4    4    0    0  0.29508339364E-01  0.60661082611E-01  0.36800999647E-01  0.76844542627E-01  0.51100000000E-03 0. -1.
</event>
<event>
 8    1  0.1042301E+005  0.1043930E+01  0.7957747E-01            NaN
         13   -1    0    0    0    0  0.00000000000E+00  0.00000000000E+00  0.74505805969E-08  0.10566000000E+00  0.10566000000E+00 0. -1.
     999900   -1    0    0    0    0 -0.00000000000E+00 -0.00000000000E+00 -0.74505805969E-08  0.93827000000E+00  0.93827000000E+00 0.  1.
     999902    2    1    2    0    0 -0.14931153188E-01  0.83010825974E-02 -0.15650543492E-01  0.10207613397E+01  0.10204983713E+01 0.  0.
     999903    2    3    3    0    0  0.12375439858E+00  0.78390765612E-02  0.28490518684E-01  0.12880712055E+00  0.20073922353E-01 0.  0.
         14    1    1    2    0    0  0.14931153188E-01 -0.83010825974E-02  0.15650543492E-01  0.23168660285E-01  0.00000000000E+00 0. -1.
     999901    1    3    3    0    0 -0.13868555177E+00  0.46200603616E-03 -0.44141062176E-01  0.89195421917E+00  0.88000000000E+00 0.  1.
        -11    1    4    4    0    0  0.69858026544E-01 -0.53889541398E-02  0.14074058930E-01  0.71466950089E-01  0.51100000000E-03 0. -1.
         11    1    4    4    0    0  0.53896372041E-01  0.13228030701E-01  0.14416459754E-01  0.57340170459E-01  0.51100000000E-03 0.  1.
</event>
<event>
 8    1  0.1042301E+005  0.1043930E+01  0.7957747E-01            NaN
         13   -1    0    0    0    0  0.00000000000E+00  0.00000000000E+00  0.74505805969E-08  0.10566000000E+00  0.10566000000E+00 0.  1.
     999900   -1    0    0    0    0 -0.00000000000E+00 -0.00000000000E+00 -0.74505805969E-08  0.93827000000E+00  0.93827000000E+00 0.  1.
     999902    2    1    2    0    0 -0.21109605762E-01 -0.13175772395E-02  0.98829388337E-02  0.10205842521E+01  0.10203172015E+01 0.  0.
     999903    2    3    3    0    0  0.22225025850E-01 -0.12663712062E+00  0.11311202487E-01  0.13064890715E+00  0.20255407810E-01 0.  0.
         14    1    1    2    0    0  0.21109605762E-01  0.13175772395E-02 -0.98829388337E-02  0.23345747904E-01  0.00000000000E+00 0.  1.
     999901    1    3    3    0    0 -0.43334631612E-01  0.12531954338E+00 -0.14282636538E-02  0.88993534495E+00  0.88000000000E+00 0.  1.
        -11    1    4    4    0    0  0.14987080092E-01 -0.10435910302E+00  0.20380877664E-02  0.10545069879E+00  0.51100000000E-03 0. -1.
         11    1    4    4    0    0  0.72379457587E-02 -0.22278017596E-01  0.92731147210E-02  0.25198208358E-01  0.51100000000E-03 0.  1.
</event>
<event>
 8    1  0.1042301E+005  0.1043930E+01  0.7957747E-01            NaN
         13   -1    0    0    0    0  0.00000000000E+00  0.00000000000E+00  0.74505805969E-08  0.10566000000E+00  0.10566000000E+00 0. -1.
     999900   -1    0    0    0    0 -0.00000000000E+00 -0.00000000000E+00 -0.74505805969E-08  0.93827000000E+00  0.93827000000E+00 0. -1.
     999902    2    1    2    0    0 -0.61875728069E-02  0.17711359725E-01  0.13731949386E-01  0.10206803816E+01  0.10204155510E+01 0.  0.
     999903    2    3    3    0    0  0.10444203999E+00 -0.68502651699E-01  0.27308728339E-01  0.12946991495E+00  0.20394588135E-01 0.  0.
         14    1    1    2    0    0  0.61875728069E-02 -0.17711359725E-01 -0.13731949386E-01  0.23249618373E-01  0.00000000000E+00 0. -1.
     999901    1    3    3    0    0 -0.11062961280E+00  0.86214011424E-01 -0.13576778954E-01  0.89121046668E+00  0.88000000000E+00 0. -1.
        -11    1    4    4    0    0  0.29167627502E-01 -0.18805098354E-01  0.17101800505E-01  0.38692569309E-01  0.51100000000E-03 0. -1.
         11    1    4    4    0    0  0.75274412491E-01 -0.49697553344E-01  0.10206927835E-01  0.90777345638E-01  0.51100000000E-03 0.  1.
</event>
<event>
 7    1  0.1042301E+005  0.1043930E+01  0.7957747E-01            NaN
         13   -1    0    0    0    0  0.00000000000E+00  0.00000000000E+00  0.74505805969E-08  0.10566000000E+00  0.10566000000E+00 0.  1.
     999900   -1    0    0    0    0 -0.00000000000E+00 -0.00000000000E+00 -0.74505805969E-08  0.93827000000E+00  0.93827000000E+00 0. -1.
     999902    2    1    2    0    0 -0.19058820712E-01 -0.14232329144E-01  0.66297325555E-02  0.10192368594E+01  0.10189376940E+01 0.  0.
         14    1    1    2    0    0  0.19058820712E-01  0.14232329144E-01 -0.66297325555E-02  0.24693140618E-01  0.00000000000E+00 0. -1.
     999901    1    3    3    0    0 -0.76341429479E-02  0.70423057180E-01 -0.86722484676E-01  0.88709552838E+00  0.88000000000E+00 0. -1.
        -11    1    3    3    0    0  0.13910805555E-01 -0.36547533715E-01  0.37126442794E-01  0.53924638221E-01  0.51100000000E-03 0.  1.
         11    1    3    3    0    0 -0.25335483318E-01 -0.48107852609E-01  0.56225774438E-01  0.78216692782E-01  0.51100000000E-03 0. -1.
</event>
<event>
 8    1  0.1042301E+005  0.1043930E+01  0.7957747E-01            NaN
         13   -1    0    0    0    0  0.00000000000E+00  0.00000000000E+00  0.74505805969E-08  0.10566000000E+00  0.10566000000E+00 0.  1.
     999900   -1    0    0    0    0 -0.00000000000E+00 -0.00000000000E+00 -0.74505805969E-08  0.93827000000E+00  0.93827000000E+00 0. -1.
     999902    2    1    2    0    0 -0.16456873046E-02 -0.23580434857E-01 -0.29114938902E-02  0.10201135773E+01  0.10198355203E+01 0.  0.
     999903    2    3    3    0    0  0.69105771263E-02 -0.58459200808E-01  0.11595323546E+00  0.13139620833E+00  0.18830202189E-01 0.  0.
         14    1    1    2    0    0  0.16456873046E-02  0.23580434857E-01  0.29114938902E-02  0.23816422725E-01  0.00000000000E+00 0. -1.
     999901    1    3    3    0    0 -0.85562644309E-02  0.34878765951E-01 -0.11886472935E+00  0.88871736894E+00  0.88000000000E+00 0. -1.
        -11    1    4    4    0    0  0.63365717594E-02 -0.44715951693E-02  0.16200411503E-01  0.17968354374E-01  0.51100000000E-03 0.  1.
         11    1    4    4    0    0  0.57400536690E-03 -0.53987605639E-01  0.99752823960E-01  0.11342785396E+00  0.51100000000E-03 0. -1.
</event>
<event>
 8    1  0.1042301E+005  0.1043930E+01  0.7957747E-01            NaN
         13   -1    0    0    0    0  0.00000000000E+00  0.00000000000E+00  0.74505805969E-08  0.10566000000E+00  0.10566000000E+00 0.  1.
     999900   -1    0    0    0    0 -0.00000000000E+00 -0.00000000000E+00 -0.74505805969E-08  0.93827000000E+00  0.93827000000E+00 0.  1.
     999902    2    1    2    0    0 -0.16303523699E-01 -0.86003619279E-02  0.15016624860E-01  0.10201545898E+01  0.10198775009E+01 0.  0.
     999903    2    3    3    0    0  0.53081296083E-01  0.42324466451E-01  0.11010008256E+00  0.13085798271E+00  0.19819157541E-01 0.  0.
         14    1    1    2    0    0  0.16303523699E-01  0.86003619279E-02 -0.15016624860E-01  0.23775410248E-01  0.00000000000E+00 0. -1.
     999901    1    3    3    0    0 -0.69384819781E-01 -0.50924828379E-01 -0.95083457701E-01  0.88929660704E+00  0.88000000000E+00 0.  1.
        -11    1    4    4    0    0  0.34139672274E-01  0.38168498532E-01  0.83073686138E-01  0.97590214431E-01  0.51100000000E-03 0.  1.
         11    1    4    4    0    0  0.18941623809E-01  0.41559679196E-02  0.27026396424E-01  0.33267768283E-01  0.51100000000E-03 0. -1.
</event>
<event>
 7    1  0.1042301E+005  0.1043930E+01  0.7957747E-01            NaN
         13   -1    0    0    0    0  0.00000000000E+00  0.00000000000E+00  0.74505805969E-08  0.10566000000E+00  0.10566000000E+00 0. -1.
     999900   -1    0    0    0    0 -0.00000000000E+00 -0.00000000000E+00 -0.74505805969E-08  0.93827000000E+00  0.93827000000E+00 0. -1.
     999902    2    1    2    0    0 -0.28124393668E-02 -0.28495341694E-02  0.22740326135E-01  0.10208399135E+01  0.10205787461E+01 0.  0.
         14    1    1    2    0    0  0.28124393668E-02  0.28495341694E-02 -0.22740326135E-01  0.23090086463E-01  0.00000000000E+00 0.  1.
     999901    1    3    3    0    0  0.10159458558E+00  0.16501405547E-01 -0.49118833463E-01  0.88735923729E+00  0.88000000000E+00 0.  1.
        -11    1    3    3    0    0 -0.51844288430E-01 -0.15811975616E-01  0.15599798486E-01  0.56404464801E-01  0.51100000000E-03 0.  1.
         11    1    3    3    0    0 -0.52562736516E-01 -0.35389641008E-02  0.56259361112E-01  0.77076211445E-01  0.51100000000E-03 0. -1.
</event>
<event>
 8    1  0.1042301E+005  0.1043930E+01  0.7957747E-01            NaN
         13   -1    0    0    0    0  0.00000000000E+00  0.00000000000E+00  0.74505805969E-08  0.10566000000E+00  0.10566000000E+00 0.  1.
     999900   -1    0    0    0    0 -0.00000000000E+00 -0.00000000000E+00 -0.74505805969E-08  0.93827000000E+00  0.93827000000E+00 0. -1.
     999902    2    1    2    0    0  0.22465934441E-01  0.72821676177E-02 -0.11493659415E-01  0.10176649589E+01  0.10173259636E+01 0.  0.
     999903    2    3    3    0    0 -0.25921533284E-01 -0.11991961470E+00  0.26123447271E-01  0.12640927891E+00  0.15627905176E-01 0.  0.
         14    1    1    2    0    0 -0.22465934441E-01 -0.72821676177E-02  0.11493659415E-01  0.26265041068E-01  0.00000000000E+00 0.  1.
     999901    1    3    3    0    0  0.48387467725E-01  0.12720178232E+00 -0.37617106687E-01  0.89125568002E+00  0.88000000000E+00 0.  1.
        -11    1    4    4    0    0 -0.33818666476E-02 -0.33935903951E-01  0.13252270558E-01  0.36591889743E-01  0.51100000000E-03 0.  1.
         11    1    4    4    0    0 -0.22539666637E-01 -0.85983710746E-01  0.12871176713E-01  0.89817389167E-01  0.51100000000E-03 0. -1.
</event>
<event>
 8    1  0.1042301E+005  0.1043930E+01  0.7957747E-01            NaN
         13   -1    0    0    0    0  0.00000000000E+00  0.00000000000E+00  0.74505805969E-08  0.10566000000E+00  0.10566000000E+00 0. -1.
     999900   -1    0    0    0    0 -0.00000000000E+00 -0.00000000000E+00 -0.74505805969E-08  0.93827000000E+00  0.93827000000E+00 0.  1.
     999902    2    1    2    0    0  0.17328740398E-01  0.15022226423E-01 -0.55392190757E-02  0.10203368765E+01  0.10200640695E+01 0.  0.
     999903    2    3    3    0    0  0.78156186474E-01  0.94800341724E-01  0.46356090236E-01  0.13311782289E+00  0.21816814502E-01 0.  0.
         14    1    1    2    0    0 -0.17328740398E-01 -0.15022226423E-01  0.55392190757E-02  0.23593123542E-01  0.00000000000E+00 0. -1.
     999901    1    3    3    0    0 -0.60827446077E-01 -0.79778115301E-01 -0.51895309312E-01  0.88721905356E+00  0.88000000000E+00 0.  1.
        -11    1    4    4    0    0  0.16821956416E-01  0.19353666028E-01  0.19572946646E-01  0.32263043375E-01  0.51100000000E-03 0. -1.
         11    1    4    4    0    0  0.61334230059E-01  0.75446675696E-01  0.26783143590E-01  0.10085477952E+00  0.51100000000E-03 0.  1.
</event>
<event>
 8    1  0.1042301E+005  0.1043930E+01  0.7957747E-01            NaN
         13   -1    0    0    0    0  0.00000000000E+00  0.00000000000E+00  0.74505805969E-08  0.10566000000E+00  0.10566000000E+00 0.  1.
     999900   -1    0    0    0    0 -0.00000000000E+00 -0.00000000000E+00 -0.74505805969E-08  0.93827000000E+00  0.93827000000E+00 0.  1.
     999902    2    1    2    0    0  0.20154245721E-01 -0.13528651893E-02 -0.13621027868E-01  0.10195669898E+01  0.10192758657E+01 0.  0.
     999903    2    3    3    0    0  0.16012250522E-01 -0.93932207473E-01 -0.88353632596E-01  0.13155063133E+00  0.20482979335E-01 0.  0.
         14    1    1    2    0    0 -0.20154245721E-01  0.13528651893E-02  0.13621027868E-01  0.24363010179E-01  0.00000000000E+00 0.  1.
     999901    1    3    3    0    0  0.41419951993E-02  0.92579342284E-01  0.74732604728E-01  0.88801635849E+00  0.88000000000E+00 0. -1.
        -11    1    4    4    0    0  0.44293244077E-02 -0.75634785001E-01 -0.67199115816E-01  0.10127300679E+00  0.51100000000E-03 0.  1.
         11    1    4    4    0    0  0.11582926114E-01 -0.18297422472E-01 -0.21154516780E-01  0.30277624538E-01  0.51100000000E-03 0. -1.
</event>
<event>
 8    1  0.1042301E+005  0.1043930E+01  0.7957747E-01            NaN
         13   -1    0    0    0    0  0.00000000000E+00  0.00000000000E+00  0.74505805969E-08  0.10566000000E+00  0.10566000000E+00 0. -1.
     999900   -1    0    0    0    0 -0.00000000000E+00 -0.00000000000E+00 -0.74505805969E-08  0.93827000000E+00  0.93827000000E+00 0. -1.
     999902    2    1    2    0    0  0.16263734304E-01  0.58745776408E-02 -0.45156319818E-02  0.10260579367E+01  0.10259022754E+01 0.  0.
     999903    2    3    3    0    0  0.48864669509E-01  0.11469312900E+00  0.52883070865E-01  0.13690164602E+00  0.20079136713E-01 0.  0.
         14    1    1    2    0    0 -0.16263734304E-01 -0.58745776408E-02  0.45156319818E-02  0.17872063344E-01  0.00000000000E+00 0. -1.
     999901    1    3    3    0    0 -0.32600935205E-01 -0.10881855136E+00 -0.57398702847E-01  0.88915629064E+00  0.88000000000E+00 0. -1.
        -11    1    4    4    0    0  0.10580916244E-01  0.48935716935E-01  0.23848157949E-01  0.55458596621E-01  0.51100000000E-03 0.  1.
         11    1    4    4    0    0  0.38283753265E-01  0.65757412067E-01  0.29034912916E-01  0.81443049395E-01  0.51100000000E-03 0. -1.
</event>
<event>
 8    1  0.1042301E+005  0.1043930E+01  0.7957747E-01            NaN
         13   -1    0    0    0    0  0.00000000000E+00  0.00000000000E+00  0.74505805969E-08  0.10566000000E+00  0.10566000000E+00 0. -1.
     999900   -1    0    0    0    0 -0.00000000000E+00 -0.00000000000E+00 -0.74505805969E-08  0.93827000000E+00  0.93827000000E+00 0.  1.
     999902    2    1    2    0    0 -0.19749144204E-01 -0.21251496603E-02  0.11196261105E-01  0.10211286575E+01  0.10208740539E+01 0.  0.
     999903    2    3    3    0    0 -0.93389167263E-01 -0.33858590396E-01 -0.84509490674E-01  0.13231514769E+00  0.22304788494E-01 0.  0.
         14    1    1    2    0    0  0.19749144204E-01  0.21251496603E-02 -0.11196261105E-01  0.22801342518E-01  0.00000000000E+00 0. -1.
     999901    1    3    3    0    0  0.73640023058E-01  0.31733440735E-01  0.95705751780E-01  0.88881350979E+00  0.88000000000E+00 0. -1.
        -11    1    4    4    0    0 -0.54127205170E-01 -0.28638260690E-01 -0.60009689194E-01  0.85739887060E-01  0.51100000000E-03 0. -1.
         11    1    4    4    0    0 -0.39261962093E-01 -0.52203297063E-02 -0.24499801480E-01  0.46575260635E-01  0.51100000000E-03 0.  1.
</event>
<event>
 8    1  0.1042301E+005  0.1043930E+01  0.7957747E-01            NaN
         13   -1    0    0    0    0  0.00000000000E+00  0.00000000000E+00  0.74505805969E-08  0.10566000000E+00  0.10566000000E+00 0.  1.
     999900   -1    0    0    0    0 -0.00000000000E+00 -0.00000000000E+00 -0.74505805969E-08  0.93827000000E+00  0.93827000000E+00 0. -1.
     999902    2    1    2    0    0 -0.17354358482E-01 -0.26633428493E-02  0.16076106122E-01  0.10201243632E+01  0.10198465611E+01 0.  0.
     999903    2    3    3    0    0  0.68726333210E-02 -0.69111123632E-01  0.11083043680E+00  0.13221635118E+00  0.19344179968E-01 0.  0.
         14    1    1    2    0    0  0.17354358482E-01  0.26633428493E-02 -0.16076106122E-01  0.23805636759E-01  0.00000000000E+00 0. -1.
     999901    1    3    3    0    0 -0.24226991803E-01  0.66447780783E-01 -0.94754330681E-01  0.88790801206E+00  0.88000000000E+00 0.  1.
        -11    1    4    4    0    0  0.60495477899E-02 -0.61029105702E-01  0.82877268704E-01  0.10310214139E+00  0.51100000000E-03 0. -1.
         11    1    4    4    0    0  0.82308553120E-03 -0.80820179301E-02  0.27953168098E-01  0.29114209784E-01  0.51100000000E-03 0.  1.
</event>
<event>
 8    1  0.1042301E+005  0.1043930E+01  0.7957747E-01            NaN
         13   -1    0    0    0    0  0.00000000000E+00  0.00000000000E+00  0.74505805969E-08  0.10566000000E+00  0.10566000000E+00 0. -1.
     999900   -1    0    0    0    0 -0.00000000000E+00 -0.00000000000E+00 -0.74505805969E-08  0.93827000000E+00  0.93827000000E+00 0.  1.
     999902    2    1    2    0    0  0.22845625317E-01 -0.63519377540E-02  0.34594152354E-02  0.10199667518E+01  0.10196852149E+01 0.  0.
     999903    2    3    3    0    0  0.97965225288E-01  0.35141185222E-01  0.79594120146E-01  0.13252034395E+00  0.19857727328E-01 0.  0.
         14    1    1    2    0    0 -0.22845625317E-01  0.63519377540E-02 -0.34594152354E-02  0.23963248176E-01  0.00000000000E+00 0. -1.
     999901    1    3    3    0    0 -0.75119599971E-01 -0.41493122976E-01 -0.76134704911E-01  0.88744640787E+00  0.88000000000E+00 0.  1.
        -11    1    4    4    0    0  0.35581208791E-01  0.46193931447E-02  0.20477969048E-01  0.41315488009E-01  0.51100000000E-03 0. -1.
         11    1    4    4    0    0  0.62384016497E-01  0.30521792077E-01  0.59116151098E-01  0.91204855943E-01  0.51100000000E-03 0.  1.
</event>
<event>
 8    1  0.1042301E+005  0.1043930E+01  0.7957747E-01            NaN
         13   -1    0    0    0    0  0.00000000000E+00  0.00000000000E+00  0.74505805969E-08  0.10566000000E+00  0.10566000000E+00 0. -1.
     999900   -1    0    0    0    0 -0.00000000000E+00 -0.00000000000E+00 -0.74505805969E-08  0.93827000000E+00  0.93827000000E+00 0.  1.
     999902    2    1    2    0    0 -0.14896243884E-01 -0.17715998842E-01 -0.85058853835E-02  0.10192702193E+01  0.10189718717E+01 0.  0.
     999903    2    3    3    0    0  0.49187393830E-01 -0.28358978642E-01 -0.11551551905E+00  0.13041081124E+00  0.20964569279E-01 0.  0.
         14    1    1    2    0    0  0.14896243884E-01  0.17715998842E-01  0.85058853835E-02  0.24659780676E-01  0.00000000000E+00 0.  1.
     999901    1    3    3    0    0 -0.64083637715E-01  0.10642979800E-01  0.10700963367E+00  0.88885940808E+00  0.88000000000E+00 0. -1.
        -11    1    4    4    0    0  0.49119879306E-01 -0.28602206144E-01 -0.10110083608E+00  0.11598486503E+00  0.51100000000E-03 0. -1.
         11    1    4    4    0    0  0.67514524263E-04  0.24322750165E-03 -0.14414682973E-01  0.14425946209E-01  0.51100000000E-03 0.  1.
</event>
<event>
 8    1  0.1042301E+005  0.1043930E+01  0.7957747E-01            NaN
         13   -1    0    0    0    0  0.00000000000E+00  0.00000000000E+00  0.74505805969E-08  0.10566000000E+00  0.10566000000E+00 0.  1.
     999900   -1    0    0    0    0 -0.00000000000E+00 -0.00000000000E+00 -0.74505805969E-08  0.93827000000E+00  0.93827000000E+00 0. -1.
     999902    2    1    2    0    0  0.18398812537E-02 -0.10016717652E-02  0.22715792744E-01  0.10211178158E+01  0.10208629673E+01 0.  0.
     999903    2    3    3    0    0 -0.67491053234E-03  0.11023675104E+00 -0.65457764858E-01  0.12973973261E+00  0.19876681117E-01 0.  0.
         14    1    1    2    0    0 -0.18398812537E-02  0.10016717652E-02 -0.22715792744E-01  0.22812184230E-01  0.00000000000E+00 0. -1.
     999901    1    3    3    0    0  0.25147917861E-02 -0.11123842281E+00  0.88173557602E-01  0.89137808316E+00  0.88000000000E+00 0. -1.
        -11    1    4    4    0    0  0.20857860942E-02  0.97688012804E-01 -0.50418846503E-01  0.10995280603E+00  0.51100000000E-03 0. -1.
         11    1    4    4    0    0 -0.27606966265E-02  0.12548738236E-01 -0.15038918355E-01  0.19786926580E-01  0.51100000000E-03 0.  1.
</event>
<event>
 8    1  0.1042301E+005  0.1043930E+01  0.7957747E-01            NaN
         13   -1    0    0    0    0  0.00000000000E+00  0.00000000000E+00  0.74505805969E-08  0.10566000000E+00  0.10566000000E+00 0.  1.
     999900   -1    0    0    0    0 -0.00000000000E+00 -0.00000000000E+00 -0.74505805969E-08  0.93827000000E+00  0.93827000000E+00 0. -1.
     999902    2    1    2    0    0 -0.16606664163E-02  0.10723520950E-01  0.21322969240E-01  0.10200046843E+01  0.10197240486E+01 0.  0.
     999903    2    3    3    0    0  0.11489423144E+00 -0.27903033766E-02  0.61093275449E-01  0.13132625825E+00  0.17485067619E-01 0.  0.
         14    1    1    2    0    0  0.16606664163E-02 -0.10723520950E-01 -0.21322969240E-01  0.23925315708E-01  0.00000000000E+00 0. -1.
     999901    1    3    3    0    0 -0.11655489785E+00  0.13513824326E-01 -0.39770306209E-01  0.88867842604E+00  0.88000000000E+00 0. -1.
        -11    1    4    4    0    0  0.97475647399E-01  0.35303981076E-02  0.48650570079E-01  0.10900047998E+00  0.51100000000E-03 0. -1.
         11    1    4    4    0    0  0.17418584038E-01 -0.63207014842E-02  0.12442705370E-01  0.22325778264E-01  0.51100000000E-03 0.  1.
</event>
<event>
 7    1  0.1042301E+005  0.1043930E+01  0.7957747E-01            NaN
         13   -1    0    0    0    0  0.00000000000E+00  0.00000000000E+00  0.74505805969E-08  0.10566000000E+00  0.10566000000E+00 0. -1.
     999900   -1    0    0    0    0 -0.00000000000E+00 -0.00000000000E+00 -0.74505805969E-08  0.93827000000E+00  0.93827000000E+00 0.  1.
     999903    2    1    2    0    0  0.88456118954E-01  0.16369830477E-02 -0.67040287776E-01  0.11338341814E+00  0.23113516193E-01 0.  0.
         14    1    1    2    0    0  0.21022082642E-01 -0.27476061874E-01  0.24452292631E-01  0.42364803193E-01  0.00000000000E+00 0. -1.
     999901    1    1    2    0    0 -0.10947820160E+00  0.25839078826E-01  0.42587995145E-01  0.88818177866E+00  0.88000000000E+00 0. -1.
        -11    1    3    3    0    0  0.96260027620E-02  0.77508429797E-02 -0.87559043544E-02  0.15154619036E-01  0.51100000000E-03 0.  1.
         11    1    3    3    0    0  0.78830116192E-01 -0.61138599320E-02 -0.58284383421E-01  0.98228799107E-01  0.51100000000E-03 0. -1.
</event>
<event>
 7    1  0.1042301E+005  0.1043930E+01  0.7957747E-01            NaN
         13   -1    0    0    0    0  0.00000000000E+00  0.00000000000E+00  0.74505805969E-08  0.10566000000E+00  0.10566000000E+00 0. -1.
     999900   -1    0    0    0    0 -0.00000000000E+00 -0.00000000000E+00 -0.74505805969E-08  0.93827000000E+00  0.93827000000E+00 0. -1.
     999903    2    1    2    0    0  0.31454482778E-02 -0.37823899835E-01 -0.10279579568E+00  0.11255825022E+00  0.25726306345E-01 0.  0.
         14    1    1    2    0    0  0.90912304207E-02  0.25934304076E-01 -0.30629232143E-01  0.41150801453E-01  0.00000000000E+00 0.  1.
     999901    1    1    2    0    0 -0.12236678698E-01  0.11889595758E-01  0.13342502783E+00  0.89022094833E+00  0.88000000000E+00 0.  1.
        -11    1    3    3    0    0 -0.42439012032E-04  0.34623456045E-02 -0.16144948429E-01  0.16519991493E-01  0.51100000000E-03 0. -1.
         11    1    3    3    0    0  0.31878872898E-02 -0.41286245439E-01 -0.86650847256E-01  0.96038258726E-01  0.51100000000E-03 0.  1.
</event>
<event>
 8    1  0.1042301E+005  0.1043930E+01  0.7957747E-01            NaN
         13   -1    0    0    0    0  0.00000000000E+00  0.00000000000E+00  0.74505805969E-08  0.10566000000E+00  0.10566000000E+00 0. -1.
     999900   -1    0    0    0    0 -0.00000000000E+00 -0.00000000000E+00 -0.74505805969E-08  0.93827000000E+00  0.93827000000E+00 0.  1.
     999902    2    1    2    0    0  0.30019839709E-02  0.24359479017E-01  0.75290448135E-02  0.10182573951E+01  0.10179337110E+01 0.  0.
     999903    2    3    3    0    0 -0.85631223119E-01  0.24909444665E-01 -0.90213504671E-01  0.12842046970E+00  0.20003844768E-01 0.  0.
         14    1    1    2    0    0 -0.30019839709E-02 -0.24359479017E-01 -0.75290448135E-02  0.25672604884E-01  0.00000000000E+00 0.  1.
     999901    1    3    3    0    0  0.88633207090E-01 -0.54996564765E-03  0.97742549485E-01  0.88983692542E+00  0.88000000000E+00 0. -1.
        -11    1    4    4    0    0 -0.51222356167E-01  0.46283373786E-02 -0.49489170568E-01  0.71376399480E-01  0.51100000000E-03 0. -1.
         11    1    4    4    0    0 -0.34408866952E-01  0.20281107286E-01 -0.40724334103E-01  0.57044070216E-01  0.51100000000E-03 0.  1.
</event>
<event>
 8    1  0.1042301E+005  0.1043930E+01  0.7957747E-01            NaN
         13   -1    0    0    0    0  0.00000000000E+00  0.00000000000E+00  0.74505805969E-08  0.10566000000E+00  0.10566000000E+00 0.  1.
     999900   -1    0    0    0    0 -0.00000000000E+00 -0.00000000000E+00 -0.74505805969E-08  0.93827000000E+00  0.93827000000E+00 0.  1.
     999902    2    1    2    0    0 -0.18369012907E-01 -0.13709595109E-01  0.38382388619E-02  0.10206898255E+01  0.10204252124E+01 0.  0.
     999903    2    3    3    0    0  0.10322140518E+00  0.62106055600E-01 -0.38029627994E-01  0.12811760941E+00  0.21355294581E-01 0.  0.
         14    1    1    2    0    0  0.18369012907E-01  0.13709595109E-01 -0.38382388619E-02  0.23240174501E-01  0.00000000000E+00 0.  1.
     999901    1    3    3    0    0 -0.12159041808E+00 -0.75815650709E-01  0.41867866856E-01  0.89257221609E+00  0.88000000000E+00 0. -1.
        -11    1    4    4    0    0  0.24087564635E-01  0.23478170852E-01 -0.47283312330E-02  0.33971363144E-01  0.51100000000E-03 0. -1.
         11    1    4    4    0    0  0.79133840541E-01  0.38627884747E-01 -0.33301296761E-01  0.94146246265E-01  0.51100000000E-03 0.  1.
</event>
<event>
 8    1  0.1048507E+005  0.1043930E+01  0.7957747E-01            NaN
         13   -1    0    0    0    0  0.00000000000E+00  0.00000000000E+00  0.74505805969E-08  0.10566000000E+00  0.10566000000E+00 0.  1.
     999900   -1    0    0    0    0 -0.00000000000E+00 -0.00000000000E+00 -0.74505805969E-08  0.93827000000E+00  0.93827000000E+00 0. -1.
     999902    2    1    2    0    0 -0.11003512823E-02 -0.61381993752E-03  0.23764603998E-01  0.10201320179E+01  0.10198543965E+01 0.  0.
     999903    2    3    3    0    0  0.12006755204E+00  0.45131406708E-01  0.13374167079E-01  0.13059154794E+00  0.20548068644E-01 0.  0.
         14    1    1    2    0    0  0.11003512823E-02  0.61381993752E-03 -0.23764603998E-01  0.23797982079E-01  0.00000000000E+00 0. -1.
     999901    1    3    3    0    0 -0.12116790332E+00 -0.45745226645E-01  0.10390436918E-01  0.88954046998E+00  0.88000000000E+00 0.  1.
        -11    1    4    4    0    0  0.43741722441E-01  0.61387772458E-02  0.34395817663E-02  0.44307050363E-01  0.51100000000E-03 0. -1.
         11    1    4    4    0    0  0.76325829595E-01  0.38992629462E-01  0.99345853132E-02  0.86284497577E-01  0.51100000000E-03 0.  1.
</event>
<event>
 8    1  0.1042301E+005  0.1043930E+01  0.7957747E-01            NaN
         13   -1    0    0    0    0  0.00000000000E+00  0.00000000000E+00  0.74505805969E-08  0.10566000000E+00  0.10566000000E+00 0. -1.
     999900   -1    0    0    0    0 -0.00000000000E+00 -0.00000000000E+00 -0.74505805969E-08  0.93827000000E+00  0.93827000000E+00 0.  1.
     999902    2    1    2    0    0 -0.24211177165E-01 -0.20849378520E-02  0.94260307858E-02  0.10178651171E+01  0.10175313354E+01 0.  0.
     999903    2    3    3    0    0 -0.13888613207E-02  0.12385377745E+00 -0.25185666229E-01  0.12793287938E+00  0.19769084941E-01 0.  0.
         14    1    1    2    0    0  0.24211177165E-01  0.20849378520E-02 -0.94260307858E-02  0.26064882926E-01  0.00000000000E+00 0.  1.
     999901    1    3    3    0    0 -0.22822315845E-01 -0.12593871530E+00  0.34611697014E-01  0.88993223769E+00  0.88000000000E+00 0. -1.
        -11    1    4    4    0    0  0.81439342040E-02  0.54505354642E-01 -0.66097691926E-02  0.55507724857E-01  0.51100000000E-03 0.  1.
         11    1    4    4    0    0 -0.95327955247E-02  0.69348422807E-01 -0.18575897036E-01  0.72425154526E-01  0.51100000000E-03 0. -1.
</event>
<event>
 8    1  0.1042301E+005  0.1043930E+01  0.7957747E-01            NaN
         13   -1    0    0    0    0  0.00000000000E+00  0.00000000000E+00  0.74505805969E-08  0.10566000000E+00  0.10566000000E+00 0. -1.
     999900   -1    0    0    0    0 -0.00000000000E+00 -0.00000000000E+00 -0.74505805969E-08  0.93827000000E+00  0.93827000000E+00 0.  1.
     999902    2    1    2    0    0  0.19317594638E-01 -0.90022292577E-02  0.99425985570E-02  0.10204126689E+01  0.10201416324E+01 0.  0.
     999903    2    3    3    0    0 -0.35794355051E-02 -0.11803676005E+00  0.55638173779E-01  0.13221174094E+00  0.20948722615E-01 0.  0.
         14    1    1    2    0    0 -0.19317594638E-01  0.90022292577E-02 -0.99425985570E-02  0.23517331062E-01  0.00000000000E+00 0.  1.
     999901    1    3    3    0    0  0.22897030143E-01  0.10903453080E+00 -0.45695575222E-01  0.88820092799E+00  0.88000000000E+00 0.  1.
        -11    1    4    4    0    0 -0.92698772317E-02 -0.96189015431E-01  0.39218767500E-01  0.10429108379E+00  0.51100000000E-03 0.  1.
         11    1    4    4    0    0  0.56904417266E-02 -0.21847744623E-01  0.16419406279E-01  0.27920657150E-01  0.51100000000E-03 0. -1.
</event>
<event>
 8    1  0.1042301E+005  0.1043930E+01  0.7957747E-01            NaN
         13   -1    0    0    0    0  0.00000000000E+00  0.00000000000E+00  0.74505805969E-08  0.10566000000E+00  0.10566000000E+00 0.  1.
     999900   -1    0    0    0    0 -0.00000000000E+00 -0.00000000000E+00 -0.74505805969E-08  0.93827000000E+00  0.93827000000E+00 0. -1.
     999902    2    1    2    0    0 -0.68065129808E-02 -0.48350316727E-02  0.21881651318E-01  0.10205096496E+01  0.10202408696E+01 0.  0.
     999903    2    3    3    0    0 -0.12918127942E+00  0.13666669379E-01  0.93516926702E-02  0.13176058697E+00  0.19970411052E-01 0.  0.
         14    1    1    2    0    0  0.68065129808E-02  0.48350316727E-02 -0.21881651318E-01  0.23420350438E-01  0.00000000000E+00 0. -1.
     999901    1    3    3    0    0  0.12237476644E+00 -0.18501701052E-01  0.12529958648E-01  0.88874906260E+00  0.88000000000E+00 0.  1.
        -11    1    4    4    0    0 -0.92446831140E-01  0.12318771581E-01  0.15324034270E-01  0.94515902727E-01  0.51100000000E-03 0.  1.
         11    1    4    4    0    0 -0.36734448279E-01  0.13478977980E-02 -0.59723415999E-02  0.37244684238E-01  0.51100000000E-03 0. -1.
</event>
<event>
 8    1  0.1042301E+005  0.1043930E+01  0.7957747E-01            NaN
         13   -1    0    0    0    0  0.00000000000E+00  0.00000000000E+00  0.74505805969E-08  0.10566000000E+00  0.10566000000E+00 0. -1.
     999900   -1    0    0    0    0 -0.00000000000E+00 -0.00000000000E+00 -0.74505805969E-08  0.93827000000E+00  0.93827000000E+00 0. -1.
     999902    2    1    2    0    0 -0.21101254169E-01 -0.30927682868E-02  0.98987978088E-02  0.10204179958E+01  0.10201470834E+01 0.  0.
     999903    2    3    3    0    0  0.76613222516E-02 -0.11858033896E-01  0.12951636961E+00  0.13181657831E+00  0.20045236205E-01 0.  0.
         14    1    1    2    0    0  0.21101254169E-01  0.30927682868E-02 -0.98987978088E-02  0.23512004195E-01  0.00000000000E+00 0.  1.
     999901    1    3    3    0    0 -0.28762576421E-01  0.87652656089E-02 -0.11961757180E+00  0.88860141749E+00  0.88000000000E+00 0. -1.
        -11    1    4    4    0    0  0.11320905317E-01 -0.77388829753E-02  0.12019939400E+00  0.12098019939E+00  0.51100000000E-03 0. -1.
         11    1    4    4    0    0 -0.36595830653E-02 -0.41191509205E-02  0.93169756151E-02  0.10836378921E-01  0.51100000000E-03 0.  1.
</event>
<event>
 8    1  0.1042301E+005  0.1043930E+01  0.7957747E-01            NaN
         13   -1    0    0    0    0  0.00000000000E+00  0.00000000000E+00  0.74505805969E-08  0.10566000000E+00  0.10566000000E+00 0.  1.
     999900   -1    0    0    0    0 -0.00000000000E+00 -0.00000000000E+00 -0.74505805969E-08  0.93827000000E+00  0.93827000000E+00 0.  1.
     999902    2    1    2    0    0  0.57509515772E-02  0.63840068783E-02 -0.18690548781E-01  0.10233590107E+01  0.10231522365E+01 0.  0.
     999903    2    3    3    0    0 -0.12849250776E+00  0.79581780920E-02  0.22410938501E-01  0.13222876395E+00  0.20212340328E-01 0.  0.
         14    1    1    2    0    0 -0.57509515772E-02 -0.63840068783E-02  0.18690548781E-01  0.20570989320E-01  0.00000000000E+00 0.  1.
     999901    1    3    3    0    0  0.13424345933E+00 -0.15741712137E-02 -0.41101487282E-01  0.89113024674E+00  0.88000000000E+00 0. -1.
        -11    1    4    4    0    0 -0.67602638076E-01 -0.55538870023E-02  0.14391208396E-01  0.69342125261E-01  0.51100000000E-03 0.  1.
         11    1    4    4    0    0 -0.60889869682E-01  0.13512065094E-01  0.80197301053E-02  0.62886638684E-01  0.51100000000E-03 0. -1.
</event>
<event>
 8    1  0.1042301E+005  0.1043930E+01  0.7957747E-01            NaN
         13   -1    0    0    0    0  0.00000000000E+00  0.00000000000E+00  0.74505805969E-08  0.10566000000E+00  0.10566000000E+00 0. -1.
     999900   -1    0    0    0    0 -0.00000000000E+00 -0.00000000000E+00 -0.74505805969E-08  0.93827000000E+00  0.93827000000E+00 0.  1.
     999902    2    1    2    0    0  0.22978417766E-02 -0.21953259037E-01 -0.89308891928E-02  0.10201185229E+01  0.10198405828E+01 0.  0.
     999903    2    3    3    0    0  0.69743258744E-01  0.10363422691E+00  0.12411488199E-01  0.12839177219E+00  0.26948599204E-01 0.  0.
         14    1    1    2    0    0 -0.22978417766E-02  0.21953259037E-01  0.89308891928E-02  0.23811477084E-01  0.00000000000E+00 0. -1.
     999901    1    3    3    0    0 -0.67445416968E-01 -0.12558748594E+00 -0.21342377391E-01  0.89172675073E+00  0.88000000000E+00 0.  1.
        -11    1    4    4    0    0  0.44297829925E-01  0.85995092171E-01  0.73371732273E-02  0.97013137489E-01  0.51100000000E-03 0. -1.
         11    1    4    4    0    0  0.25445428819E-01  0.17639134735E-01  0.50743149713E-02  0.31378634696E-01  0.51100000000E-03 0.  1.
</event>
<event>
 8    1  0.1042301E+005  0.1043930E+01  0.7957747E-01            NaN
         13   -1    0    0    0    0  0.00000000000E+00  0.00000000000E+00  0.74505805969E-08  0.10566000000E+00  0.10566000000E+00 0.  1.
     999900   -1    0    0    0    0 -0.00000000000E+00 -0.00000000000E+00 -0.74505805969E-08  0.93827000000E+00  0.93827000000E+00 0.  1.
     999902    2    1    2    0    0 -0.12713717887E-02  0.11348938540E-01 -0.20034457806E-01  0.10208693345E+01  0.10206088398E+01 0.  0.
     999903    2    3    3    0    0  0.77693980536E-01  0.10456167210E+00  0.61367000498E-02  0.13204479050E+00  0.20704340801E-01 0.  0.
         14    1    1    2    0    0  0.12713717887E-02 -0.11348938540E-01  0.20034457806E-01  0.23060665467E-01  0.00000000000E+00 0.  1.
     999901    1    3    3    0    0 -0.78965352325E-01 -0.93212733559E-01 -0.26171157856E-01  0.88882454403E+00  0.88000000000E+00 0. -1.
        -11    1    4    4    0    0  0.61783155932E-01  0.72481897629E-01 -0.22296319581E-02  0.95268128041E-01  0.51100000000E-03 0. -1.
         11    1    4    4    0    0  0.15910824605E-01  0.32079774470E-01  0.83663320079E-02  0.36776662463E-01  0.51100000000E-03 0.  1.
</event>
<event>
 8    1  0.1042301E+005  0.1043930E+01  0.7957747E-01            NaN
         13   -1    0    0    0    0  0.00000000000E+00  0.00000000000E+00  0.74505805969E-08  0.10566000000E+00  0.10566000000E+00 0. -1.
     999900   -1    0    0    0    0 -0.00000000000E+00 -0.00000000000E+00 -0.74505805969E-08  0.93827000000E+00  0.93827000000E+00 0. -1.
     999902    2    1    2    0    0 -0.20714022982E-02 -0.17640046619E-01  0.10824463262E-01  0.10231302174E+01  0.10229187704E+01 0.  0.
     999903    2    3    3    0    0  0.41749148561E-01 -0.77202882744E-02 -0.12309082617E+00  0.13186597652E+00  0.20849221086E-01 0.  0.
         14    1    1    2    0    0  0.20714022982E-02  0.17640046619E-01 -0.10824463262E-01  0.20799782622E-01  0.00000000000E+00 0.  1.
     999901    1    3    3    0    0 -0.43820550859E-01 -0.99197583446E-02  0.13391528943E+00  0.89126424086E+00  0.88000000000E+00 0.  1.
        -11    1    4    4    0    0  0.32822786092E-01  0.29025249463E-02 -0.94515354306E-01  0.10009582038E+00  0.51100000000E-03 0.  1.
         11    1    4    4    0    0  0.89263624690E-02 -0.10622813221E-01 -0.28575471867E-01  0.31770156138E-01  0.51100000000E-03 0. -1.
</event>
<event>
 8    1  0.1042301E+005  0.1043930E+01  0.7957747E-01            NaN
         13   -1    0    0    0    0  0.00000000000E+00  0.00000000000E+00  0.74505805969E-08  0.10566000000E+00  0.10566000000E+00 0.  1.
     999900   -1    0    0    0    0 -0.00000000000E+00 -0.00000000000E+00 -0.74505805969E-08  0.93827000000E+00  0.93827000000E+00 0. -1.
     999902    2    1    2    0    0  0.90493278169E-02 -0.84398289242E-03 -0.21831115595E-01  0.10202825847E+01  0.10200085061E+01 0.  0.
     999903    2    3    3    0    0  0.92463082022E-01  0.81488518072E-01 -0.44417969928E-01  0.13222478194E+00  0.17906333825E-01 0.  0.
         14    1    1    2    0    0 -0.90493278169E-02  0.84398289242E-03  0.21831115595E-01  0.23647415275E-01  0.00000000000E+00 0.  1.
     999901    1    3    3    0    0 -0.83413754205E-01 -0.82332500964E-01  0.22586854333E-01  0.88805780279E+00  0.88000000000E+00 0.  1.
        -11    1    4    4    0    0  0.46533535865E-01  0.30644223801E-01 -0.24505442402E-01  0.60870487436E-01  0.51100000000E-03 0. -1.
         11    1    4    4    0    0  0.45929546157E-01  0.50844294271E-01 -0.19912527526E-01  0.71354294500E-01  0.51100000000E-03 0.  1.
</event>
<event>
 7    1  0.1042301E+005  0.1043930E+01  0.7957747E-01            NaN
         13   -1    0    0    0    0  0.00000000000E+00  0.00000000000E+00  0.74505805969E-08  0.10566000000E+00  0.10566000000E+00 0.  1.
     999900   -1    0    0    0    0 -0.00000000000E+00 -0.00000000000E+00 -0.74505805969E-08  0.93827000000E+00  0.93827000000E+00 0.  1.
     999903    2    1    2    0    0 -0.81081161331E-01 -0.21682985223E-01  0.36431762847E-01  0.93836933503E-01  0.20827630063E-01 0.  0.
         14    1    1    2    0    0  0.56345405822E-01  0.12883579767E-02 -0.40665234700E-01  0.69499107453E-01  0.00000000000E+00 0. -1.
     999901    1    1    2    0    0  0.24735755509E-01  0.20394627247E-01  0.42334718534E-02  0.88059395904E+00  0.88000000000E+00 0. -1.
        -11    1    3    3    0    0 -0.34309915632E-01 -0.15814656785E-01  0.25078684006E-01  0.45348375851E-01  0.51100000000E-03 0. -1.
         11    1    3    3    0    0 -0.46771245700E-01 -0.58683284383E-02  0.11353078841E-01  0.48488557651E-01  0.51100000000E-03 0.  1.
</event>
<event>
 8    1  0.1042301E+005  0.1043930E+01  0.7957747E-01            NaN
         13   -1    0    0    0    0  0.00000000000E+00  0.00000000000E+00  0.74505805969E-08  0.10566000000E+00  0.10566000000E+00 0. -1.
     999900   -1    0    0    0    0 -0.00000000000E+00 -0.00000000000E+00 -0.74505805969E-08  0.93827000000E+00  0.93827000000E+00 0.  1.
     999902    2    1    2    0    0 -0.18419164975E-01 -0.81943201561E-02  0.11017047666E-01  0.10209563660E+01  0.10206978561E+01 0.  0.
     999903    2    3    3    0    0  0.40819747502E-01  0.73789372301E-01  0.98149418801E-01  0.13088747837E+00  0.19674865481E-01 0.  0.
         14    1    1    2    0    0  0.18419164975E-01  0.81943201561E-02 -0.11017047666E-01  0.22973634028E-01  0.00000000000E+00 0.  1.
     999901    1    3    3    0    0 -0.59238912477E-01 -0.81983692457E-01 -0.87132371135E-01  0.89006888760E+00  0.88000000000E+00 0.  1.
        -11    1    4    4    0    0  0.34123159391E-01  0.43266171517E-01  0.57939298858E-01  0.79959834153E-01  0.51100000000E-03 0.  1.
         11    1    4    4    0    0  0.66965881109E-02  0.30523200784E-01  0.40210119944E-01  0.50927644215E-01  0.51100000000E-03 0. -1.
</event>
<event>
 8    1  0.1042301E+005  0.1043930E+01  0.7957747E-01            NaN
         13   -1    0    0    0    0  0.00000000000E+00  0.00000000000E+00  0.74505805969E-08  0.10566000000E+00  0.10566000000E+00 0.  1.
     999900   -1    0    0    0    0 -0.00000000000E+00 -0.00000000000E+00 -0.74505805969E-08  0.93827000000E+00  0.93827000000E+00 0. -1.
     999902    2    1    2    0    0 -0.21080685082E-01  0.26571066045E-02  0.12610250956E-01  0.10192222294E+01  0.10189227051E+01 0.  0.
     999903    2    3    3    0    0  0.89816921872E-01  0.73548320813E-01 -0.48396517109E-01  0.12734462051E+00  0.19949800898E-01 0.  0.
         14    1    1    2    0    0  0.21080685082E-01 -0.26571066045E-02 -0.12610250956E-01  0.24707770604E-01  0.00000000000E+00 0. -1.
     999901    1    3    3    0    0 -0.11089760695E+00 -0.70891214209E-01  0.61006768066E-01  0.89187760888E+00  0.88000000000E+00 0.  1.
        -11    1    4    4    0    0  0.23191304111E-01  0.28210019031E-01 -0.21518212986E-01  0.42390286283E-01  0.51100000000E-03 0.  1.
         11    1    4    4    0    0  0.66625617761E-01  0.45338301782E-01 -0.26878304124E-01  0.84954334228E-01  0.51100000000E-03 0. -1.
</event>
<event>
 8    1  0.1042301E+005  0.1043930E+01  0.7957747E-01            NaN
         13   -1    0    0    0    0  0.00000000000E+00  0.00000000000E+00  0.74505805969E-08  0.10566000000E+00  0.10566000000E+00 0.  1.
     999900   -1    0    0    0    0 -0.00000000000E+00 -0.00000000000E+00 -0.74505805969E-08  0.93827000000E+00  0.93827000000E+00 0. -1.
     999902    2    1    2    0    0 -0.97821226046E-02  0.17389558396E-01 -0.13337293260E-01  0.10199306239E+01  0.10196482273E+01 0.  0.
     999903    2    3    3    0    0 -0.11296764231E+00 -0.56844803890E-01 -0.25994089181E-01  0.13070726243E+00  0.20388129892E-01 0.  0.
         14    1    1    2    0    0  0.97821226046E-02 -0.17389558396E-01  0.13337293260E-01  0.23999376145E-01  0.00000000000E+00 0. -1.
     999901    1    3    3    0    0  0.10318551971E+00  0.74234362286E-01  0.12656795921E-01  0.88922336143E+00  0.88000000000E+00 0.  1.
        -11    1    4    4    0    0 -0.34940159088E-01 -0.20571032117E-01 -0.17752441343E-01  0.44265024275E-01  0.51100000000E-03 0.  1.
         11    1    4    4    0    0 -0.78027483225E-01 -0.36273771773E-01 -0.82416478378E-02  0.86442238154E-01  0.51100000000E-03 0. -1.
</event>
<event>
 8    1  0.1042301E+005  0.1043930E+01  0.7957747E-01            NaN
         13   -1    0    0    0    0  0.00000000000E+00  0.00000000000E+00  0.74505805969E-08  0.10566000000E+00  0.10566000000E+00 0. -1.
     999900   -1    0    0    0    0 -0.00000000000E+00 -0.00000000000E+00 -0.74505805969E-08  0.93827000000E+00  0.93827000000E+00 0.  1.
     999902    2    1    2    0    0 -0.23627887281E-01  0.27670027997E-02 -0.34445383658E-02  0.10198925666E+01  0.10196092630E+01 0.  0.
     999903    2    3    3    0    0  0.56640052431E-01  0.24305840099E-01 -0.11188182520E+00  0.12935031106E+00  0.20373776247E-01 0.  0.
         14    1    1    2    0    0  0.23627887281E-01 -0.27670027997E-02  0.34445383658E-02  0.24037433440E-01  0.00000000000E+00 0. -1.
     999901    1    3    3    0    0 -0.80267939712E-01 -0.21538837299E-01  0.10843728683E+00  0.89054225550E+00  0.88000000000E+00 0. -1.
        -11    1    4    4    0    0  0.45295413509E-01  0.14960853674E-01 -0.98598238462E-01  0.10953253113E+00  0.51100000000E-03 0.  1.
         11    1    4    4    0    0  0.11344638922E-01  0.93449864247E-02 -0.13283586738E-01  0.19817779925E-01  0.51100000000E-03 0. -1.
</event>
<event>
 8    1  0.1042301E+005  0.1043930E+01  0.7957747E-01            NaN
         13   -1    0    0    0    0  0.00000000000E+00  0.00000000000E+00  0.74505805969E-08  0.10566000000E+00  0.10566000000E+00 0.  1.
     999900   -1    0    0    0    0 -0.00000000000E+00 -0.00000000000E+00 -0.74505805969E-08  0.93827000000E+00  0.93827000000E+00 0.  1.
     999902    2    1    2    0    0 -0.21409785438E-02  0.21331791796E-01  0.94831333699E-02  0.10204873263E+01  0.10202180278E+01 0.  0.
     999903    2    3    3    0    0  0.35056319500E-01 -0.47846791403E-01  0.11481535661E+00  0.13073219563E+00  0.19750439891E-01 0.  0.
         14    1    1    2    0    0  0.21409785438E-02 -0.21331791796E-01 -0.94831333699E-02  0.23442673672E-01  0.00000000000E+00 0. -1.
     999901    1    3    3    0    0 -0.37197298044E-01  0.69178583199E-01 -0.10533222324E+00  0.88975513070E+00  0.88000000000E+00 0.  1.
        -11    1    4    4    0    0  0.65822661904E-02 -0.23774531703E-01  0.54422639668E-01  0.59754827548E-01  0.51100000000E-03 0. -1.
         11    1    4    4    0    0  0.28474053310E-01 -0.24072259700E-01  0.60392716941E-01  0.70977368080E-01  0.51100000000E-03 0.  1.
</event>
<event>
 8    1  0.1042301E+005  0.1043930E+01  0.7957747E-01            NaN
         13   -1    0    0    0    0  0.00000000000E+00  0.00000000000E+00  0.74505805969E-08  0.10566000000E+00  0.10566000000E+00 0.  1.
     999900   -1    0    0    0    0 -0.00000000000E+00 -0.00000000000E+00 -0.74505805969E-08  0.93827000000E+00  0.93827000000E+00 0.  1.
     999902    2    1    2    0    0  0.75449144977E-03  0.89113480775E-02 -0.21515350564E-01  0.10206299637E+01  0.10203639699E+01 0.  0.
     999903    2    3    3    0    0  0.83926128623E-02  0.69916528803E-01 -0.11219548416E+00  0.13383638027E+00  0.19120488166E-01 0.  0.
         14    1    1    2    0    0 -0.75449144977E-03 -0.89113480775E-02  0.21515350564E-01  0.23300036305E-01  0.00000000000E+00 0. -1.
     999901    1    3    3    0    0 -0.76381214126E-02 -0.61005180726E-01  0.90680133595E-01  0.88679358342E+00  0.88000000000E+00 0. -1.
        -11    1    4    4    0    0  0.99570145197E-02  0.61631640766E-01 -0.85720107517E-01  0.10604621273E+00  0.51100000000E-03 0. -1.
         11    1    4    4    0    0 -0.15644016574E-02  0.82848880375E-02 -0.26475376642E-01  0.27790167536E-01  0.51100000000E-03 0.  1.
</event>
<event>
 8    1  0.1042301E+005  0.1043930E+01  0.7957747E-01            NaN
         13   -1    0    0    0    0  0.00000000000E+00  0.00000000000E+00  0.74505805969E-08  0.10566000000E+00  0.10566000000E+00 0.  1.
     999900   -1    0    0    0    0 -0.00000000000E+00 -0.00000000000E+00 -0.74505805969E-08  0.93827000000E+00  0.93827000000E+00 0.  1.
     999902    2    1    2    0    0 -0.48799475724E-02  0.13638868729E-01  0.18590390811E-01  0.10203623260E+01  0.10200901142E+01 0.  0.
     999903    2    3    3    0    0 -0.12649479860E-01 -0.10263467216E+00 -0.72724735041E-01  0.12799561091E+00  0.20002601244E-01 0.  0.
         14    1    1    2    0    0  0.48799475724E-02 -0.13638868729E-01 -0.18590390811E-01  0.23567674026E-01  0.00000000000E+00 0. -1.
     999901    1    3    3    0    0  0.77695322879E-02  0.11627354088E+00  0.91315125852E-01  0.89236671506E+00  0.88000000000E+00 0. -1.
        -11    1    4    4    0    0  0.52458939742E-02 -0.24669379520E-01 -0.15004575377E-01  0.29351253683E-01  0.51100000000E-03 0. -1.
         11    1    4    4    0    0 -0.17895373835E-01 -0.77965292635E-01 -0.57720159664E-01  0.98644357229E-01  0.51100000000E-03 0.  1.
</event>
<event>
 8    1  0.1042301E+005  0.1043930E+01  0.7957747E-01            NaN
         13   -1    0    0    0    0  0.00000000000E+00  0.00000000000E+00  0.74505805969E-08  0.10566000000E+00  0.10566000000E+00 0.  1.
     999900   -1    0    0    0    0 -0.00000000000E+00 -0.00000000000E+00 -0.74505805969E-08  0.93827000000E+00  0.93827000000E+00 0. -1.
     999902    2    1    2    0    0  0.75791453080E-02 -0.21731003093E-01  0.48546678658E-03  0.10209101039E+01  0.10206505399E+01 0.  0.
     999903    2    3    3    0    0  0.86807192588E-01 -0.59975193122E-01 -0.78235752972E-01  0.13302681652E+00  0.21042537754E-01 0.  0.
         14    1    1    2    0    0 -0.75791453080E-02  0.21731003093E-01 -0.48546678658E-03  0.23019896113E-01  0.00000000000E+00 0. -1.
     999901    1    3    3    0    0 -0.79228047280E-01  0.38244190029E-01  0.78721219758E-01  0.88788328737E+00  0.88000000000E+00 0. -1.
        -11    1    4    4    0    0  0.70323921988E-01 -0.37566423222E-01 -0.59474999960E-01  0.99469728555E-01  0.51100000000E-03 0.  1.
         11    1    4    4    0    0  0.16483270600E-01 -0.22408769900E-01 -0.18760753012E-01  0.33557087965E-01  0.51100000000E-03 0. -1.
</event>
<event>
 8    1  0.1042301E+005  0.1043930E+01  0.7957747E-01            NaN
         13   -1    0    0    0    0  0.00000000000E+00  0.00000000000E+00  0.74505805969E-08  0.10566000000E+00  0.10566000000E+00 0. -1.
     999900   -1    0    0    0    0 -0.00000000000E+00 -0.00000000000E+00 -0.74505805969E-08  0.93827000000E+00  0.93827000000E+00 0.  1.
     999902    2    1    2    0    0  0.15416116658E-01 -0.66194586332E-02  0.16065628641E-01  0.10207011750E+01  0.10204368233E+01 0.  0.
     999903    2    3    3    0    0 -0.11877375842E+00  0.11486610428E-01  0.47328933614E-01  0.12979593510E+00  0.19178344665E-01 0.  0.
         14    1    1    2    0    0 -0.15416116658E-01  0.66194586332E-02 -0.16065628641E-01  0.23228824960E-01  0.00000000000E+00 0. -1.
     999901    1    3    3    0    0  0.13418987508E+00 -0.18106069061E-01 -0.31263304973E-01  0.89090523994E+00  0.88000000000E+00 0.  1.
        -11    1    4    4    0    0 -0.10331225160E+00  0.86506212223E-02  0.47567044962E-01  0.11406638184E+00  0.51100000000E-03 0. -1.
         11    1    4    4    0    0 -0.15461506822E-01  0.28359892055E-02 -0.23811134841E-03  0.15729553267E-01  0.51100000000E-03 0.  1.
</event>
<event>
 8    1  0.1042301E+005  0.1043930E+01  0.7957747E-01            NaN
         13   -1    0    0    0    0  0.00000000000E+00  0.00000000000E+00  0.74505805969E-08  0.10566000000E+00  0.10566000000E+00 0. -1.
     999900   -1    0    0    0    0 -0.00000000000E+00 -0.00000000000E+00 -0.74505805969E-08  0.93827000000E+00  0.93827000000E+00 0.  1.
     999902    2    1    2    0    0  0.19748585884E-01  0.11364439706E-01 -0.76422921714E-02  0.10198974853E+01  0.10196142990E+01 0.  0.
     999903    2    3    3    0    0 -0.10546911972E+00  0.46010180973E-01  0.53159336217E-01  0.12828286045E+00  0.19746019650E-01 0.  0.
         14    1    1    2    0    0 -0.19748585884E-01 -0.11364439706E-01  0.76422921714E-02  0.24032514722E-01  0.00000000000E+00 0.  1.
     999901    1    3    3    0    0  0.12521770560E+00 -0.34645741268E-01 -0.60801628388E-01  0.89161462482E+00  0.88000000000E+00 0.  1.
        -11    1    4    4    0    0 -0.33126141639E-01  0.15962399251E-01  0.27256785916E-01  0.45774806927E-01  0.51100000000E-03 0. -1.
         11    1    4    4    0    0 -0.72342978079E-01  0.30047781722E-01  0.25902550301E-01  0.82508053527E-01  0.51100000000E-03 0.  1.
</event>
<event>
 8    1  0.1042301E+005  0.1043930E+01  0.7957747E-01            NaN
         13   -1    0    0    0    0  0.00000000000E+00  0.00000000000E+00  0.74505805969E-08  0.10566000000E+00  0.10566000000E+00 0.  1.
     999900   -1    0    0    0    0 -0.00000000000E+00 -0.00000000000E+00 -0.74505805969E-08  0.93827000000E+00  0.93827000000E+00 0. -1.
     999902    2    1    2    0    0 -0.54763191973E-02 -0.23962054004E-02  0.23694426417E-01  0.10194931893E+01  0.10192002774E+01 0.  0.
     999903    2    3    3    0    0 -0.88669295969E-01  0.14288434968E-01 -0.89392171489E-01  0.12820870768E+00  0.19496383785E-01 0.  0.
         14    1    1    2    0    0  0.54763191973E-02  0.23962054004E-02 -0.23694426417E-01  0.24436810665E-01  0.00000000000E+00 0. -1.
     999901    1    3    3    0    0  0.83192976772E-01 -0.16684640368E-01  0.11308659791E+00  0.89128448165E+00  0.88000000000E+00 0.  1.
        -11    1    4    4    0    0 -0.31618397285E-01  0.10211417105E-01 -0.44272936712E-01  0.55356572620E-01  0.51100000000E-03 0.  1.
         11    1    4    4    0    0 -0.57050898684E-01  0.40770178632E-02 -0.45119234777E-01  0.72852135062E-01  0.51100000000E-03 0. -1.
</event>
<event>
 8    1  0.1042301E+005  0.1043930E+01  0.7957747E-01            NaN
         13   -1    0    0    0    0  0.00000000000E+00  0.00000000000E+00  0.74505805969E-08  0.10566000000E+00  0.10566000000E+00 0. -1.
     999900   -1    0    0    0    0 -0.00000000000E+00 -0.00000000000E+00 -0.74505805969E-08  0.93827000000E+00  0.93827000000E+00 0.  1.
     999902    2    1    2    0    0  0.55214752037E-03 -0.20668510738E-01 -0.10635324061E-01  0.10206791437E+01  0.10204142845E+01 0.  0.
     999903    2    3    3    0    0 -0.12593765206E-01  0.75123077434E-01  0.10131575648E+00  0.12833286119E+00  0.20058939815E-01 0.  0.
         14    1    1    2    0    0 -0.55214752037E-03  0.20668510738E-01  0.10635324061E-01  0.23250856348E-01  0.00000000000E+00 0. -1.
     999901    1    3    3    0    0  0.13145912727E-01 -0.95791588171E-01 -0.11195108054E+00  0.89234628246E+00  0.88000000000E+00 0.  1.
        -11    1    4    4    0    0 -0.12414480681E-01  0.21617728934E-01  0.26921534167E-01  0.36694354576E-01  0.51100000000E-03 0. -1.
         11    1    4    4    0    0 -0.17928452475E-03  0.53505348500E-01  0.74394222309E-01  0.91638506617E-01  0.51100000000E-03 0.  1.
</event>
<event>
 8    1  0.1042301E+005  0.1043930E+01  0.7957747E-01            NaN
         13   -1    0    0    0    0  0.00000000000E+00  0.00000000000E+00  0.74505805969E-08  0.10566000000E+00  0.10566000000E+00 0. -1.
     999900   -1    0    0    0    0 -0.00000000000E+00 -0.00000000000E+00 -0.74505805969E-08  0.93827000000E+00  0.93827000000E+00 0. -1.
     999902    2    1    2    0    0  0.17714611542E-01  0.14807169431E-01  0.45731032953E-02  0.10203933689E+01  0.10201218821E+01 0.  0.
     999903    2    3    3    0    0 -0.96888696229E-01 -0.17030439420E-02  0.83031800160E-01  0.12934776268E+00  0.21124489493E-01 0.  0.
         14    1    1    2    0    0 -0.17714611542E-01 -0.14807169431E-01 -0.45731032953E-02  0.23536631075E-01  0.00000000000E+00 0.  1.
     999901    1    3    3    0    0  0.11460330777E+00  0.16510213373E-01 -0.78458696865E-01  0.89104560625E+00  0.88000000000E+00 0. -1.
        -11    1    4    4    0    0 -0.34735356448E-01 -0.41280130704E-03  0.17079201890E-01  0.38712732410E-01  0.51100000000E-03 0.  1.
         11    1    4    4    0    0 -0.62153339782E-01 -0.12902426350E-02  0.65952598270E-01  0.90635030268E-01  0.51100000000E-03 0. -1.
</event>
<event>
 8    1  0.1042301E+005  0.1043930E+01  0.7957747E-01            NaN
         13   -1    0    0    0    0  0.00000000000E+00  0.00000000000E+00  0.74505805969E-08  0.10566000000E+00  0.10566000000E+00 0.  1.
     999900   -1    0    0    0    0 -0.00000000000E+00 -0.00000000000E+00 -0.74505805969E-08  0.93827000000E+00  0.93827000000E+00 0.  1.
     999902    2    1    2    0    0 -0.22650911130E-01  0.69024632545E-02 -0.15301017194E-02  0.10202013467E+01  0.10199253595E+01 0.  0.
     999903    2    3    3    0    0  0.12640837864E+00 -0.56563579970E-02  0.10193723114E-01  0.12750103649E+00  0.11896627240E-01 0.  0.
         14    1    1    2    0    0  0.22650911130E-01 -0.69024632545E-02  0.15301017194E-02  0.23728653254E-01  0.00000000000E+00 0. -1.
     999901    1    3    3    0    0 -0.14905928977E+00  0.12558821251E-01 -0.11723824833E-01  0.89270031025E+00  0.88000000000E+00 0. -1.
        -11    1    4    4    0    0  0.99568256937E-01 -0.77147194950E-02  0.11606725974E-01  0.10054020039E+00  0.51100000000E-03 0. -1.
         11    1    4    4    0    0  0.26840121703E-01  0.20583614980E-02 -0.14130028608E-02  0.26960836099E-01  0.51100000000E-03 0.  1.
</event>
<event>
 8    1  0.1042301E+005  0.1043930E+01  0.7957747E-01            NaN
         13   -1    0    0    0    0  0.00000000000E+00  0.00000000000E+00  0.74505805969E-08  0.10566000000E+00  0.10566000000E+00 0. -1.
     999900   -1    0    0    0    0 -0.00000000000E+00 -0.00000000000E+00 -0.74505805969E-08  0.93827000000E+00  0.93827000000E+00 0.  1.
     999902    2    1    2    0    0 -0.18999062695E-01  0.13667036299E-01 -0.75466896679E-02  0.10193392540E+01  0.10190425948E+01 0.  0.
     999903    2    3    3    0    0 -0.40164470678E-03 -0.53321753946E-01  0.11484518535E+00  0.12815289130E+00  0.19757939834E-01 0.  0.
         14    1    1    2    0    0  0.18999062695E-01 -0.13667036299E-01  0.75466896679E-02  0.24590746012E-01  0.00000000000E+00 0. -1.
     999901    1    3    3    0    0 -0.18597417988E-01  0.66988790244E-01 -0.12239187502E+00  0.89118636269E+00  0.88000000000E+00 0.  1.
        -11    1    4    4    0    0  0.88790119936E-02 -0.34374779852E-01  0.77768731017E-01  0.85490929278E-01  0.51100000000E-03 0.  1.
         11    1    4    4    0    0 -0.92806567003E-02 -0.18946974094E-01  0.37076454338E-01  0.42661962020E-01  0.51100000000E-03 0. -1.
</event>
<event>
 8    1  0.1042301E+005  0.1043930E+01  0.7957747E-01            NaN
         13   -1    0    0    0    0  0.00000000000E+00  0.00000000000E+00  0.74505805969E-08  0.10566000000E+00  0.10566000000E+00 0. -1.
     999900   -1    0    0    0    0 -0.00000000000E+00 -0.00000000000E+00 -0.74505805969E-08  0.93827000000E+00  0.93827000000E+00 0.  1.
     999902    2    1    2    0    0  0.15635519647E-01  0.37911924874E-02  0.17573240583E-01  0.10201043542E+01  0.10198260793E+01 0.  0.
     999903    2    3    3    0    0  0.10248040077E+00  0.70287917961E-01 -0.38326288575E-01  0.13157264103E+00  0.19995787525E-01 0.  0.
         14    1    1    2    0    0 -0.15635519647E-01 -0.37911924874E-02 -0.17573240583E-01  0.23825645840E-01  0.00000000000E+00 0.  1.
     999901    1    3    3    0    0 -0.86844881124E-01 -0.66496725473E-01  0.55899529158E-01  0.88853171313E+00  0.88000000000E+00 0. -1.
        -11    1    4    4    0    0  0.61445903519E-01  0.31779818809E-01 -0.26408088205E-01  0.74048660936E-01  0.51100000000E-03 0.  1.
         11    1    4    4    0    0  0.41034497251E-01  0.38508099151E-01 -0.11918200370E-01  0.57523980095E-01  0.51100000000E-03 0. -1.
</event>
<event>
 8    1  0.1042301E+005  0.1043930E+01  0.7957747E-01            NaN
         13   -1    0    0    0    0  0.00000000000E+00  0.00000000000E+00  0.74505805969E-08  0.10566000000E+00  0.10566000000E+00 0.  1.
     999900   -1    0    0    0    0 -0.00000000000E+00 -0.00000000000E+00 -0.74505805969E-08  0.93827000000E+00  0.93827000000E+00 0.  1.
     999902    2    1    2    0    0  0.25387491518E-01 -0.11380744644E-01 -0.46622528916E-02  0.10157203797E+01  0.10153285710E+01 0.  0.
     999903    2    3    3    0    0 -0.38490277005E-01  0.11427150084E+00 -0.22986431531E-01  0.12431439386E+00  0.19652357562E-01 0.  0.
         14    1    1    2    0    0 -0.25387491518E-01  0.11380744644E-01  0.46622528916E-02  0.28209620278E-01  0.00000000000E+00 0. -1.
     999901    1    3    3    0    0  0.63877768523E-01 -0.12565224549E+00  0.18324178640E-01  0.89140598586E+00  0.88000000000E+00 0. -1.
        -11    1    4    4    0    0 -0.58522265661E-02  0.63319536053E-02  0.18764569215E-02  0.88388010397E-02  0.51100000000E-03 0. -1.
         11    1    4    4    0    0 -0.32638050439E-01  0.10793954724E+00 -0.24862888453E-01  0.11547559282E+00  0.51100000000E-03 0.  1.
</event>
<event>
 8    1  0.1042301E+005  0.1043930E+01  0.7957747E-01            NaN
         13   -1    0    0    0    0  0.00000000000E+00  0.00000000000E+00  0.74505805969E-08  0.10566000000E+00  0.10566000000E+00 0.  1.
     999900   -1    0    0    0    0 -0.00000000000E+00 -0.00000000000E+00 -0.74505805969E-08  0.93827000000E+00  0.93827000000E+00 0. -1.
     999902    2    1    2    0    0  0.20791129498E-01  0.62610199474E-02 -0.10178663358E-01  0.10199492447E+01  0.10196672914E+01 0.  0.
     999903    2    3    3    0    0  0.13128247752E+00  0.78528355659E-02 -0.13854647875E-02  0.13299479706E+00  0.19721577070E-01 0.  0.
         14    1    1    2    0    0 -0.20791129498E-01 -0.62610199474E-02  0.10178663358E-01  0.23980755292E-01  0.00000000000E+00 0.  1.
     999901    1    3    3    0    0 -0.11049134802E+00 -0.15918156185E-02 -0.87931985709E-02  0.88695444765E+00  0.88000000000E+00 0.  1.
        -11    1    4    4    0    0  0.59086816622E-01  0.76660089312E-02  0.82658940344E-02  0.60154847823E-01  0.51100000000E-03 0.  1.
         11    1    4    4    0    0  0.72195660897E-01  0.18682663471E-03 -0.96513588219E-02  0.72839949235E-01  0.51100000000E-03 0. -1.
</event>
<event>
 8    1  0.1042301E+005  0.1043930E+01  0.7957747E-01            NaN
         13   -1    0    0    0    0  0.00000000000E+00  0.00000000000E+00  0.74505805969E-08  0.10566000000E+00  0.10566000000E+00 0.  1.
     999900   -1    0    0    0    0 -0.00000000000E+00 -0.00000000000E+00 -0.74505805969E-08  0.93827000000E+00  0.93827000000E+00 0.  1.
     999902    2    1    2    0    0 -0.15340716247E-01 -0.41701589559E-02  0.17301122944E-01  0.10204341141E+01  0.10201635773E+01 0.  0.
     999903    2    3    3    0    0  0.20532249669E-01 -0.84904594251E-01  0.97504898693E-01  0.13238143299E+00  0.19679307132E-01 0.  0.
         14    1    1    2    0    0  0.15340716247E-01  0.41701589559E-02 -0.17301122944E-01  0.23495885934E-01  0.00000000000E+00 0. -1.
     999901    1    3    3    0    0 -0.35872965917E-01  0.80734435295E-01 -0.80203775749E-01  0.88805268108E+00  0.88000000000E+00 0.  1.
        -11    1    4    4    0    0  0.42721173701E-02 -0.39936993146E-01  0.56889192351E-01  0.69640905621E-01  0.51100000000E-03 0.  1.
         11    1    4    4    0    0  0.16260132299E-01 -0.44967601105E-01  0.40615706342E-01  0.62740527366E-01  0.51100000000E-03 0. -1.
</event>
<event>
 8    1  0.1042301E+005  0.1043930E+01  0.7957747E-01            NaN
         13   -1    0    0    0    0  0.00000000000E+00  0.00000000000E+00  0.74505805969E-08  0.10566000000E+00  0.10566000000E+00 0. -1.
     999900   -1    0    0    0    0 -0.00000000000E+00 -0.00000000000E+00 -0.74505805969E-08  0.93827000000E+00  0.93827000000E+00 0. -1.
     999902    2    1    2    0    0 -0.20954433818E-01  0.10180398980E-01 -0.69959347368E-02  0.10196056928E+01  0.10193155040E+01 0.  0.
     999903    2    3    3    0    0 -0.24419793803E-01 -0.54459194600E-01  0.11296431477E+00  0.12911102840E+00  0.18616955693E-01 0.  0.
         14    1    1    2    0    0  0.20954433818E-01 -0.10180398980E-01  0.69959347368E-02  0.24324307243E-01  0.00000000000E+00 0. -1.
     999901    1    3    3    0    0  0.34653599849E-02  0.64639593580E-01 -0.11996024950E+00  0.89049466435E+00  0.88000000000E+00 0. -1.
        -11    1    4    4    0    0  0.28417459116E-02 -0.90798689552E-02  0.19169720686E-01  0.21406981390E-01  0.51100000000E-03 0.  1.
         11    1    4    4    0    0 -0.27261539715E-01 -0.45379325645E-01  0.93794594080E-01  0.10770404701E+00  0.51100000000E-03 0. -1.
</event>
<event>
 8    1  0.1042301E+005  0.1043930E+01  0.7957747E-01            NaN
         13   -1    0    0    0    0  0.00000000000E+00  0.00000000000E+00  0.74505805969E-08  0.10566000000E+00  0.10566000000E+00 0. -1.
     999900   -1    0    0    0    0 -0.00000000000E+00 -0.00000000000E+00 -0.74505805969E-08  0.93827000000E+00  0.93827000000E+00 0. -1.
     999902    2    1    2    0    0  0.21668567173E-01 -0.12569076920E-02 -0.92004763511E-02  0.10203555353E+01  0.10200831648E+01 0.  0.
     999903    2    3    3    0    0  0.80416066103E-01  0.96651565028E-01 -0.36583952606E-01  0.13255646321E+00  0.20604893577E-01 0.  0.
         14    1    1    2    0    0 -0.21668567173E-01  0.12569076920E-02  0.92004763511E-02  0.23574464688E-01  0.00000000000E+00 0. -1.
     999901    1    3    3    0    0 -0.58747498931E-01 -0.97908472720E-01  0.27383476255E-01  0.88779907211E+00  0.88000000000E+00 0.  1.
        -11    1    4    4    0    0  0.29357497599E-01  0.51275296161E-01 -0.16093091835E-01  0.61239426740E-01  0.51100000000E-03 0.  1.
         11    1    4    4    0    0  0.51058568504E-01  0.45376268867E-01 -0.20490860770E-01  0.71317036465E-01  0.51100000000E-03 0. -1.
</event>
<event>
 8    1  0.1042301E+005  0.1043930E+01  0.7957747E-01            NaN
         13   -1    0    0    0    0  0.00000000000E+00  0.00000000000E+00  0.74505805969E-08  0.10566000000E+00  0.10566000000E+00 0. -1.
     999900   -1    0    0    0    0 -0.00000000000E+00 -0.00000000000E+00 -0.74505805969E-08  0.93827000000E+00  0.93827000000E+00 0. -1.
     999902    2    1    2    0    0  0.33465133667E-02 -0.23531558416E-01  0.17645043421E-02  0.10200962662E+01  0.10198178001E+01 0.  0.
     999903    2    3    3    0    0 -0.87778015198E-02  0.10387117138E+00 -0.70577267718E-01  0.12790133984E+00  0.22612650677E-01 0.  0.
         14    1    1    2    0    0 -0.33465133667E-02  0.23531558416E-01 -0.17645043421E-02  0.23833733840E-01  0.00000000000E+00 0. -1.
     999901    1    3    3    0    0  0.12124314886E-01 -0.12740272979E+00  0.72341772060E-01  0.89219492632E+00  0.88000000000E+00 0.  1.
        -11    1    4    4    0    0 -0.44345838474E-02  0.72073390445E-01 -0.35877866199E-01  0.80633253365E-01  0.51100000000E-03 0. -1.
         11    1    4    4    0    0 -0.43432176723E-02  0.31797780933E-01 -0.34699401519E-01  0.47268086473E-01  0.51100000000E-03 0.  1.
</event>
<event>
 8    1  0.1042301E+005  0.1043930E+01  0.7957747E-01            NaN
         13   -1    0    0    0    0  0.00000000000E+00  0.00000000000E+00  0.74505805969E-08  0.10566000000E+00  0.10566000000E+00 0. -1.
     999900   -1    0    0    0    0 -0.00000000000E+00 -0.00000000000E+00 -0.74505805969E-08  0.93827000000E+00  0.93827000000E+00 0.  1.
     999902    2    1    2    0    0 -0.67623221604E-02  0.21851259047E-01 -0.54918799590E-02  0.10204062403E+01  0.10201350538E+01 0.  0.
     999903    2    3    3    0    0  0.16364021657E-02 -0.74012131808E-01 -0.10465222628E+00  0.12962394227E+00  0.19230301024E-01 0.  0.
         14    1    1    2    0    0  0.67623221604E-02 -0.21851259047E-01  0.54918799590E-02  0.23523759657E-01  0.00000000000E+00 0. -1.
     999901    1    3    3    0    0 -0.83987243261E-02  0.95863390855E-01  0.99160346321E-01  0.89078229807E+00  0.88000000000E+00 0. -1.
        -11    1    4    4    0    0 -0.35766453227E-02 -0.53949317649E-01 -0.62465022974E-01  0.82616351183E-01  0.51100000000E-03 0. -1.
         11    1    4    4    0    0  0.52130474883E-02 -0.20062814159E-01 -0.42187203306E-01  0.47007591088E-01  0.51100000000E-03 0.  1.
</event>
<event>
 8    1  0.1042301E+005  0.1043930E+01  0.7957747E-01            NaN
         13   -1    0    0    0    0  0.00000000000E+00  0.00000000000E+00  0.74505805969E-08  0.10566000000E+00  0.10566000000E+00 0. -1.
     999900   -1    0    0    0    0 -0.00000000000E+00 -0.00000000000E+00 -0.74505805969E-08  0.93827000000E+00  0.93827000000E+00 0.  1.
     999902    2    1    2    0    0 -0.91630266358E-02 -0.17170869961E-01  0.13524584586E-01  0.10202294890E+01  0.10199541637E+01 0.  0.
     999903    2    3    3    0    0 -0.72592721941E-01 -0.37145683320E-01  0.10342441193E+00  0.13315322490E+00  0.19587425793E-01 0.  0.
         14    1    1    2    0    0  0.91630266358E-02  0.17170869961E-01 -0.13524584586E-01  0.23700510977E-01  0.00000000000E+00 0.  1.
     999901    1    3    3    0    0  0.63429695306E-01  0.19974813359E-01 -0.89899827346E-01  0.88707626412E+00  0.88000000000E+00 0.  1.
        -11    1    4    4    0    0 -0.11222479863E-01 -0.14314028004E-01  0.18957144128E-01  0.26276793686E-01  0.51100000000E-03 0. -1.
         11    1    4    4    0    0 -0.61370242078E-01 -0.22831655316E-01  0.84467267805E-01  0.10687643121E+00  0.51100000000E-03 0.  1.
</event>
<event>
 8    1  0.1042301E+005  0.1043930E+01  0.7957747E-01            NaN
         13   -1    0    0    0    0  0.00000000000E+00  0.00000000000E+00  0.74505805969E-08  0.10566000000E+00  0.10566000000E+00 0. -1.
     999900   -1    0    0    0    0 -0.00000000000E+00 -0.00000000000E+00 -0.74505805969E-08  0.93827000000E+00  0.93827000000E+00 0. -1.
     999902    2    1    2    0    0 -0.76251448809E-02 -0.17622492491E-01  0.17908338926E-01  0.10176735022E+01  0.10173347302E+01 0.  0.
     999903    2    3    3    0    0 -0.21957264283E-01  0.10164150139E+00  0.71665685401E-01  0.12788748171E+00  0.20152450297E-01 0.  0.
         14    1    1    2    0    0  0.76251448809E-02  0.17622492491E-01 -0.17908338926E-01  0.26256497846E-01  0.00000000000E+00 0.  1.
     999901    1    3    3    0    0  0.14332119402E-01 -0.11926399388E+00 -0.53757346475E-01  0.88978602045E+00  0.88000000000E+00 0. -1.
        -11    1    4    4    0    0 -0.85812476044E-02  0.11313433731E-01  0.13640693071E-01  0.19696731244E-01  0.51100000000E-03 0.  1.
         11    1    4    4    0    0 -0.13376016679E-01  0.90328067662E-01  0.58024992330E-01  0.10819075046E+00  0.51100000000E-03 0. -1.
</event>
<event>
 8    1  0.1042301E+005  0.1043930E+01  0.7957747E-01            NaN
         13   -1    0    0    0    0  0.00000000000E+00  0.00000000000E+00  0.74505805969E-08  0.10566000000E+00  0.10566000000E+00 0.  1.
     999900   -1    0    0    0    0 -0.00000000000E+00 -0.00000000000E+00 -0.74505805969E-08  0.93827000000E+00  0.93827000000E+00 0. -1.
     999902    2    1    2    0    0 -0.17592262927E-01 -0.15046463502E-01  0.60366715316E-02  0.10200066812E+01  0.10197260929E+01 0.  0.
     999903    2    3    3    0    0  0.75145073591E-01  0.95576704165E-01 -0.32414996897E-01  0.12741706127E+00  0.20067062962E-01 0.  0.
         14    1    1    2    0    0  0.17592262927E-01  0.15046463502E-01 -0.60366715316E-02  0.23923318792E-01  0.00000000000E+00 0. -1.
     999901    1    3    3    0    0 -0.92737336518E-01 -0.11062316767E+00  0.38451668429E-01  0.89258961993E+00  0.88000000000E+00 0.  1.
        -11    1    4    4    0    0  0.25973563926E-01  0.18961255822E-01 -0.95687703748E-02  0.33555591678E-01  0.51100000000E-03 0. -1.
         11    1    4    4    0    0  0.49171509665E-01  0.76615448342E-01 -0.22846226522E-01  0.93861469596E-01  0.51100000000E-03 0.  1.
</event>
<event>
 8    1  0.1042301E+005  0.1043930E+01  0.7957747E-01            NaN
         13   -1    0    0    0    0  0.00000000000E+00  0.00000000000E+00  0.74505805969E-08  0.10566000000E+00  0.10566000000E+00 0.  1.
     999900   -1    0    0    0    0 -0.00000000000E+00 -0.00000000000E+00 -0.74505805969E-08  0.93827000000E+00  0.93827000000E+00 0. -1.
     999902    2    1    2    0    0 -0.16701954673E-01  0.52729937019E-02  0.16171287890E-01  0.10200915792E+01  0.10198130023E+01 0.  0.
     999903    2    3    3    0    0  0.11739874199E+00  0.23450763097E-01 -0.41367684527E-01  0.12788971783E+00  0.17666117100E-01 0.  0.
         14    1    1    2    0    0  0.16701954673E-01 -0.52729937019E-02 -0.16171287890E-01  0.23838420764E-01  0.00000000000E+00 0. -1.
     999901    1    3    3    0    0 -0.13410069666E+00 -0.18177769395E-01  0.57538972417E-01  0.89220186140E+00  0.88000000000E+00 0.  1.
        -11    1    4    4    0    0  0.22265976441E-01  0.66492093998E-03 -0.17612975023E-02  0.22351266555E-01  0.51100000000E-03 0.  1.
         11    1    4    4    0    0  0.95132765549E-01  0.22785842157E-01 -0.39606387025E-01  0.10553845128E+00  0.51100000000E-03 0. -1.
</event>
<event>
 8    1  0.1042301E+005  0.1043930E+01  0.7957747E-01            NaN
         13   -1    0    0    0    0  0.00000000000E+00  0.00000000000E+00  0.74505805969E-08  0.10566000000E+00  0.10566000000E+00 0. -1.
     999900   -1    0    0    0    0 -0.00000000000E+00 -0.00000000000E+00 -0.74505805969E-08  0.93827000000E+00  0.93827000000E+00 0.  1.
     999902    2    1    2    0    0  0.11318805939E-02  0.79575786527E-02 -0.23829709976E-01  0.10187812567E+01  0.10184708095E+01 0.  0.
     999903    2    3    3    0    0  0.39584314709E-01 -0.11957823047E+00 -0.16729784084E-01  0.12872823511E+00  0.20620418677E-01 0.  0.
         14    1    1    2    0    0 -0.11318805939E-02 -0.79575786527E-02  0.23829709976E-01  0.25148743293E-01  0.00000000000E+00 0. -1.
     999901    1    3    3    0    0 -0.38452434115E-01  0.12753580912E+00 -0.70999258915E-02  0.89005302159E+00  0.88000000000E+00 0.  1.
        -11    1    4    4    0    0  0.29199361299E-02 -0.82568462750E-02 -0.68071633033E-02  0.11104059197E-01  0.51100000000E-03 0. -1.
         11    1    4    4    0    0  0.36664378579E-01 -0.11132138420E+00 -0.99226207808E-02  0.11762417592E+00  0.51100000000E-03 0.  1.
</event>
<event>
 8    1  0.1042301E+005  0.1043930E+01  0.7957747E-01            NaN
         13   -1    0    0    0    0  0.00000000000E+00  0.00000000000E+00  0.74505805969E-08  0.10566000000E+00  0.10566000000E+00 0.  1.
     999900   -1    0    0    0    0 -0.00000000000E+00 -0.00000000000E+00 -0.74505805969E-08  0.93827000000E+00  0.93827000000E+00 0.  1.
     999902    2    1    2    0    0  0.15065215183E-01 -0.17654413123E-01  0.76548950892E-02  0.10194915788E+01  0.10191986278E+01 0.  0.
     999903    2    3    3    0    0 -0.10875748574E+00 -0.34861510514E-01  0.57060871113E-01  0.12928424570E+00  0.20370506975E-01 0.  0.
         14    1    1    2    0    0 -0.15065215183E-01  0.17654413123E-01 -0.76548950892E-02  0.24438421186E-01  0.00000000000E+00 0.  1.
     999901    1    3    3    0    0  0.12382270092E+00  0.17207097391E-01 -0.49405976024E-01  0.89020733311E+00  0.88000000000E+00 0.  1.
        -11    1    4    4    0    0 -0.10119842944E+00 -0.28437866655E-01  0.47006467391E-01  0.11515078583E+00  0.51100000000E-03 0.  1.
         11    1    4    4    0    0 -0.75590563019E-02 -0.64236438586E-02  0.10054403722E-01  0.14133459867E-01  0.51100000000E-03 0. -1.
</event>
<event>
 8    1  0.1042301E+005  0.1043930E+01  0.7957747E-01            NaN
         13   -1    0    0    0    0  0.00000000000E+00  0.00000000000E+00  0.74505805969E-08  0.10566000000E+00  0.10566000000E+00 0. -1.
     999900   -1    0    0    0    0 -0.00000000000E+00 -0.00000000000E+00 -0.74505805969E-08  0.93827000000E+00  0.93827000000E+00 0. -1.
     999902    2    1    2    0    0  0.43377678590E-03  0.13923319360E-01  0.19303714093E-01  0.10201249509E+01  0.10198471626E+01 0.  0.
     999903    2    3    3    0    0 -0.99694421103E-01 -0.68846062762E-01 -0.39585841291E-01  0.12864056722E+00  0.17395365696E-01 0.  0.
         14    1    1    2    0    0 -0.43377678590E-03 -0.13923319360E-01 -0.19303714093E-01  0.23805049088E-01  0.00000000000E+00 0.  1.
     999901    1    3    3    0    0  0.10012819789E+00  0.82769382122E-01  0.58889555384E-01  0.89148438369E+00  0.88000000000E+00 0.  1.
        -11    1    4    4    0    0 -0.52049642022E-01 -0.28272325837E-01 -0.12993793632E-01  0.60643131819E-01  0.51100000000E-03 0. -1.
         11    1    4    4    0    0 -0.47644779080E-01 -0.40573736925E-01 -0.26592047659E-01  0.67997435403E-01  0.51100000000E-03 0.  1.
</event>
<event>
 8    1  0.1042301E+005  0.1043930E+01  0.7957747E-01            NaN
         13   -1    0    0    0    0  0.00000000000E+00  0.00000000000E+00  0.74505805969E-08  0.10566000000E+00  0.10566000000E+00 0. -1.
     999900   -1    0    0    0    0 -0.00000000000E+00 -0.00000000000E+00 -0.74505805969E-08  0.93827000000E+00  0.93827000000E+00 0.  1.
     999902    2    1    2    0    0 -0.23626361318E-01 -0.75738217776E-03  0.13168438814E-02  0.10202548515E+01  0.10199801221E+01 0.  0.
     999903    2    3    3    0    0  0.96273877124E-01 -0.47634640826E-01  0.67236454299E-01  0.12844829202E+00  0.20988199396E-01 0.  0.
         14    1    1    2    0    0  0.23626361318E-01  0.75738217776E-03 -0.13168438814E-02  0.23675148462E-01  0.00000000000E+00 0. -1.
     999901    1    3    3    0    0 -0.11990023844E+00  0.46877258648E-01 -0.65919610418E-01  0.89180655952E+00  0.88000000000E+00 0.  1.
        -11    1    4    4    0    0  0.77533212869E-01 -0.28805293652E-01  0.47846006971E-01  0.95554411433E-01  0.51100000000E-03 0.  1.
         11    1    4    4    0    0  0.18740664254E-01 -0.18829347174E-01  0.19390447328E-01  0.32893880590E-01  0.51100000000E-03 0. -1.
</event>
<event>
 8    1  0.1042301E+005  0.1043930E+01  0.7957747E-01            NaN
         13   -1    0    0    0    0  0.00000000000E+00  0.00000000000E+00  0.74505805969E-08  0.10566000000E+00  0.10566000000E+00 0.  1.
     999900   -1    0    0    0    0 -0.00000000000E+00 -0.00000000000E+00 -0.74505805969E-08  0.93827000000E+00  0.93827000000E+00 0. -1.
     999902    2    1    2    0    0 -0.78363874714E-02 -0.89568238453E-02 -0.20772697020E-01  0.10199896866E+01  0.10197086948E+01 0.  0.
     999903    2    3    3    0    0  0.49197190792E-01 -0.60469597001E-01  0.10000493220E+00  0.12842161265E+00  0.20351618817E-01 0.  0.
         14    1    1    2    0    0  0.78363874714E-02  0.89568238453E-02  0.20772697020E-01  0.23940313354E-01  0.00000000000E+00 0.  1.
     999901    1    3    3    0    0 -0.57033578263E-01  0.51512773156E-01 -0.12077762922E+00  0.89156807400E+00  0.88000000000E+00 0. -1.
        -11    1    4    4    0    0  0.11740942868E-01 -0.25811887751E-01  0.46612341065E-01  0.54562576453E-01  0.51100000000E-03 0.  1.
         11    1    4    4    0    0  0.37456247924E-01 -0.34657709251E-01  0.53392591134E-01  0.73859036197E-01  0.51100000000E-03 0. -1.
</event>
<event>
 8    1  0.1042301E+005  0.1043930E+01  0.7957747E-01            NaN
         13   -1    0    0    0    0  0.00000000000E+00  0.00000000000E+00  0.74505805969E-08  0.10566000000E+00  0.10566000000E+00 0. -1.
     999900   -1    0    0    0    0 -0.00000000000E+00 -0.00000000000E+00 -0.74505805969E-08  0.93827000000E+00  0.93827000000E+00 0.  1.
     999902    2    1    2    0    0 -0.64671153648E-02  0.79250331968E-02  0.19473281940E-01  0.10219336721E+01  0.10216969177E+01 0.  0.
     999903    2    3    3    0    0  0.49476415575E-01 -0.11632975857E+00  0.30035129254E-01  0.13138300842E+00  0.19464261713E-01 0.  0.
         14    1    1    2    0    0  0.64671153648E-02 -0.79250331968E-02 -0.19473281940E-01  0.21996327917E-01  0.00000000000E+00 0.  1.
     999901    1    3    3    0    0 -0.55943530940E-01  0.12425479177E+00 -0.10561847314E-01  0.89055066366E+00  0.88000000000E+00 0.  1.
        -11    1    4    4    0    0  0.16247550227E-02 -0.20133243400E-01  0.78364210704E-02  0.21671592809E-01  0.51100000000E-03 0. -1.
         11    1    4    4    0    0  0.47851660552E-01 -0.96196515174E-01  0.22198708184E-01  0.10971141561E+00  0.51100000000E-03 0.  1.
</event>
<event>
 8    1  0.1042301E+005  0.1043930E+01  0.7957747E-01            NaN
         13   -1    0    0    0    0  0.00000000000E+00  0.00000000000E+00  0.74505805969E-08  0.10566000000E+00  0.10566000000E+00 0.  1.
     999900   -1    0    0    0    0 -0.00000000000E+00 -0.00000000000E+00 -0.74505805969E-08  0.93827000000E+00  0.93827000000E+00 0.  1.
     999902    2    1    2    0    0 -0.15954689694E-01  0.53894540713E-02 -0.16027272949E-01  0.10206819503E+01  0.10204171558E+01 0.  0.
     999903    2    3    3    0    0 -0.84813203155E-01 -0.97711052985E-01  0.13960205742E-01  0.13148542625E+00  0.18782988786E-01 0.  0.
         14    1    1    2    0    0  0.15954689694E-01 -0.53894540713E-02  0.16027272949E-01  0.23248049738E-01  0.00000000000E+00 0.  1.
     999901    1    3    3    0    0  0.68858513461E-01  0.10310050706E+00 -0.29987478691E-01  0.88919652401E+00  0.88000000000E+00 0.  1.
        -11    1    4    4    0    0 -0.54514898887E-01 -0.48603342716E-01  0.79893449189E-02  0.73472783241E-01  0.51100000000E-03 0.  1.
         11    1    4    4    0    0 -0.30298304268E-01 -0.49107710268E-01  0.59708608229E-02  0.58012643013E-01  0.51100000000E-03 0. -1.
</event>
<event>
 8    1  0.1042301E+005  0.1043930E+01  0.7957747E-01            NaN
         13   -1    0    0    0    0  0.00000000000E+00  0.00000000000E+00  0.74505805969E-08  0.10566000000E+00  0.10566000000E+00 0. -1.
     999900   -1    0    0    0    0 -0.00000000000E+00 -0.00000000000E+00 -0.74505805969E-08  0.93827000000E+00  0.93827000000E+00 0. -1.
     999902    2    1    2    0    0 -0.18338689418E-02  0.21815732517E-01 -0.10306643497E-01  0.10197325588E+01  0.10194454254E+01 0.  0.
     999903    2    3    3    0    0  0.12435663623E+00 -0.17221101019E-01 -0.25924269303E-01  0.12973714971E+00  0.19962990276E-01 0.  0.
         14    1    1    2    0    0  0.18338689418E-02 -0.21815732517E-01  0.10306643497E-01  0.24197441203E-01  0.00000000000E+00 0. -1.
     999901    1    3    3    0    0 -0.12619050517E+00  0.39036833537E-01  0.15617625805E-01  0.88999540909E+00  0.88000000000E+00 0.  1.
        -11    1    4    4    0    0  0.49678709885E-01 -0.28714849058E-02 -0.19399964713E-01  0.53411977994E-01  0.51100000000E-03 0. -1.
         11    1    4    4    0    0  0.74677926343E-01 -0.14349616113E-01 -0.65243045901E-02  0.76325171712E-01  0.51100000000E-03 0.  1.
</event>
<event>
 8    1  0.1042301E+005  0.1043930E+01  0.7957747E-01            NaN
         13   -1    0    0    0    0  0.00000000000E+00  0.00000000000E+00  0.74505805969E-08  0.10566000000E+00  0.10566000000E+00 0.  1.
     999900   -1    0    0    0    0 -0.00000000000E+00 -0.00000000000E+00 -0.74505805969E-08  0.93827000000E+00  0.93827000000E+00 0. -1.
     999902    2    1    2    0    0 -0.18763035738E-01 -0.92558865230E-02  0.12068253549E-01  0.10197770356E+01  0.10194909694E+01 0.  0.
     999903    2    3    3    0    0 -0.11171481168E+00 -0.20549537844E-01 -0.63580999956E-01  0.13158201830E+00  0.19204200854E-01 0.  0.
         14    1    1    2    0    0  0.18763035738E-01  0.92558865230E-02 -0.12068253549E-01  0.24152964397E-01  0.00000000000E+00 0. -1.
     999901    1    3    3    0    0  0.92951775939E-01  0.11293651321E-01  0.75649253505E-01  0.88819501731E+00  0.88000000000E+00 0. -1.
        -11    1    4    4    0    0 -0.58062619724E-01 -0.20163317384E-01 -0.36373038848E-01  0.71421889174E-01  0.51100000000E-03 0.  1.
         11    1    4    4    0    0 -0.53652191952E-01 -0.38622045956E-03 -0.27207961108E-01  0.60160129124E-01  0.51100000000E-03 0. -1.
</event>
<event>
 8    1  0.1042301E+005  0.1043930E+01  0.7957747E-01            NaN
         13   -1    0    0    0    0  0.00000000000E+00  0.00000000000E+00  0.74505805969E-08  0.10566000000E+00  0.10566000000E+00 0.  1.
     999900   -1    0    0    0    0 -0.00000000000E+00 -0.00000000000E+00 -0.74505805969E-08  0.93827000000E+00  0.93827000000E+00 0. -1.
     999902    2    1    2    0    0 -0.11662527792E-01 -0.29652194775E-02 -0.20319945903E-01  0.10203141730E+01  0.10200408347E+01 0.  0.
     999903    2    3    3    0    0  0.10206430431E+00  0.38764212912E-02  0.74401118832E-01  0.12792822488E+00  0.19948819066E-01 0.  0.
         14    1    1    2    0    0  0.11662527792E-01  0.29652194775E-02  0.20319945903E-01  0.23615826950E-01  0.00000000000E+00 0.  1.
     999901    1    3    3    0    0 -0.11372683210E+00 -0.68416407688E-02 -0.94721064735E-01  0.89238594817E+00  0.88000000000E+00 0.  1.
        -11    1    4    4    0    0  0.37309531790E-01 -0.80241292488E-02  0.25211064679E-01  0.45741083457E-01  0.51100000000E-03 0.  1.
         11    1    4    4    0    0  0.64754772515E-01  0.11900550540E-01  0.49190054153E-01  0.82187141423E-01  0.51100000000E-03 0. -1.
</event>
<event>
 8    1  0.1042301E+005  0.1043930E+01  0.7957747E-01            NaN
         13   -1    0    0    0    0  0.00000000000E+00  0.00000000000E+00  0.74505805969E-08  0.10566000000E+00  0.10566000000E+00 0.  1.
     999900   -1    0    0    0    0 -0.00000000000E+00 -0.00000000000E+00 -0.74505805969E-08  0.93827000000E+00  0.93827000000E+00 0. -1.
     999902    2    1    2    0    0 -0.43038076983E-03  0.24323549921E-01 -0.14444688658E-03  0.10196022140E+01  0.10193119412E+01 0.  0.
     999903    2    3    3    0    0 -0.68266849915E-01 -0.24106872286E-01 -0.10576740750E+00  0.12937555623E+00  0.17600737805E-01 0.  0.
         14    1    1    2    0    0  0.43038076983E-03 -0.24323549921E-01  0.14444688658E-03  0.24327786033E-01  0.00000000000E+00 0.  1.
     999901    1    3    3    0    0  0.67836469145E-01  0.48430422207E-01  0.10562296061E+00  0.89022665774E+00  0.88000000000E+00 0.  1.
        -11    1    4    4    0    0 -0.36227939709E-01 -0.68402810514E-02 -0.41478205917E-01  0.55497349014E-01  0.51100000000E-03 0.  1.
         11    1    4    4    0    0 -0.32038910206E-01 -0.17266591234E-01 -0.64289201583E-01  0.73878207214E-01  0.51100000000E-03 0. -1.
</event>
<event>
 8    1  0.1042301E+005  0.1043930E+01  0.7957747E-01            NaN
         13   -1    0    0    0    0  0.00000000000E+00  0.00000000000E+00  0.74505805969E-08  0.10566000000E+00  0.10566000000E+00 0.  1.
     999900   -1    0    0    0    0 -0.00000000000E+00 -0.00000000000E+00 -0.74505805969E-08  0.93827000000E+00  0.93827000000E+00 0. -1.
     999902    2    1    2    0    0  0.26034304000E-02  0.22402524531E-01  0.55674651455E-02  0.10206996831E+01  0.10204352970E+01 0.  0.
     999903    2    3    3    0    0 -0.39578955080E-01  0.12554149668E+00 -0.99303066855E-02  0.13353725031E+00  0.20159988999E-01 0.  0.
         14    1    1    2    0    0 -0.26034304000E-02 -0.22402524531E-01 -0.55674651455E-02  0.23230316902E-01  0.00000000000E+00 0. -1.
     999901    1    3    3    0    0  0.42182385480E-01 -0.10313897214E+00  0.15497771831E-01  0.88716243279E+00  0.88000000000E+00 0. -1.
        -11    1    4    4    0    0 -0.12758529849E-01  0.71633834347E-01 -0.18704217157E-02  0.72786989947E-01  0.51100000000E-03 0. -1.
         11    1    4    4    0    0 -0.26820425231E-01  0.53907662329E-01 -0.80598849698E-02  0.60750260362E-01  0.51100000000E-03 0.  1.
</event>
<event>
 8    1  0.1042301E+005  0.1043930E+01  0.7957747E-01            NaN
         13   -1    0    0    0    0  0.00000000000E+00  0.00000000000E+00  0.74505805969E-08  0.10566000000E+00  0.10566000000E+00 0.  1.
     999900   -1    0    0    0    0 -0.00000000000E+00 -0.00000000000E+00 -0.74505805969E-08  0.93827000000E+00  0.93827000000E+00 0. -1.
     999902    2    1    2    0    0  0.13583344969E-01  0.42213508061E-02 -0.18285004219E-01  0.10207638945E+01  0.10205009848E+01 0.  0.
     999903    2    3    3    0    0 -0.93221156749E-01 -0.86137773148E-01  0.12507154616E-01  0.12918095957E+00  0.20527819438E-01 0.  0.
         14    1    1    2    0    0 -0.13583344969E-01 -0.42213508061E-02  0.18285004219E-01  0.23166105467E-01  0.00000000000E+00 0.  1.
     999901    1    3    3    0    0  0.10680450172E+00  0.90359123954E-01 -0.30792158835E-01  0.89158293496E+00  0.88000000000E+00 0. -1.
        -11    1    4    4    0    0 -0.35468291106E-01 -0.46093928808E-01  0.85788365782E-02  0.58792070086E-01  0.51100000000E-03 0.  1.
         11    1    4    4    0    0 -0.57752865643E-01 -0.40043844340E-01  0.39283180376E-02  0.70388889486E-01  0.51100000000E-03 0. -1.
</event>
<event>
 8    1  0.1042301E+005  0.1043930E+01  0.7957747E-01            NaN
         13   -1    0    0    0    0  0.00000000000E+00  0.00000000000E+00  0.74505805969E-08  0.10566000000E+00  0.10566000000E+00 0. -1.
     999900   -1    0    0    0    0 -0.00000000000E+00 -0.00000000000E+00 -0.74505805969E-08  0.93827000000E+00  0.93827000000E+00 0.  1.
     999902    2    1    2    0    0 -0.10456035018E-01 -0.16982000025E-01 -0.11796003034E-01  0.10207597026E+01  0.10204966966E+01 0.  0.
     999903    2    3    3    0    0 -0.39646924343E-01 -0.11370009695E+00 -0.54634572193E-01  0.13394425322E+00  0.21366699210E-01 0.  0.
         14    1    1    2    0    0  0.10456035018E-01  0.16982000025E-01  0.11796003034E-01  0.23170297381E-01  0.00000000000E+00 0. -1.
     999901    1    3    3    0    0  0.29190889325E-01  0.96718096923E-01  0.42838569158E-01  0.88681544940E+00  0.88000000000E+00 0. -1.
        -11    1    4    4    0    0 -0.38424795248E-02 -0.16560649225E-01 -0.27259835752E-03  0.17010443337E-01  0.51100000000E-03 0.  1.
         11    1    4    4    0    0 -0.35804444818E-01 -0.97139447723E-01 -0.54361973835E-01  0.11693380988E+00  0.51100000000E-03 0. -1.
</event>
<event>
 8    1  0.1042301E+005  0.1043930E+01  0.7957747E-01            NaN
         13   -1    0    0    0    0  0.00000000000E+00  0.00000000000E+00  0.74505805969E-08  0.10566000000E+00  0.10566000000E+00 0.  1.
     999900   -1    0    0    0    0 -0.00000000000E+00 -0.00000000000E+00 -0.74505805969E-08  0.93827000000E+00  0.93827000000E+00 0. -1.
     999902    2    1    2    0    0 -0.75719633716E-02 -0.23888292148E-01 -0.40299930013E-02  0.10185483930E+01  0.10182320968E+01 0.  0.
     999903    2    3    3    0    0  0.65778756863E-01  0.10579178796E+00 -0.13678141381E-02  0.12602145304E+00  0.18994432250E-01 0.  0.
         14    1    1    2    0    0  0.75719633716E-02  0.23888292148E-01  0.40299930013E-02  0.25381607015E-01  0.00000000000E+00 0. -1.
     999901    1    3    3    0    0 -0.73350720234E-01 -0.12968008011E+00 -0.26621788632E-02  0.89252693995E+00  0.88000000000E+00 0. -1.
        -11    1    4    4    0    0  0.59575357442E-01  0.98189521000E-01  0.38129154527E-02  0.11491390122E+00  0.51100000000E-03 0. -1.
         11    1    4    4    0    0  0.62033994213E-02  0.76022669580E-02 -0.51807295908E-02  0.11107551817E-01  0.51100000000E-03 0.  1.
</event>
<event>
 8    1  0.1042301E+005  0.1043930E+01  0.7957747E-01            NaN
         13   -1    0    0    0    0  0.00000000000E+00  0.00000000000E+00  0.74505805969E-08  0.10566000000E+00  0.10566000000E+00 0.  1.
     999900   -1    0    0    0    0 -0.00000000000E+00 -0.00000000000E+00 -0.74505805969E-08  0.93827000000E+00  0.93827000000E+00 0. -1.
     999902    2    1    2    0    0 -0.15579790415E-01 -0.73002359298E-02 -0.17382387398E-01  0.10194724714E+01  0.10191790565E+01 0.  0.
     999903    2    3    3    0    0 -0.98742517921E-01  0.26156664824E-01  0.77759672869E-01  0.12981668678E+00  0.19275618863E-01 0.  0.
         14    1    1    2    0    0  0.15579790415E-01  0.73002359298E-02  0.17382387398E-01  0.24457528609E-01  0.00000000000E+00 0.  1.
     999901    1    3    3    0    0  0.83162727506E-01 -0.33456900754E-01 -0.95142060267E-01  0.88965578461E+00  0.88000000000E+00 0. -1.
        -11    1    4    4    0    0 -0.56583501850E-01  0.21928973020E-01  0.54018460448E-01  0.81245478209E-01  0.51100000000E-03 0.  1.
         11    1    4    4    0    0 -0.42159016072E-01  0.42276918032E-02  0.23741212421E-01  0.48571208574E-01  0.51100000000E-03 0. -1.
</event>
<event>
 8    1  0.1042301E+005  0.1043930E+01  0.7957747E-01            NaN
         13   -1    0    0    0    0  0.00000000000E+00  0.00000000000E+00  0.74505805969E-08  0.10566000000E+00  0.10566000000E+00 0. -1.
     999900   -1    0    0    0    0 -0.00000000000E+00 -0.00000000000E+00 -0.74505805969E-08  0.93827000000E+00  0.93827000000E+00 0.  1.
     999902    2    1    2    0    0 -0.15734472739E-01  0.16182174395E-01  0.79819085814E-02  0.10199895057E+01  0.10197085096E+01 0.  0.
     999903    2    3    3    0    0  0.39896368545E-01  0.10614694364E+00 -0.62169866306E-01  0.13088336938E+00  0.20161107016E-01 0.  0.
         14    1    1    2    0    0  0.15734472739E-01 -0.16182174395E-01 -0.79819085814E-02  0.23940494254E-01  0.00000000000E+00 0.  1.
     999901    1    3    3    0    0 -0.55630841284E-01 -0.89964769244E-01  0.70151774888E-01  0.88910613637E+00  0.88000000000E+00 0. -1.
        -11    1    4    4    0    0  0.10898490361E-01  0.45066491986E-01 -0.34634203871E-01  0.57875340093E-01  0.51100000000E-03 0. -1.
         11    1    4    4    0    0  0.28997878184E-01  0.61080451654E-01 -0.27535662435E-01  0.73008029285E-01  0.51100000000E-03 0.  1.
</event>
<event>
 8    1  0.1042301E+005  0.1043930E+01  0.7957747E-01            NaN
         13   -1    0    0    0    0  0.00000000000E+00  0.00000000000E+00  0.74505805969E-08  0.10566000000E+00  0.10566000000E+00 0. -1.
     999900   -1    0    0    0    0 -0.00000000000E+00 -0.00000000000E+00 -0.74505805969E-08  0.93827000000E+00  0.93827000000E+00 0. -1.
     999902    2    1    2    0    0  0.37398800757E-02  0.17512999616E-01  0.15208237976E-01  0.10204356951E+01  0.10201651952E+01 0.  0.
     999903    2    3    3    0    0 -0.18489824331E-01  0.12767547342E+00  0.26551390027E-01  0.13321610705E+00  0.19966340394E-01 0.  0.
         14    1    1    2    0    0 -0.37398800757E-02 -0.17512999616E-01 -0.15208237976E-01  0.23494304860E-01  0.00000000000E+00 0.  1.
     999901    1    3    3    0    0  0.22229704407E-01 -0.11016247380E+00 -0.11343152051E-01  0.88721958809E+00  0.88000000000E+00 0.  1.
        -11    1    4    4    0    0 -0.20992385746E-01  0.81108431432E-01  0.14270525391E-01  0.84989216520E-01  0.51100000000E-03 0.  1.
         11    1    4    4    0    0  0.25025614152E-02  0.46567041987E-01  0.12280864636E-01  0.48226890530E-01  0.51100000000E-03 0. -1.
</event>
<event>
 8    1  0.1042301E+005  0.1043930E+01  0.7957747E-01            NaN
         13   -1    0    0    0    0  0.00000000000E+00  0.00000000000E+00  0.74505805969E-08  0.10566000000E+00  0.10566000000E+00 0. -1.
     999900   -1    0    0    0    0 -0.00000000000E+00 -0.00000000000E+00 -0.74505805969E-08  0.93827000000E+00  0.93827000000E+00 0. -1.
     999902    2    1    2    0    0  0.34094598797E-02  0.23059602553E-01  0.12360777939E-01  0.10175451840E+01  0.10172030490E+01 0.  0.
     999903    2    3    3    0    0 -0.34460928995E-02 -0.12158162151E+00 -0.21367178002E-01  0.12507352765E+00  0.19820816780E-01 0.  0.
         14    1    1    2    0    0 -0.34094598797E-02 -0.23059602553E-01 -0.12360777939E-01  0.26384816047E-01  0.00000000000E+00 0.  1.
     999901    1    3    3    0    0  0.68555527792E-02  0.14464122406E+00  0.33727955941E-01  0.89247165631E+00  0.88000000000E+00 0. -1.
        -11    1    4    4    0    0 -0.62600548280E-02 -0.34241532862E-01 -0.13479616608E-01  0.37331381491E-01  0.51100000000E-03 0. -1.
         11    1    4    4    0    0  0.28139619285E-02 -0.87340088644E-01 -0.78875613946E-02  0.87742146154E-01  0.51100000000E-03 0.  1.
</event>
<event>
 8    1  0.1042301E+005  0.1043930E+01  0.7957747E-01            NaN
         13   -1    0    0    0    0  0.00000000000E+00  0.00000000000E+00  0.74505805969E-08  0.10566000000E+00  0.10566000000E+00 0. -1.
     999900   -1    0    0    0    0 -0.00000000000E+00 -0.00000000000E+00 -0.74505805969E-08  0.93827000000E+00  0.93827000000E+00 0. -1.
     999902    2    1    2    0    0  0.11461693875E-01 -0.11919979083E-01 -0.17209947037E-01  0.10200628970E+01  0.10197836414E+01 0.  0.
     999903    2    3    3    0    0  0.49819136474E-02 -0.10820708638E+00  0.69943688872E-01  0.13050741767E+00  0.20161186674E-01 0.  0.
         14    1    1    2    0    0 -0.11461693875E-01  0.11919979083E-01  0.17209947037E-01  0.23867102984E-01  0.00000000000E+00 0. -1.
     999901    1    3    3    0    0  0.64797802279E-02  0.96287107294E-01 -0.87153635908E-01  0.88955547935E+00  0.88000000000E+00 0. -1.
        -11    1    4    4    0    0  0.98515553369E-02 -0.62705790931E-01  0.32146732257E-01  0.71152954082E-01  0.51100000000E-03 0.  1.
         11    1    4    4    0    0 -0.48696416894E-02 -0.45501295447E-01  0.37796956615E-01  0.59354463588E-01  0.51100000000E-03 0. -1.
</event>
<event>
 8    1  0.1042301E+005  0.1043930E+01  0.7957747E-01            NaN
         13   -1    0    0    0    0  0.00000000000E+00  0.00000000000E+00  0.74505805969E-08  0.10566000000E+00  0.10566000000E+00 0.  1.
     999900   -1    0    0    0    0 -0.00000000000E+00 -0.00000000000E+00 -0.74505805969E-08  0.93827000000E+00  0.93827000000E+00 0.  1.
     999902    2    1    2    0    0  0.45266736429E-02  0.11470791193E-01  0.19969975084E-01  0.10204593858E+01  0.10201894375E+01 0.  0.
     999903    2    3    3    0    0  0.93204173684E-01 -0.87877638224E-01 -0.11665383582E-01  0.12987833653E+00  0.17966742458E-01 0.  0.
         14    1    1    2    0    0 -0.45266736429E-02 -0.11470791193E-01 -0.19969975084E-01  0.23470614174E-01  0.00000000000E+00 0.  1.
     999901    1    3    3    0    0 -0.88677500041E-01  0.99348429417E-01  0.31635358666E-01  0.89058104929E+00  0.88000000000E+00 0. -1.
        -11    1    4    4    0    0  0.72767543921E-01 -0.71140471183E-01 -0.21260448509E-02  0.10178832583E+00  0.51100000000E-03 0. -1.
         11    1    4    4    0    0  0.20436629763E-01 -0.16737167041E-01 -0.95393387314E-02  0.28090010699E-01  0.51100000000E-03 0.  1.
</event>
<event>
 8    1  0.1042301E+005  0.1043930E+01  0.7957747E-01            NaN
         13   -1    0    0    0    0  0.00000000000E+00  0.00000000000E+00  0.74505805969E-08  0.10566000000E+00  0.10566000000E+00 0. -1.
     999900   -1    0    0    0    0 -0.00000000000E+00 -0.00000000000E+00 -0.74505805969E-08  0.93827000000E+00  0.93827000000E+00 0.  1.
     999902    2    1    2    0    0 -0.42566035615E-02  0.20191768440E-01 -0.11537492332E-01  0.10202880898E+01  0.10200141403E+01 0.  0.
     999903    2    3    3    0    0  0.50422239050E-01 -0.11155783808E+00  0.31177576556E-01  0.12777909170E+00  0.19180760361E-01 0.  0.
         14    1    1    2    0    0  0.42566035615E-02 -0.20191768440E-01  0.11537492332E-01  0.23641910158E-01  0.00000000000E+00 0.  1.
     999901    1    3    3    0    0 -0.54678842611E-01  0.13174960652E+00 -0.42715068888E-01  0.89250899814E+00  0.88000000000E+00 0. -1.
        -11    1    4    4    0    0  0.20815847614E-01 -0.68258735900E-01  0.15463157624E-01  0.73020030836E-01  0.51100000000E-03 0. -1.
         11    1    4    4    0    0  0.29606391436E-01 -0.43299102183E-01  0.15714418933E-01  0.54759060867E-01  0.51100000000E-03 0.  1.
</event>
<event>
 8    1  0.1042301E+005  0.1043930E+01  0.7957747E-01            NaN
         13   -1    0    0    0    0  0.00000000000E+00  0.00000000000E+00  0.74505805969E-08  0.10566000000E+00  0.10566000000E+00 0. -1.
     999900   -1    0    0    0    0 -0.00000000000E+00 -0.00000000000E+00 -0.74505805969E-08  0.93827000000E+00  0.93827000000E+00 0.  1.
     999902    2    1    2    0    0 -0.13052894851E-01  0.19668897092E-01 -0.21264403353E-02  0.10202284109E+01  0.10199530602E+01 0.  0.
     999903    2    3    3    0    0  0.65828802312E-01  0.10969391155E+00  0.25006962349E-01  0.13171108023E+00  0.18875249545E-01 0.  0.
         14    1    1    2    0    0  0.13052894851E-01 -0.19668897092E-01  0.21264403353E-02  0.23701589088E-01  0.00000000000E+00 0.  1.
     999901    1    3    3    0    0 -0.78881697162E-01 -0.90025014458E-01 -0.27133402685E-01  0.88851733068E+00  0.88000000000E+00 0. -1.
        -11    1    4    4    0    0  0.45210642300E-01  0.77005930683E-01  0.85633143704E-02  0.89707898267E-01  0.51100000000E-03 0. -1.
         11    1    4    4    0    0  0.20618160012E-01  0.32687980867E-01  0.16443647979E-01  0.42003181966E-01  0.51100000000E-03 0.  1.
</event>
<event>
 8    1  0.1042301E+005  0.1043930E+01  0.7957747E-01            NaN
         13   -1    0    0    0    0  0.00000000000E+00  0.00000000000E+00  0.74505805969E-08  0.10566000000E+00  0.10566000000E+00 0. -1.
     999900   -1    0    0    0    0 -0.00000000000E+00 -0.00000000000E+00 -0.74505805969E-08  0.93827000000E+00  0.93827000000E+00 0. -1.
     999902    2    1    2    0    0  0.91055802830E-03  0.16133886029E-01 -0.15297582833E-01  0.10216780914E+01  0.10214357420E+01 0.  0.
     999903    2    3    3    0    0  0.88087762451E-01 -0.31863371489E-01  0.87862920957E-01  0.13008082179E+00  0.20649430529E-01 0.  0.
         14    1    1    2    0    0 -0.91055802830E-03 -0.16133886029E-01  0.15297582833E-01  0.22251908567E-01  0.00000000000E+00 0. -1.
     999901    1    3    3    0    0 -0.87177204423E-01  0.47997257518E-01 -0.10316050379E+00  0.89159726965E+00  0.88000000000E+00 0. -1.
        -11    1    4    4    0    0  0.20499610638E-01 -0.16430757473E-01  0.19562900938E-01  0.32759304657E-01  0.51100000000E-03 0.  1.
         11    1    4    4    0    0  0.67588151812E-01 -0.15432614016E-01  0.68300020019E-01  0.97321517129E-01  0.51100000000E-03 0. -1.
</event>
<event>
 8    1  0.1042301E+005  0.1043930E+01  0.7957747E-01            NaN
         13   -1    0    0    0    0  0.00000000000E+00  0.00000000000E+00  0.74505805969E-08  0.10566000000E+00  0.10566000000E+00 0. -1.
     999900   -1    0    0    0    0 -0.00000000000E+00 -0.00000000000E+00 -0.74505805969E-08  0.93827000000E+00  0.93827000000E+00 0.  1.
     999902    2    1    2    0    0 -0.21139749472E-01 -0.34790148743E-03 -0.12638269508E-01  0.10192979904E+01  0.10190003225E+01 0.  0.
     999903    2    3    3    0    0 -0.94118137581E-01  0.68382991907E-01 -0.59678978186E-01  0.13235796470E+00  0.20557066356E-01 0.  0.
         14    1    1    2    0    0  0.21139749472E-01  0.34790148743E-03  0.12638269508E-01  0.24632009649E-01  0.00000000000E+00 0. -1.
     999901    1    3    3    0    0  0.72978388109E-01 -0.68730893394E-01  0.47040708679E-01  0.88694002566E+00  0.88000000000E+00 0. -1.
        -11    1    4    4    0    0 -0.49038386389E-01  0.23198827485E-01 -0.29528767445E-01  0.61766966610E-01  0.51100000000E-03 0.  1.
         11    1    4    4    0    0 -0.45079751191E-01  0.45184164422E-01 -0.30150210741E-01  0.70590998086E-01  0.51100000000E-03 0. -1.
</event>
<event>
 8    1  0.1042301E+005  0.1043930E+01  0.7957747E-01            NaN
         13   -1    0    0    0    0  0.00000000000E+00  0.00000000000E+00  0.74505805969E-08  0.10566000000E+00  0.10566000000E+00 0.  1.
     999900   -1    0    0    0    0 -0.00000000000E+00 -0.00000000000E+00 -0.74505805969E-08  0.93827000000E+00  0.93827000000E+00 0. -1.
     999902    2    1    2    0    0  0.70849240902E-02 -0.23612812552E-02  0.21474023423E-01  0.10211944446E+01  0.10209413245E+01 0.  0.
     999903    2    3    3    0    0  0.43653541562E-01  0.10535227050E+00  0.65220581540E-01  0.13279519066E+00  0.19393447719E-01 0.  0.
         14    1    1    2    0    0 -0.70849240902E-02  0.23612812552E-02 -0.21474023423E-01  0.22735555425E-01  0.00000000000E+00 0. -1.
     999901    1    3    3    0    0 -0.36568617472E-01 -0.10771355176E+00 -0.43746558117E-01  0.88839925392E+00  0.88000000000E+00 0. -1.
        -11    1    4    4    0    0  0.20638674713E-01  0.65613610626E-01  0.30608250063E-01  0.75287627710E-01  0.51100000000E-03 0.  1.
         11    1    4    4    0    0  0.23014866849E-01  0.39738659875E-01  0.34612331477E-01  0.57507562946E-01  0.51100000000E-03 0. -1.
</event>
<event>
 8    1  0.1042301E+005  0.1043930E+01  0.7957747E-01            NaN
         13   -1    0    0    0    0  0.00000000000E+00  0.00000000000E+00  0.74505805969E-08  0.10566000000E+00  0.10566000000E+00 0. -1.
     999900   -1    0    0    0    0 -0.00000000000E+00 -0.00000000000E+00 -0.74505805969E-08  0.93827000000E+00  0.93827000000E+00 0.  1.
     999902    2    1    2    0    0 -0.12108592424E-01 -0.25515690767E-02  0.19533954466E-01  0.10208063348E+01  0.10205443985E+01 0.  0.
     999903    2    3    3    0    0  0.10692497710E+00  0.68090664679E-01 -0.17145363396E-01  0.12923205959E+00  0.18375864443E-01 0.  0.
         14    1    1    2    0    0  0.12108592424E-01  0.25515690767E-02 -0.19533954466E-01  0.23123665201E-01  0.00000000000E+00 0.  1.
     999901    1    3    3    0    0 -0.11903356953E+00 -0.70642233755E-01  0.36679317862E-01  0.89157427521E+00  0.88000000000E+00 0. -1.
        -11    1    4    4    0    0  0.39590504081E-01  0.35818109582E-01 -0.84790510926E-02  0.54060155529E-01  0.51100000000E-03 0. -1.
         11    1    4    4    0    0  0.67334473021E-01  0.32272555097E-01 -0.86663123038E-02  0.75171904057E-01  0.51100000000E-03 0.  1.
</event>
<event>
 8    1  0.1042301E+005  0.1043930E+01  0.7957747E-01            NaN
         13   -1    0    0    0    0  0.00000000000E+00  0.00000000000E+00  0.74505805969E-08  0.10566000000E+00  0.10566000000E+00 0. -1.
     999900   -1    0    0    0    0 -0.00000000000E+00 -0.00000000000E+00 -0.74505805969E-08  0.93827000000E+00  0.93827000000E+00 0. -1.
     999902    2    1    2    0    0  0.66198860878E-02 -0.19132219815E-01 -0.12236786083E-01  0.10202740565E+01  0.10199997778E+01 0.  0.
     999903    2    3    3    0    0 -0.10630648881E+00  0.27983223795E-01  0.60309259627E-01  0.12885094718E+00  0.29685508504E-01 0.  0.
         14    1    1    2    0    0 -0.66198860878E-02  0.19132219815E-01  0.12236786083E-01  0.23655943450E-01  0.00000000000E+00 0. -1.
     999901    1    3    3    0    0  0.11292637490E+00 -0.47115443611E-01 -0.72546045710E-01  0.89142310937E+00  0.88000000000E+00 0.  1.
        -11    1    4    4    0    0 -0.23573333646E-01  0.16958791540E-01  0.72083302602E-02  0.29925303939E-01  0.51100000000E-03 0.  1.
         11    1    4    4    0    0 -0.82733155162E-01  0.11024432255E-01  0.53100929367E-01  0.98925643239E-01  0.51100000000E-03 0. -1.
</event>
<event>
 8    1  0.1042301E+005  0.1043930E+01  0.7957747E-01            NaN
         13   -1    0    0    0    0  0.00000000000E+00  0.00000000000E+00  0.74505805969E-08  0.10566000000E+00  0.10566000000E+00 0. -1.
     999900   -1    0    0    0    0 -0.00000000000E+00 -0.00000000000E+00 -0.74505805969E-08  0.93827000000E+00  0.93827000000E+00 0.  1.
     999902    2    1    2    0    0 -0.24920868428E-01 -0.56508893738E-03 -0.22382211108E-02  0.10189024423E+01  0.10185950169E+01 0.  0.
     999903    2    3    3    0    0  0.66336978573E-01  0.10055811914E+00 -0.37418815317E-01  0.12772817652E+00  0.20044682252E-01 0.  0.
         14    1    1    2    0    0  0.24920868428E-01  0.56508893738E-03  0.22382211108E-02  0.25027557661E-01  0.00000000000E+00 0.  1.
     999901    1    3    3    0    0 -0.91257847001E-01 -0.10112320807E+00  0.35180594207E-01  0.89117426582E+00  0.88000000000E+00 0. -1.
        -11    1    4    4    0    0  0.29431176713E-01  0.58335758712E-01 -0.26938703336E-01  0.70676797931E-01  0.51100000000E-03 0.  1.
         11    1    4    4    0    0  0.36905801859E-01  0.42222360425E-01 -0.10480111981E-01  0.57051378589E-01  0.51100000000E-03 0. -1.
</event>
<event>
 8    1  0.1042301E+005  0.1043930E+01  0.7957747E-01            NaN
         13   -1    0    0    0    0  0.00000000000E+00  0.00000000000E+00  0.74505805969E-08  0.10566000000E+00  0.10566000000E+00 0. -1.
     999900   -1    0    0    0    0 -0.00000000000E+00 -0.00000000000E+00 -0.74505805969E-08  0.93827000000E+00  0.93827000000E+00 0. -1.
     999902    2    1    2    0    0  0.16277232232E-01 -0.10502449284E-01 -0.12195465692E-01  0.10210394099E+01  0.10207827867E+01 0.  0.
     999903    2    3    3    0    0  0.15004462695E-01 -0.17497014078E-01 -0.12975089783E+00  0.13319380201E+00  0.19339441696E-01 0.  0.
         14    1    1    2    0    0 -0.16277232232E-01  0.10502449284E-01  0.12195465692E-01  0.22890590065E-01  0.00000000000E+00 0.  1.
     999901    1    3    3    0    0  0.12727695372E-02  0.69945647943E-02  0.11755543214E+00  0.88784560792E+00  0.88000000000E+00 0.  1.
        -11    1    4    4    0    0  0.15641775239E-01 -0.14954950099E-01 -0.67507373049E-01  0.70893033523E-01  0.51100000000E-03 0.  1.
         11    1    4    4    0    0 -0.63731254384E-03 -0.25420639785E-02 -0.62243524780E-01  0.62300768491E-01  0.51100000000E-03 0. -1.
</event>
<event>
 8    1  0.1042301E+005  0.1043930E+01  0.7957747E-01            NaN
         13   -1    0    0    0    0  0.00000000000E+00  0.00000000000E+00  0.74505805969E-08  0.10566000000E+00  0.10566000000E+00 0.  1.
     999900   -1    0    0    0    0 -0.00000000000E+00 -0.00000000000E+00 -0.74505805969E-08  0.93827000000E+00  0.93827000000E+00 0. -1.
     999902    2    1    2    0    0  0.13006628318E-01  0.17550043895E-01 -0.15559429444E-01  0.10171107482E+01  0.10167571007E+01 0.  0.
     999903    2    3    3    0    0 -0.19570462175E-01 -0.76275820681E-01  0.94442688601E-01  0.12471788314E+00  0.20835669762E-01 0.  0.
         14    1    1    2    0    0 -0.13006628318E-01 -0.17550043895E-01  0.15559429444E-01  0.26819251771E-01  0.00000000000E+00 0.  1.
     999901    1    3    3    0    0  0.32577090493E-01  0.93825864576E-01 -0.11000211804E+00  0.89239286509E+00  0.88000000000E+00 0. -1.
        -11    1    4    4    0    0 -0.19433950004E-01 -0.34378966471E-01  0.48242549670E-01  0.62347385414E-01  0.51100000000E-03 0. -1.
         11    1    4    4    0    0 -0.13651217084E-03 -0.41896854210E-01  0.46200138931E-01  0.62370497725E-01  0.51100000000E-03 0.  1.
</event>
<event>
 8    1  0.1042301E+005  0.1043930E+01  0.7957747E-01            NaN
         13   -1    0    0    0    0  0.00000000000E+00  0.00000000000E+00  0.74505805969E-08  0.10566000000E+00  0.10566000000E+00 0.  1.
     999900   -1    0    0    0    0 -0.00000000000E+00 -0.00000000000E+00 -0.74505805969E-08  0.93827000000E+00  0.93827000000E+00 0. -1.
     999902    2    1    2    0    0  0.82676249328E-02 -0.59564228380E-02  0.24133732109E-01  0.10177332517E+01  0.10173960399E+01 0.  0.
     999903    2    3    3    0    0  0.41836505650E-01 -0.53334199735E-03  0.12279351028E+00  0.13156733532E+00  0.21934901364E-01 0.  0.
         14    1    1    2    0    0 -0.82676249328E-02  0.59564228380E-02 -0.24133732109E-01  0.26196748282E-01  0.00000000000E+00 0. -1.
     999901    1    3    3    0    0 -0.33568880717E-01 -0.54230808407E-02 -0.98659778170E-01  0.88616591640E+00  0.88000000000E+00 0. -1.
        -11    1    4    4    0    0  0.20488071662E-01  0.95728200337E-02  0.73551075338E-01  0.76950774968E-01  0.51100000000E-03 0.  1.
         11    1    4    4    0    0  0.21348433988E-01 -0.10106162031E-01  0.49242434941E-01  0.54616560351E-01  0.51100000000E-03 0. -1.
</event>
<event>
 8    1  0.1042301E+005  0.1043930E+01  0.7957747E-01            NaN
         13   -1    0    0    0    0  0.00000000000E+00  0.00000000000E+00  0.74505805969E-08  0.10566000000E+00  0.10566000000E+00 0. -1.
     999900   -1    0    0    0    0 -0.00000000000E+00 -0.00000000000E+00 -0.74505805969E-08  0.93827000000E+00  0.93827000000E+00 0. -1.
     999902    2    1    2    0    0 -0.15948585380E-01 -0.18921455917E-02 -0.23601272491E-01  0.10153825368E+01  0.10149811518E+01 0.  0.
     999903    2    3    3    0    0  0.16578848848E-01 -0.11272340434E+00 -0.53266573911E-01  0.12733882619E+00  0.19910415426E-01 0.  0.
         14    1    1    2    0    0  0.15948585380E-01  0.18921455917E-02  0.23601272491E-01  0.28547463175E-01  0.00000000000E+00 0. -1.
     999901    1    3    3    0    0 -0.32527434228E-01  0.11083125875E+00  0.29665301420E-01  0.88804371064E+00  0.88000000000E+00 0.  1.
        -11    1    4    4    0    0 -0.25636766811E-02 -0.29202469438E-01 -0.78169839167E-02  0.30343418034E-01  0.51100000000E-03 0.  1.
         11    1    4    4    0    0  0.19142525529E-01 -0.83520934906E-01 -0.45449589994E-01  0.96995408154E-01  0.51100000000E-03 0. -1.
</event>
<event>
 8    1  0.1042301E+005  0.1043930E+01  0.7957747E-01            NaN
         13   -1    0    0    0    0  0.00000000000E+00  0.00000000000E+00  0.74505805969E-08  0.10566000000E+00  0.10566000000E+00 0.  1.
     999900   -1    0    0    0    0 -0.00000000000E+00 -0.00000000000E+00 -0.74505805969E-08  0.93827000000E+00  0.93827000000E+00 0. -1.
     999902    2    1    2    0    0 -0.55172926022E-02  0.21781457274E-01 -0.16041736361E-02  0.10214034430E+01  0.10211550066E+01 0.  0.
     999903    2    3    3    0    0  0.54878585325E-01 -0.96999776658E-01 -0.61997356358E-01  0.12932498222E+00  0.21463062058E-01 0.  0.
         14    1    1    2    0    0  0.55172926022E-02 -0.21781457274E-01  0.16041736361E-02  0.22526557032E-01  0.00000000000E+00 0.  1.
     999901    1    3    3    0    0 -0.60395877927E-01  0.11878123393E+00  0.60393182721E-01  0.89207846074E+00  0.88000000000E+00 0.  1.
        -11    1    4    4    0    0  0.28486368691E-01 -0.70617035989E-01 -0.40280223862E-01  0.86145206068E-01  0.51100000000E-03 0. -1.
         11    1    4    4    0    0  0.26392216634E-01 -0.26382740668E-01 -0.21717132496E-01  0.43179776156E-01  0.51100000000E-03 0.  1.
</event>
<event>
 8    1  0.1042301E+005  0.1043930E+01  0.7957747E-01            NaN
         13   -1    0    0    0    0  0.00000000000E+00  0.00000000000E+00  0.74505805969E-08  0.10566000000E+00  0.10566000000E+00 0.  1.
     999900   -1    0    0    0    0 -0.00000000000E+00 -0.00000000000E+00 -0.74505805969E-08  0.93827000000E+00  0.93827000000E+00 0. -1.
     999902    2    1    2    0    0 -0.11666892646E-01 -0.15537071770E-01 -0.16781033603E-01  0.10182566661E+01  0.10179329634E+01 0.  0.
     999903    2    3    3    0    0  0.94987958424E-01  0.42720620693E-01  0.68772223993E-01  0.12579457961E+00  0.15712854254E-01 0.  0.
         14    1    1    2    0    0  0.11666892646E-01  0.15537071770E-01  0.16781033603E-01  0.25673333870E-01  0.00000000000E+00 0.  1.
     999901    1    3    3    0    0 -0.10665485107E+00 -0.58257692463E-01 -0.85553257596E-01  0.89246208652E+00  0.88000000000E+00 0.  1.
        -11    1    4    4    0    0  0.18817797007E-01  0.84982292850E-02  0.21599602988E-01  0.29885336796E-01  0.51100000000E-03 0.  1.
         11    1    4    4    0    0  0.76170161417E-01  0.34222391408E-01  0.47172621005E-01  0.95909242815E-01  0.51100000000E-03 0. -1.
</event>
<event>
 8    1  0.1042301E+005  0.1043930E+01  0.7957747E-01            NaN
         13   -1    0    0    0    0  0.00000000000E+00  0.00000000000E+00  0.74505805969E-08  0.10566000000E+00  0.10566000000E+00 0.  1.
     999900   -1    0    0    0    0 -0.00000000000E+00 -0.00000000000E+00 -0.74505805969E-08  0.93827000000E+00  0.93827000000E+00 0.  1.
     999902    2    1    2    0    0 -0.13153237218E-01 -0.15422585443E-01 -0.12490173981E-01  0.10201210051E+01  0.10198431236E+01 0.  0.
     999903    2    3    3    0    0  0.48954836001E-02 -0.49233942998E-02  0.12707656065E+00  0.12887756882E+00  0.20316739563E-01 0.  0.
         14    1    1    2    0    0  0.13153237218E-01  0.15422585443E-01  0.12490173981E-01  0.23808994879E-01  0.00000000000E+00 0. -1.
     999901    1    3    3    0    0 -0.18048720818E-01 -0.10499191143E-01 -0.13956673463E+00  0.89124343630E+00  0.88000000000E+00 0.  1.
        -11    1    4    4    0    0 -0.59239349206E-02 -0.79748123724E-02  0.69887534418E-01  0.70591920397E-01  0.51100000000E-03 0. -1.
         11    1    4    4    0    0  0.10819418521E-01  0.30514180726E-02  0.57189026233E-01  0.58285648421E-01  0.51100000000E-03 0.  1.
</event>
<event>
 8    1  0.1042301E+005  0.1043930E+01  0.7957747E-01            NaN
         13   -1    0    0    0    0  0.00000000000E+00  0.00000000000E+00  0.74505805969E-08  0.10566000000E+00  0.10566000000E+00 0.  1.
     999900   -1    0    0    0    0 -0.00000000000E+00 -0.00000000000E+00 -0.74505805969E-08  0.93827000000E+00  0.93827000000E+00 0.  1.
     999902    2    1    2    0    0  0.18185648427E-01 -0.10713637175E-01 -0.10138479370E-01  0.10205144369E+01  0.10202457681E+01 0.  0.
     999903    2    3    3    0    0 -0.60593104540E-01 -0.11426676995E+00 -0.27047869416E-02  0.13091643613E+00  0.20084281073E-01 0.  0.
         14    1    1    2    0    0 -0.18185648427E-01  0.10713637175E-01  0.10138479370E-01  0.23415563076E-01  0.00000000000E+00 0.  1.
     999901    1    3    3    0    0  0.78778752967E-01  0.10355313277E+00 -0.74336924285E-02  0.88959800079E+00  0.88000000000E+00 0.  1.
        -11    1    4    4    0    0 -0.28999775628E-01 -0.73138522027E-01 -0.62725334703E-02  0.78929311335E-01  0.51100000000E-03 0.  1.
         11    1    4    4    0    0 -0.31593328912E-01 -0.41128247919E-01  0.35677465287E-02  0.51987124799E-01  0.51100000000E-03 0. -1.
</event>
<event>
 8    1  0.1042301E+005  0.1043930E+01  0.7957747E-01            NaN
         13   -1    0    0    0    0  0.00000000000E+00  0.00000000000E+00  0.74505805969E-08  0.10566000000E+00  0.10566000000E+00 0. -1.
     999900   -1    0    0    0    0 -0.00000000000E+00 -0.00000000000E+00 -0.74505805969E-08  0.93827000000E+00  0.93827000000E+00 0.  1.
     999902    2    1    2    0    0 -0.24299915463E-02  0.20668439334E-01  0.88157322073E-02  0.10213289740E+01  0.10210788739E+01 0.  0.
     999903    2    3    3    0    0  0.30176564206E-01  0.45761144622E-02  0.12757123176E+00  0.13260797215E+00  0.19465077830E-01 0.  0.
         14    1    1    2    0    0  0.24299915463E-02 -0.20668439334E-01 -0.88157322073E-02  0.22601026034E-01  0.00000000000E+00 0.  1.
     999901    1    3    3    0    0 -0.32606555752E-01  0.16092324872E-01 -0.11875549955E+00  0.88872100182E+00  0.88000000000E+00 0.  1.
        -11    1    4    4    0    0  0.88671540284E-02  0.10808689182E-01  0.48571771932E-01  0.50546338463E-01  0.51100000000E-03 0.  1.
         11    1    4    4    0    0  0.21309410177E-01 -0.62325747200E-02  0.78999459824E-01  0.82061633686E-01  0.51100000000E-03 0. -1.
</event>
<event>
 8    1  0.1042301E+005  0.1043930E+01  0.7957747E-01            NaN
         13   -1    0    0    0    0  0.00000000000E+00  0.00000000000E+00  0.74505805969E-08  0.10566000000E+00  0.10566000000E+00 0.  1.
     999900   -1    0    0    0    0 -0.00000000000E+00 -0.00000000000E+00 -0.74505805969E-08  0.93827000000E+00  0.93827000000E+00 0. -1.
     999902    2    1    2    0    0 -0.82937917889E-02  0.29586535633E-01  0.15265812334E-02  0.10131650764E+01  0.10126978777E+01 0.  0.
     999903    2    3    3    0    0  0.92052131923E-01  0.81191074537E-01  0.23556193971E-01  0.12568683066E+00  0.13292838374E-01 0.  0.
         14    1    1    2    0    0  0.82937917889E-02 -0.29586535633E-01 -0.15265812334E-02  0.30764923586E-01  0.00000000000E+00 0.  1.
     999901    1    3    3    0    0 -0.10034592371E+00 -0.51604538904E-01 -0.22029612738E-01  0.88747824575E+00  0.88000000000E+00 0. -1.
        -11    1    4    4    0    0  0.72681828582E-01  0.70763106817E-01  0.18642050075E-01  0.10313996628E+00  0.51100000000E-03 0. -1.
         11    1    4    4    0    0  0.19370303341E-01  0.10427967719E-01  0.49141438960E-02  0.22546864383E-01  0.51100000000E-03 0.  1.
</event>
<event>
 8    1  0.1042301E+005  0.1043930E+01  0.7957747E-01            NaN
         13   -1    0    0    0    0  0.00000000000E+00  0.00000000000E+00  0.74505805969E-08  0.10566000000E+00  0.10566000000E+00 0. -1.
     999900   -1    0    0    0    0 -0.00000000000E+00 -0.00000000000E+00 -0.74505805969E-08  0.93827000000E+00  0.93827000000E+00 0. -1.
     999902    2    1    2    0    0 -0.10794646264E-01 -0.26061332810E-01  0.17984965872E-01  0.10104759053E+01  0.10099219666E+01 0.  0.
     999903    2    3    3    0    0  0.69556170601E-01 -0.95055986584E-01  0.29182376506E-01  0.12405506955E+00  0.25774943812E-01 0.  0.
         14    1    1    2    0    0  0.10794646264E-01  0.26061332810E-01 -0.17984965872E-01  0.33454094715E-01  0.00000000000E+00 0.  1.
     999901    1    3    3    0    0 -0.80350816865E-01  0.68994653774E-01 -0.11197410635E-01  0.88642083574E+00  0.88000000000E+00 0. -1.
        -11    1    4    4    0    0  0.27339656784E-01 -0.18539572536E-01  0.10741389254E-01  0.34739187483E-01  0.51100000000E-03 0.  1.
         11    1    4    4    0    0  0.42216513817E-01 -0.76516414048E-01  0.18440987253E-01  0.89315882067E-01  0.51100000000E-03 0. -1.
</event>
<event>
 8    1  0.1042301E+005  0.1043930E+01  0.7957747E-01            NaN
         13   -1    0    0    0    0  0.00000000000E+00  0.00000000000E+00  0.74505805969E-08  0.10566000000E+00  0.10566000000E+00 0. -1.
     999900   -1    0    0    0    0 -0.00000000000E+00 -0.00000000000E+00 -0.74505805969E-08  0.93827000000E+00  0.93827000000E+00 0.  1.
     999902    2    1    2    0    0 -0.92425521212E-02  0.16720831239E-01  0.13940836603E-01  0.10202792518E+01  0.10200050949E+01 0.  0.
     999903    2    3    3    0    0 -0.11638853450E+00 -0.49972193442E-01  0.27535413772E-01  0.13117125292E+00  0.20104414921E-01 0.  0.
         14    1    1    2    0    0  0.92425521212E-02 -0.16720831239E-01 -0.13940836603E-01  0.23650748238E-01  0.00000000000E+00 0.  1.
     999901    1    3    3    0    0  0.10714598238E+00  0.66693024681E-01 -0.13594577169E-01  0.88910799884E+00  0.88000000000E+00 0.  1.
        -11    1    4    4    0    0 -0.34095839557E-01 -0.12194495076E-01 -0.10061337161E-02  0.36228516548E-01  0.51100000000E-03 0. -1.
         11    1    4    4    0    0 -0.82292694945E-01 -0.37777698366E-01  0.28541547488E-01  0.94942736369E-01  0.51100000000E-03 0.  1.
</event>
<event>
 8    1  0.1042301E+005  0.1043930E+01  0.7957747E-01            NaN
         13   -1    0    0    0    0  0.00000000000E+00  0.00000000000E+00  0.74505805969E-08  0.10566000000E+00  0.10566000000E+00 0. -1.
     999900   -1    0    0    0    0 -0.00000000000E+00 -0.00000000000E+00 -0.74505805969E-08  0.93827000000E+00  0.93827000000E+00 0.  1.
     999902    2    1    2    0    0  0.15220501705E-01  0.14604809340E-01 -0.10587770719E-01  0.10203277752E+01  0.10200547553E+01 0.  0.
     999903    2    3    3    0    0  0.69568757302E-01 -0.87175131157E-01 -0.66002105560E-01  0.13106761207E+00  0.19573592180E-01 0.  0.
         14    1    1    2    0    0 -0.15220501705E-01 -0.14604809340E-01  0.10587770719E-01  0.23602224827E-01  0.00000000000E+00 0. -1.
     999901    1    3    3    0    0 -0.54348255597E-01  0.10177994050E+00  0.55414334841E-01  0.88926016310E+00  0.88000000000E+00 0. -1.
        -11    1    4    4    0    0  0.10508196026E-01 -0.15271821977E-01 -0.32324855357E-02  0.18824473803E-01  0.51100000000E-03 0.  1.
         11    1    4    4    0    0  0.59060561276E-01 -0.71903309181E-01 -0.62769620024E-01  0.11224313827E+00  0.51100000000E-03 0. -1.
</event>
<event>
 8    1  0.1042301E+005  0.1043930E+01  0.7957747E-01            NaN
         13   -1    0    0    0    0  0.00000000000E+00  0.00000000000E+00  0.74505805969E-08  0.10566000000E+00  0.10566000000E+00 0. -1.
     999900   -1    0    0    0    0 -0.00000000000E+00 -0.00000000000E+00 -0.74505805969E-08  0.93827000000E+00  0.93827000000E+00 0. -1.
     999902    2    1    2    0    0  0.27714144732E-02 -0.14744981026E-02  0.23897190496E-01  0.10198274981E+01  0.10195426403E+01 0.  0.
     999903    2    3    3    0    0  0.22235869352E-01  0.93171755591E-01 -0.82701838547E-01  0.12814362403E+00  0.20144089801E-01 0.  0.
         14    1    1    2    0    0 -0.27714144732E-02  0.14744981026E-02 -0.23897190496E-01  0.24102501870E-01  0.00000000000E+00 0.  1.
     999901    1    3    3    0    0 -0.19464454879E-01 -0.94646253693E-01  0.10659902904E+00  0.89168387410E+00  0.88000000000E+00 0.  1.
        -11    1    4    4    0    0  0.14113364835E-01  0.38303065081E-01 -0.23889332201E-01  0.47299822151E-01  0.51100000000E-03 0. -1.
         11    1    4    4    0    0  0.81225045169E-02  0.54868690510E-01 -0.58812506347E-01  0.80843801876E-01  0.51100000000E-03 0.  1.
</event>
<event>
 8    1  0.1042301E+005  0.1043930E+01  0.7957747E-01            NaN
         13   -1    0    0    0    0  0.00000000000E+00  0.00000000000E+00  0.74505805969E-08  0.10566000000E+00  0.10566000000E+00 0. -1.
     999900   -1    0    0    0    0 -0.00000000000E+00 -0.00000000000E+00 -0.74505805969E-08  0.93827000000E+00  0.93827000000E+00 0. -1.
     999902    2    1    2    0    0 -0.82932209674E-02  0.11318598052E-01  0.18522882960E-01  0.10206924147E+01  0.10204278613E+01 0.  0.
     999903    2    3    3    0    0 -0.48354968133E-01  0.11811985216E+00 -0.26916430718E-01  0.13216769212E+00  0.21290894331E-01 0.  0.
         14    1    1    2    0    0  0.82932209674E-02 -0.11318598052E-01 -0.18522882960E-01  0.23237585266E-01  0.00000000000E+00 0.  1.
     999901    1    3    3    0    0  0.40061747165E-01 -0.10680125411E+00  0.45439313678E-01  0.88852472261E+00  0.88000000000E+00 0.  1.
        -11    1    4    4    0    0 -0.90069399089E-02  0.25091866043E-01 -0.14631066887E-01  0.30414732406E-01  0.51100000000E-03 0. -1.
         11    1    4    4    0    0 -0.39348028224E-01  0.93027986114E-01 -0.12285363831E-01  0.10175295972E+00  0.51100000000E-03 0.  1.
</event>
<event>
 8    1  0.1042301E+005  0.1043930E+01  0.7957747E-01            NaN
         13   -1    0    0    0    0  0.00000000000E+00  0.00000000000E+00  0.74505805969E-08  0.10566000000E+00  0.10566000000E+00 0.  1.
     999900   -1    0    0    0    0 -0.00000000000E+00 -0.00000000000E+00 -0.74505805969E-08  0.93827000000E+00  0.93827000000E+00 0. -1.
     999902    2    1    2    0    0  0.27179923507E-01 -0.21240260664E-01 -0.10871284072E-01  0.10077625874E+01  0.10071133754E+01 0.  0.
     999903    2    3    3    0    0  0.83011985284E-01 -0.87968345113E-01 -0.14860873269E-01  0.12346299272E+00  0.19820332344E-01 0.  0.
         14    1    1    2    0    0 -0.27179923507E-01  0.21240260664E-01  0.10871284072E-01  0.36167412574E-01  0.00000000000E+00 0. -1.
     999901    1    3    3    0    0 -0.55832061776E-01  0.66728084448E-01  0.39895891973E-02  0.88429959471E+00  0.88000000000E+00 0. -1.
        -11    1    4    4    0    0  0.30679491925E-01 -0.22443090363E-01  0.13982034397E-02  0.38041288407E-01  0.51100000000E-03 0. -1.
         11    1    4    4    0    0  0.52332493359E-01 -0.65525254749E-01 -0.16259076709E-01  0.85421704312E-01  0.51100000000E-03 0.  1.
</event>
<event>
 8    1  0.1042301E+005  0.1043930E+01  0.7957747E-01            NaN
         13   -1    0    0    0    0  0.00000000000E+00  0.00000000000E+00  0.74505805969E-08  0.10566000000E+00  0.10566000000E+00 0. -1.
     999900   -1    0    0    0    0 -0.00000000000E+00 -0.00000000000E+00 -0.74505805969E-08  0.93827000000E+00  0.93827000000E+00 0.  1.
     999902    2    1    2    0    0 -0.15785477132E-01 -0.16904227023E-01  0.29932392513E-02  0.10206084722E+01  0.10203419818E+01 0.  0.
     999903    2    3    3    0    0 -0.10125895056E+00  0.49072790317E-01 -0.65194696276E-01  0.13139068330E+00  0.18752317667E-01 0.  0.
         14    1    1    2    0    0  0.15785477132E-01  0.16904227023E-01 -0.29932392513E-02  0.23321527839E-01  0.00000000000E+00 0. -1.
     999901    1    3    3    0    0  0.85473473425E-01 -0.65977017340E-01  0.68187935527E-01  0.88921778886E+00  0.88000000000E+00 0. -1.
        -11    1    4    4    0    0 -0.36036575011E-01  0.27635284029E-01 -0.26366988505E-01  0.52514977537E-01  0.51100000000E-03 0. -1.
         11    1    4    4    0    0 -0.65222375546E-01  0.21437506288E-01 -0.38827707771E-01  0.78875705762E-01  0.51100000000E-03 0.  1.
</event>
<event>
 8    1  0.1042301E+005  0.1043930E+01  0.7957747E-01            NaN
         13   -1    0    0    0    0  0.00000000000E+00  0.00000000000E+00  0.74505805969E-08  0.10566000000E+00  0.10566000000E+00 0. -1.
     999900   -1    0    0    0    0 -0.00000000000E+00 -0.00000000000E+00 -0.74505805969E-08  0.93827000000E+00  0.93827000000E+00 0.  1.
     999902    2    1    2    0    0  0.39537075784E-02  0.17095104508E-01  0.15607688026E-01  0.10204465095E+01  0.10201762614E+01 0.  0.
     999903    2    3    3    0    0 -0.11972410083E+00  0.49084091051E-01 -0.41786708458E-02  0.13100230349E+00  0.20025831213E-01 0.  0.
         14    1    1    2    0    0 -0.39537075784E-02 -0.17095104508E-01 -0.15607688026E-01  0.23483490526E-01  0.00000000000E+00 0. -1.
     999901    1    3    3    0    0  0.12367780841E+00 -0.31988986543E-01  0.19786358872E-01  0.88944420598E+00  0.88000000000E+00 0.  1.
        -11    1    4    4    0    0 -0.93367316243E-01  0.29293320388E-01 -0.73290043300E-03  0.97858840305E-01  0.51100000000E-03 0. -1.
         11    1    4    4    0    0 -0.26356784592E-01  0.19790770663E-01 -0.34457704128E-02  0.33143463190E-01  0.51100000000E-03 0.  1.
</event>
<event>
 8    1  0.1042301E+005  0.1043930E+01  0.7957747E-01            NaN
         13   -1    0    0    0    0  0.00000000000E+00  0.00000000000E+00  0.74505805969E-08  0.10566000000E+00  0.10566000000E+00 0.  1.
     999900   -1    0    0    0    0 -0.00000000000E+00 -0.00000000000E+00 -0.74505805969E-08  0.93827000000E+00  0.93827000000E+00 0. -1.
     999902    2    1    2    0    0 -0.46554436528E-02  0.28608431260E-01 -0.42957381999E-02  0.10146286543E+01  0.10142054709E+01 0.  0.
     999903    2    3    3    0    0 -0.10233440814E+00 -0.13859500413E-01 -0.69245763638E-01  0.12582990814E+00  0.19333213873E-01 0.  0.
         14    1    1    2    0    0  0.46554436528E-02 -0.28608431260E-01  0.42957381999E-02  0.29301345728E-01  0.00000000000E+00 0. -1.
     999901    1    3    3    0    0  0.97678964490E-01  0.42467931673E-01  0.64950025438E-01  0.88879874613E+00  0.88000000000E+00 0.  1.
        -11    1    4    4    0    0 -0.71082316743E-01 -0.26977851362E-02 -0.40098196865E-01  0.81658436863E-01  0.51100000000E-03 0.  1.
         11    1    4    4    0    0 -0.31252091400E-01 -0.11161715277E-01 -0.29147566773E-01  0.44171471275E-01  0.51100000000E-03 0. -1.
</event>
<event>
 8    1  0.1042301E+005  0.1043930E+01  0.7957747E-01            NaN
         13   -1    0    0    0    0  0.00000000000E+00  0.00000000000E+00  0.74505805969E-08  0.10566000000E+00  0.10566000000E+00 0.  1.
     999900   -1    0    0    0    0 -0.00000000000E+00 -0.00000000000E+00 -0.74505805969E-08  0.93827000000E+00  0.93827000000E+00 0. -1.
     999902    2    1    2    0    0 -0.20638537761E-01 -0.19235436904E-04  0.74298843711E-02  0.10219948047E+01  0.10217593787E+01 0.  0.
     999903    2    3    3    0    0 -0.17301249663E-01 -0.59961603235E-01  0.11632611935E+00  0.13325265147E+00  0.18159735079E-01 0.  0.
         14    1    1    2    0    0  0.20638537761E-01  0.19235436904E-04 -0.74298843711E-02  0.21935195297E-01  0.00000000000E+00 0. -1.
     999901    1    3    3    0    0 -0.33372880981E-02  0.59942367798E-01 -0.10889623498E+00  0.88874215324E+00  0.88000000000E+00 0. -1.
        -11    1    4    4    0    0 -0.60186267030E-02 -0.41675330584E-01  0.63209210929E-01  0.75952106712E-01  0.51100000000E-03 0. -1.
         11    1    4    4    0    0 -0.11282622960E-01 -0.18286272651E-01  0.53116908418E-01  0.57300544755E-01  0.51100000000E-03 0.  1.
</event>
<event>
 8    1  0.1042301E+005  0.1043930E+01  0.7957747E-01            NaN
         13   -1    0    0    0    0  0.00000000000E+00  0.00000000000E+00  0.74505805969E-08  0.10566000000E+00  0.10566000000E+00 0. -1.
     999900   -1    0    0    0    0 -0.00000000000E+00 -0.00000000000E+00 -0.74505805969E-08  0.93827000000E+00  0.93827000000E+00 0. -1.
     999902    2    1    2    0    0  0.21481538243E-01 -0.70120496999E-02  0.43349757980E-02  0.10209209291E+01  0.10206616120E+01 0.  0.
     999903    2    3    3    0    0 -0.65063474730E-02 -0.12903184689E+00 -0.16529146106E-01  0.13181606231E+00  0.20266019416E-01 0.  0.
         14    1    1    2    0    0 -0.21481538243E-01  0.70120496999E-02 -0.43349757980E-02  0.23009070851E-01  0.00000000000E+00 0.  1.
     999901    1    3    3    0    0  0.27987885715E-01  0.12201979719E+00  0.20864121904E-01  0.88910486684E+00  0.88000000000E+00 0. -1.
        -11    1    4    4    0    0  0.67097462516E-02 -0.32176629301E-01 -0.14399448934E-02  0.32904266141E-01  0.51100000000E-03 0.  1.
         11    1    4    4    0    0 -0.13216093725E-01 -0.96855217588E-01 -0.15089201213E-01  0.98911796170E-01  0.51100000000E-03 0. -1.
</event>
<event>
 8    1  0.1042301E+005  0.1043930E+01  0.7957747E-01            NaN
         13   -1    0    0    0    0  0.00000000000E+00  0.00000000000E+00  0.74505805969E-08  0.10566000000E+00  0.10566000000E+00 0. -1.
     999900   -1    0    0    0    0 -0.00000000000E+00 -0.00000000000E+00 -0.74505805969E-08  0.93827000000E+00  0.93827000000E+00 0. -1.
     999902    2    1    2    0    0 -0.10376236827E-01  0.17527342179E-01 -0.10612242473E-01  0.10209627689E+01  0.10207044047E+01 0.  0.
     999903    2    3    3    0    0 -0.71012793233E-02  0.15433510498E-01 -0.12926148009E+00  0.13299162574E+00  0.26260633405E-01 0.  0.
         14    1    1    2    0    0  0.10376236827E-01 -0.17527342179E-01  0.10612242473E-01  0.22967231110E-01  0.00000000000E+00 0. -1.
     999901    1    3    3    0    0 -0.32749575032E-02  0.20938316808E-02  0.11864923762E+00  0.88797114315E+00  0.88000000000E+00 0.  1.
        -11    1    4    4    0    0  0.86786462253E-02  0.10269967803E-01 -0.76586997345E-01  0.77760018147E-01  0.51100000000E-03 0.  1.
         11    1    4    4    0    0 -0.15779925549E-01  0.51635426950E-02 -0.52674482749E-01  0.55231607594E-01  0.51100000000E-03 0. -1.
</event>
<event>
 8    1  0.1042301E+005  0.1043930E+01  0.7957747E-01            NaN
         13   -1    0    0    0    0  0.00000000000E+00  0.00000000000E+00  0.74505805969E-08  0.10566000000E+00  0.10566000000E+00 0. -1.
     999900   -1    0    0    0    0 -0.00000000000E+00 -0.00000000000E+00 -0.74505805969E-08  0.93827000000E+00  0.93827000000E+00 0. -1.
     999902    2    1    2    0    0 -0.15552288515E-01  0.11828695695E-01  0.21651753636E-01  0.10147651212E+01  0.10143459277E+01 0.  0.
     999903    2    3    3    0    0 -0.20250491226E-01 -0.29775219477E-01 -0.11590439405E+00  0.12309553406E+00  0.20543511282E-01 0.  0.
         14    1    1    2    0    0  0.15552288515E-01 -0.11828695695E-01 -0.21651753636E-01  0.29164878800E-01  0.00000000000E+00 0.  1.
     999901    1    3    3    0    0  0.46982027103E-02  0.41603915172E-01  0.13755614768E+00  0.89166958714E+00  0.88000000000E+00 0.  1.
        -11    1    4    4    0    0 -0.17145666812E-01 -0.32625382909E-01 -0.98218872892E-01  0.10490756700E+00  0.51100000000E-03 0.  1.
         11    1    4    4    0    0 -0.31048244139E-02  0.28501634318E-02 -0.17685521157E-01  0.18187967061E-01  0.51100000000E-03 0. -1.
</event>
<event>
 8    1  0.1042301E+005  0.1043930E+01  0.7957747E-01            NaN
         13   -1    0    0    0    0  0.00000000000E+00  0.00000000000E+00  0.74505805969E-08  0.10566000000E+00  0.10566000000E+00 0.  1.
     999900   -1    0    0    0    0 -0.00000000000E+00 -0.00000000000E+00 -0.74505805969E-08  0.93827000000E+00  0.93827000000E+00 0. -1.
     999902    2    1    2    0    0  0.12402945117E-01  0.16737333543E-01 -0.50180884876E-02  0.10225021538E+01  0.10222776051E+01 0.  0.
     999903    2    3    3    0    0 -0.12877019776E-01  0.12822161115E+00 -0.33538276966E-01  0.13465012673E+00  0.19981026039E-01 0.  0.
         14    1    1    2    0    0 -0.12402945117E-01 -0.16737333543E-01  0.50180884876E-02  0.21427846224E-01  0.00000000000E+00 0.  1.
     999901    1    3    3    0    0  0.25279964893E-01 -0.11148427761E+00  0.28520188479E-01  0.88785202705E+00  0.88000000000E+00 0. -1.
        -11    1    4    4    0    0 -0.13976338857E-01  0.63209418304E-01 -0.23419326012E-01  0.68843987116E-01  0.51100000000E-03 0. -1.
         11    1    4    4    0    0  0.10993190815E-02  0.65012192849E-01 -0.10118950954E-01  0.65806139614E-01  0.51100000000E-03 0.  1.
</event>
<event>
 8    1  0.1042301E+005  0.1043930E+01  0.7957747E-01            NaN
         13   -1    0    0    0    0  0.00000000000E+00  0.00000000000E+00  0.74505805969E-08  0.10566000000E+00  0.10566000000E+00 0.  1.
     999900   -1    0    0    0    0 -0.00000000000E+00 -0.00000000000E+00 -0.74505805969E-08  0.93827000000E+00  0.93827000000E+00 0. -1.
     999902    2    1    2    0    0 -0.51858095995E-03  0.14780366401E-01  0.19012827055E-01  0.10198423320E+01  0.10195578289E+01 0.  0.
     999903    2    3    3    0    0  0.81187790614E-01 -0.63198050503E-01 -0.73140055431E-01  0.12785089795E+00  0.20271493950E-01 0.  0.
         14    1    1    2    0    0  0.51858095995E-03 -0.14780366401E-01 -0.19012827055E-01  0.24087668002E-01  0.00000000000E+00 0. -1.
     999901    1    3    3    0    0 -0.81706371574E-01  0.77978416904E-01  0.92152882486E-01  0.89199143404E+00  0.88000000000E+00 0.  1.
        -11    1    4    4    0    0  0.18376848878E-01 -0.16069471076E-01 -0.28472416841E-01  0.37508347299E-01  0.51100000000E-03 0. -1.
         11    1    4    4    0    0  0.62810941736E-01 -0.47128579427E-01 -0.44667638590E-01  0.90342550655E-01  0.51100000000E-03 0.  1.
</event>
<event>
 8    1  0.1042301E+005  0.1043930E+01  0.7957747E-01            NaN
         13   -1    0    0    0    0  0.00000000000E+00  0.00000000000E+00  0.74505805969E-08  0.10566000000E+00  0.10566000000E+00 0.  1.
     999900   -1    0    0    0    0 -0.00000000000E+00 -0.00000000000E+00 -0.74505805969E-08  0.93827000000E+00  0.93827000000E+00 0.  1.
     999902    2    1    2    0    0  0.77515281367E-02 -0.14541760048E-01  0.17877287585E-01  0.10196164979E+01  0.10193265700E+01 0.  0.
     999903    2    3    3    0    0  0.39328591577E-01 -0.20404024428E-01 -0.11873685128E+00  0.12849647229E+00  0.21209460432E-01 0.  0.
         14    1    1    2    0    0 -0.77515281367E-02  0.14541760048E-01 -0.17877287585E-01  0.24313502116E-01  0.00000000000E+00 0. -1.
     999901    1    3    3    0    0 -0.31577063440E-01  0.58622643802E-02  0.13661413886E+00  0.89112002559E+00  0.88000000000E+00 0. -1.
        -11    1    4    4    0    0  0.27529899584E-01 -0.79838035793E-02 -0.49813212124E-01  0.57473939432E-01  0.51100000000E-03 0.  1.
         11    1    4    4    0    0  0.11798691993E-01 -0.12420220849E-01 -0.68923639151E-01  0.71022532858E-01  0.51100000000E-03 0. -1.
</event>
<event>
 8    1  0.1042301E+005  0.1043930E+01  0.7957747E-01            NaN
         13   -1    0    0    0    0  0.00000000000E+00  0.00000000000E+00  0.74505805969E-08  0.10566000000E+00  0.10566000000E+00 0.  1.
     999900   -1    0    0    0    0 -0.00000000000E+00 -0.00000000000E+00 -0.74505805969E-08  0.93827000000E+00  0.93827000000E+00 0. -1.
     999902    2    1    2    0    0 -0.39206931502E-02  0.18866649998E-01  0.13445999174E-01  0.10204328255E+01  0.10201622587E+01 0.  0.
     999903    2    3    3    0    0 -0.19598046064E-01  0.10172698585E+00  0.82318804166E-01  0.13372256957E+00  0.19310024176E-01 0.  0.
         14    1    1    2    0    0  0.39206931502E-02 -0.18866649998E-01 -0.13445999174E-01  0.23497174526E-01  0.00000000000E+00 0. -1.
     999901    1    3    3    0    0  0.15677352914E-01 -0.82860335855E-01 -0.68872804992E-01  0.88671025590E+00  0.88000000000E+00 0. -1.
        -11    1    4    4    0    0 -0.25789889192E-02  0.56946551770E-01  0.38437048162E-01  0.68754845173E-01  0.51100000000E-03 0.  1.
         11    1    4    4    0    0 -0.17019057145E-01  0.44780434083E-01  0.43881756004E-01  0.64967724400E-01  0.51100000000E-03 0. -1.
</event>
<event>
 8    1  0.1044617E+005  0.1043930E+01  0.7957747E-01            NaN
         13   -1    0    0    0    0  0.00000000000E+00  0.00000000000E+00  0.74505805969E-08  0.10566000000E+00  0.10566000000E+00 0. -1.
     999900   -1    0    0    0    0 -0.00000000000E+00 -0.00000000000E+00 -0.74505805969E-08  0.93827000000E+00  0.93827000000E+00 0.  1.
     999902    2    1    2    0    0  0.12547076152E-01 -0.87828722793E-02  0.18071303642E-01  0.10202416066E+01  0.10199665661E+01 0.  0.
     999903    2    3    3    0    0  0.54610886781E-02  0.15142758326E-01  0.13014310200E+00  0.13278302449E+00  0.20856125601E-01 0.  0.
         14    1    1    2    0    0 -0.12547076152E-01  0.87828722793E-02 -0.18071303642E-01  0.23688393377E-01  0.00000000000E+00 0.  1.
     999901    1    3    3    0    0  0.70859874743E-02 -0.23925630605E-01 -0.11207179836E+00  0.88745858214E+00  0.88000000000E+00 0.  1.
        -11    1    4    4    0    0  0.77504409058E-02  0.17586713955E-01  0.71423690707E-01  0.73965982433E-01  0.51100000000E-03 0. -1.
         11    1    4    4    0    0 -0.22893522277E-02 -0.24439556292E-02  0.58719411292E-01  0.58817042056E-01  0.51100000000E-03 0.  1.
</event>
<event>
 7    1  0.1042301E+005  0.1043930E+01  0.7957747E-01            NaN
         13   -1    0    0    0    0  0.00000000000E+00  0.00000000000E+00  0.74505805969E-08  0.10566000000E+00  0.10566000000E+00 0.  1.
     999900   -1    0    0    0    0 -0.00000000000E+00 -0.00000000000E+00 -0.74505805969E-08  0.93827000000E+00  0.93827000000E+00 0. -1.
     999903    2    1    2    0    0  0.10304908554E+00  0.40498706558E-01 -0.28962435972E-01  0.11617914902E+00  0.19987813992E-01 0.  0.
         14    1    1    2    0    0 -0.77830355143E-02 -0.28969624118E-01 -0.27554807712E-01  0.40731832655E-01  0.00000000000E+00 0. -1.
     999901    1    1    2    0    0 -0.95266050021E-01 -0.11529082439E-01  0.56517243684E-01  0.88701901832E+00  0.88000000000E+00 0.  1.
        -11    1    3    3    0    0  0.70284024052E-01  0.21033367517E-01 -0.11525110340E-01  0.74265307348E-01  0.51100000000E-03 0. -1.
         11    1    3    3    0    0  0.32765061483E-01  0.19465339041E-01 -0.17437325632E-01  0.41913841677E-01  0.51100000000E-03 0.  1.
</event>
<event>
 8    1  0.1042301E+005  0.1043930E+01  0.7957747E-01            NaN
         13   -1    0    0    0    0  0.00000000000E+00  0.00000000000E+00  0.74505805969E-08  0.10566000000E+00  0.10566000000E+00 0.  1.
     999900   -1    0    0    0    0 -0.00000000000E+00 -0.00000000000E+00 -0.74505805969E-08  0.93827000000E+00  0.93827000000E+00 0. -1.
     999902    2    1    2    0    0 -0.71044878514E-02  0.21157861011E-01  0.77632341829E-02  0.10202995824E+01  0.10200259022E+01 0.  0.
     999903    2    3    3    0    0 -0.73906964500E-01  0.10303461549E+00  0.39353789717E-01  0.13341495801E+00  0.13132359486E-01 0.  0.
         14    1    1    2    0    0  0.71044878514E-02 -0.21157861011E-01 -0.77632341829E-02  0.23630417583E-01  0.00000000000E+00 0. -1.
     999901    1    3    3    0    0  0.66802476648E-01 -0.81876754477E-01 -0.31590555534E-01  0.88688462441E+00  0.88000000000E+00 0. -1.
        -11    1    4    4    0    0 -0.17812286982E-01  0.19450529618E-01  0.37707574353E-02  0.26647333874E-01  0.51100000000E-03 0.  1.
         11    1    4    4    0    0 -0.56094677518E-01  0.83584085869E-01  0.35583032282E-01  0.10676762414E+00  0.51100000000E-03 0. -1.
</event>
<event>
 8    1  0.1042301E+005  0.1043930E+01  0.7957747E-01            NaN
         13   -1    0    0    0    0  0.00000000000E+00  0.00000000000E+00  0.74505805969E-08  0.10566000000E+00  0.10566000000E+00 0. -1.
     999900   -1    0    0    0    0 -0.00000000000E+00 -0.00000000000E+00 -0.74505805969E-08  0.93827000000E+00  0.93827000000E+00 0.  1.
     999902    2    1    2    0    0  0.91265572596E-02  0.17904859918E-01 -0.12081443810E-01  0.10204813467E+01  0.10202119092E+01 0.  0.
     999903    2    3    3    0    0 -0.11503070228E+00 -0.63755027025E-02  0.54264534684E-01  0.12896222187E+00  0.20344666259E-01 0.  0.
         14    1    1    2    0    0 -0.91265572596E-02 -0.17904859918E-01  0.12081443810E-01  0.23448653280E-01  0.00000000000E+00 0. -1.
     999901    1    3    3    0    0  0.12415725954E+00  0.24280362620E-01 -0.66345978494E-01  0.89151912485E+00  0.88000000000E+00 0. -1.
        -11    1    4    4    0    0 -0.42884446700E-01 -0.80582027043E-02  0.29457531184E-01  0.52649954075E-01  0.51100000000E-03 0. -1.
         11    1    4    4    0    0 -0.72146255577E-01  0.16827000017E-02  0.24807003500E-01  0.76312267799E-01  0.51100000000E-03 0.  1.
</event>
<event>
 8    1  0.1042301E+005  0.1043930E+01  0.7957747E-01            NaN
         13   -1    0    0    0    0  0.00000000000E+00  0.00000000000E+00  0.74505805969E-08  0.10566000000E+00  0.10566000000E+00 0.  1.
     999900   -1    0    0    0    0 -0.00000000000E+00 -0.00000000000E+00 -0.74505805969E-08  0.93827000000E+00  0.93827000000E+00 0.  1.
     999902    2    1    2    0    0 -0.81281670716E-02 -0.17153308637E-01 -0.18037716286E-01  0.10177448457E+01  0.10174079362E+01 0.  0.
     999903    2    3    3    0    0  0.28880423536E-02 -0.49150251084E-01  0.11535414128E+00  0.12704930352E+00  0.20269673011E-01 0.  0.
         14    1    1    2    0    0  0.81281670716E-02  0.17153308637E-01  0.18037716286E-01  0.26185154305E-01  0.00000000000E+00 0. -1.
     999901    1    3    3    0    0 -0.11016209425E-01  0.31996942447E-01 -0.13339185756E+00  0.89069554218E+00  0.88000000000E+00 0.  1.
        -11    1    4    4    0    0  0.11021736473E-01 -0.18607006411E-01  0.46861132889E-01  0.51613237247E-01  0.51100000000E-03 0.  1.
         11    1    4    4    0    0 -0.81336941195E-02 -0.30543244673E-01  0.68493008387E-01  0.75436066268E-01  0.51100000000E-03 0. -1.
</event>
<event>
 8    1  0.1042301E+005  0.1043930E+01  0.7957747E-01            NaN
         13   -1    0    0    0    0  0.00000000000E+00  0.00000000000E+00  0.74505805969E-08  0.10566000000E+00  0.10566000000E+00 0. -1.
     999900   -1    0    0    0    0 -0.00000000000E+00 -0.00000000000E+00 -0.74505805969E-08  0.93827000000E+00  0.93827000000E+00 0. -1.
     999902    2    1    2    0    0 -0.34532025316E-03  0.21316277679E-01  0.87589761641E-02  0.10208817332E+01  0.10206215217E+01 0.  0.
     999903    2    3    3    0    0 -0.11080447903E+00 -0.49582399787E-01  0.42378441927E-01  0.13051208146E+00  0.22392501535E-01 0.  0.
         14    1    1    2    0    0  0.34532025316E-03 -0.21316277679E-01 -0.87589761641E-02  0.23048266824E-01  0.00000000000E+00 0.  1.
     999901    1    3    3    0    0  0.11045915877E+00  0.70898677465E-01 -0.33619465763E-01  0.89036965172E+00  0.88000000000E+00 0. -1.
        -11    1    4    4    0    0 -0.94123292975E-02  0.28614237449E-03  0.81056868261E-02  0.12435316650E-01  0.51100000000E-03 0.  1.
         11    1    4    4    0    0 -0.10139214973E+00 -0.49868542161E-01  0.34272755101E-01  0.11807676481E+00  0.51100000000E-03 0. -1.
</event>
<event>
 8    1  0.1042301E+005  0.1043930E+01  0.7957747E-01            NaN
         13   -1    0    0    0    0  0.00000000000E+00  0.00000000000E+00  0.74505805969E-08  0.10566000000E+00  0.10566000000E+00 0.  1.
     999900   -1    0    0    0    0 -0.00000000000E+00 -0.00000000000E+00 -0.74505805969E-08  0.93827000000E+00  0.93827000000E+00 0. -1.
     999902    2    1    2    0    0 -0.39060362246E-02  0.20001801896E-01 -0.12396280645E-01  0.10200763426E+01  0.10197974052E+01 0.  0.
     999903    2    3    3    0    0 -0.50335218471E-01 -0.72643220912E-01  0.90408518427E-01  0.12805190574E+00  0.20320398558E-01 0.  0.
         14    1    1    2    0    0  0.39060362246E-02 -0.20001801896E-01  0.12396280645E-01  0.23853657412E-01  0.00000000000E+00 0. -1.
     999901    1    3    3    0    0  0.46429182247E-01  0.92645022807E-01 -0.10280479907E+00  0.89202443684E+00  0.88000000000E+00 0. -1.
        -11    1    4    4    0    0 -0.13609196730E-01 -0.32771779698E-01  0.26767136801E-01  0.44451552433E-01  0.51100000000E-03 0.  1.
         11    1    4    4    0    0 -0.36726021742E-01 -0.39871441213E-01  0.63641381627E-01  0.83600353311E-01  0.51100000000E-03 0. -1.
</event>
<event>
 8    1  0.1042301E+005  0.1043930E+01  0.7957747E-01            NaN
         13   -1    0    0    0    0  0.00000000000E+00  0.00000000000E+00  0.74505805969E-08  0.10566000000E+00  0.10566000000E+00 0. -1.
     999900   -1    0    0    0    0 -0.00000000000E+00 -0.00000000000E+00 -0.74505805969E-08  0.93827000000E+00  0.93827000000E+00 0.  1.
     999902    2    1    2    0    0  0.18701821756E-01 -0.54864040241E-02  0.12630954179E-01  0.10207050184E+01  0.10204407552E+01 0.  0.
     999903    2    3    3    0    0  0.17632468316E-01 -0.76308244769E-01 -0.10247353199E+00  0.13038714295E+00  0.19134527131E-01 0.  0.
         14    1    1    2    0    0 -0.18701821756E-01  0.54864040241E-02 -0.12630954179E-01  0.23224981584E-01  0.00000000000E+00 0.  1.
     999901    1    3    3    0    0  0.10693534402E-02  0.70821840744E-01  0.11510448617E+00  0.89031787547E+00  0.88000000000E+00 0. -1.
        -11    1    4    4    0    0  0.13361655550E-02 -0.37173334191E-01 -0.58324620176E-01  0.69178497765E-01  0.51100000000E-03 0. -1.
         11    1    4    4    0    0  0.16296302761E-01 -0.39134910578E-01 -0.44148911815E-01  0.61208645182E-01  0.51100000000E-03 0.  1.
</event>
<event>
 8    1  0.1042301E+005  0.1043930E+01  0.7957747E-01            NaN
         13   -1    0    0    0    0  0.00000000000E+00  0.00000000000E+00  0.74505805969E-08  0.10566000000E+00  0.10566000000E+00 0.  1.
     999900   -1    0    0    0    0 -0.00000000000E+00 -0.00000000000E+00 -0.74505805969E-08  0.93827000000E+00  0.93827000000E+00 0.  1.
     999902    2    1    2    0    0 -0.11038115992E-01  0.23814694138E-01  0.64830598724E-02  0.10168928085E+01  0.10165333119E+01 0.  0.
     999903    2    3    3    0    0  0.55572315659E-01  0.92604450565E-03 -0.11151189848E+00  0.12622808473E+00  0.20235761580E-01 0.  0.
         14    1    1    2    0    0  0.11038115992E-01 -0.23814694138E-01 -0.64830598724E-02  0.27037191548E-01  0.00000000000E+00 0.  1.
     999901    1    3    3    0    0 -0.66610431651E-01  0.22888649632E-01  0.11799495835E+00  0.89066472372E+00  0.88000000000E+00 0. -1.
        -11    1    4    4    0    0  0.37720439590E-01  0.60723887562E-02 -0.56888792898E-01  0.68529565492E-01  0.51100000000E-03 0. -1.
         11    1    4    4    0    0  0.17851876070E-01 -0.51463442505E-02 -0.54623105578E-01  0.57698519238E-01  0.51100000000E-03 0.  1.
</event>
<event>
 8    1  0.1042301E+005  0.1043930E+01  0.7957747E-01            NaN
         13   -1    0    0    0    0  0.00000000000E+00  0.00000000000E+00  0.74505805969E-08  0.10566000000E+00  0.10566000000E+00 0. -1.
     999900   -1    0    0    0    0 -0.00000000000E+00 -0.00000000000E+00 -0.74505805969E-08  0.93827000000E+00  0.93827000000E+00 0.  1.
     999902    2    1    2    0    0 -0.27002883088E-03  0.81159755568E-02  0.22248630894E-01  0.10202457531E+01  0.10199708100E+01 0.  0.
     999903    2    3    3    0    0 -0.98562964492E-01 -0.79398465128E-01 -0.18543937340E-01  0.12952452165E+00  0.20345757833E-01 0.  0.
         14    1    1    2    0    0  0.27002883088E-03 -0.81159755568E-02 -0.22248630894E-01  0.23684246905E-01  0.00000000000E+00 0. -1.
     999901    1    3    3    0    0  0.98292935661E-01  0.87514440684E-01  0.40792568234E-01  0.89072123145E+00  0.88000000000E+00 0. -1.
        -11    1    4    4    0    0 -0.95677315876E-02 -0.16018528375E-01 -0.56847632883E-02  0.19511852646E-01  0.51100000000E-03 0. -1.
         11    1    4    4    0    0 -0.88995232904E-01 -0.63379936752E-01 -0.12859174052E-01  0.11001266900E+00  0.51100000000E-03 0.  1.
</event>
<event>
 8    1  0.1042301E+005  0.1043930E+01  0.7957747E-01            NaN
         13   -1    0    0    0    0  0.00000000000E+00  0.00000000000E+00  0.74505805969E-08  0.10566000000E+00  0.10566000000E+00 0.  1.
     999900   -1    0    0    0    0 -0.00000000000E+00 -0.00000000000E+00 -0.74505805969E-08  0.93827000000E+00  0.93827000000E+00 0. -1.
     999902    2    1    2    0    0  0.20038379658E-01  0.13019893276E-01  0.26631341466E-02  0.10198853215E+01  0.10196018451E+01 0.  0.
     999903    2    3    3    0    0  0.62998504993E-01  0.10977375003E+00  0.35123977510E-01  0.13294643550E+00  0.20541983546E-01 0.  0.
         14    1    1    2    0    0 -0.20038379658E-01 -0.13019893276E-01 -0.26631341466E-02  0.24044678491E-01  0.00000000000E+00 0. -1.
     999901    1    3    3    0    0 -0.42960125335E-01 -0.96753856757E-01 -0.32460843364E-01  0.88693888601E+00  0.88000000000E+00 0. -1.
        -11    1    4    4    0    0  0.11373507767E-01  0.38112095538E-01  0.82104057734E-02  0.40614780427E-01  0.51100000000E-03 0. -1.
         11    1    4    4    0    0  0.51624997226E-01  0.71661654495E-01  0.26913571737E-01  0.92331655071E-01  0.51100000000E-03 0.  1.
</event>
<event>
 8    1  0.1042301E+005  0.1043930E+01  0.7957747E-01            NaN
         13   -1    0    0    0    0  0.00000000000E+00  0.00000000000E+00  0.74505805969E-08  0.10566000000E+00  0.10566000000E+00 0. -1.
     999900   -1    0    0    0    0 -0.00000000000E+00 -0.00000000000E+00 -0.74505805969E-08  0.93827000000E+00  0.93827000000E+00 0.  1.
     999902    2    1    2    0    0  0.20582106726E-01  0.26945040505E-03 -0.15912082399E-01  0.10179128886E+01  0.10175803451E+01 0.  0.
     999903    2    3    3    0    0  0.11277596876E+00  0.57605118898E-01 -0.27274311998E-01  0.13116817483E+00  0.20601775190E-01 0.  0.
         14    1    1    2    0    0 -0.20582106726E-01 -0.26945040505E-03  0.15912082399E-01  0.26017111428E-01  0.00000000000E+00 0. -1.
     999901    1    3    3    0    0 -0.92193862037E-01 -0.57335668493E-01  0.11362229599E-01  0.88674471374E+00  0.88000000000E+00 0. -1.
        -11    1    4    4    0    0  0.18361211143E-01  0.12311953926E-01  0.26176314304E-02  0.22267271935E-01  0.51100000000E-03 0.  1.
         11    1    4    4    0    0  0.94414757619E-01  0.45293164971E-01 -0.29891943428E-01  0.10890090290E+00  0.51100000000E-03 0. -1.
</event>
<event>
 8    1  0.1042301E+005  0.1043930E+01  0.7957747E-01            NaN
         13   -1    0    0    0    0  0.00000000000E+00  0.00000000000E+00  0.74505805969E-08  0.10566000000E+00  0.10566000000E+00 0.  1.
     999900   -1    0    0    0    0 -0.00000000000E+00 -0.00000000000E+00 -0.74505805969E-08  0.93827000000E+00  0.93827000000E+00 0. -1.
     999902    2    1    2    0    0  0.21249311495E-01  0.74098457717E-02  0.62755873288E-02  0.10205671652E+01  0.10202997190E+01 0.  0.
     999903    2    3    3    0    0 -0.91103896061E-01  0.59880033408E-01 -0.65345914116E-01  0.12899215248E+00  0.21985191202E-01 0.  0.
         14    1    1    2    0    0 -0.21249311495E-01 -0.74098457717E-02 -0.62755873288E-02  0.23362834796E-01  0.00000000000E+00 0.  1.
     999901    1    3    3    0    0  0.11235320756E+00 -0.52470187637E-01  0.71621501445E-01  0.89157501272E+00  0.88000000000E+00 0.  1.
        -11    1    4    4    0    0 -0.62568911055E-01  0.36889390712E-01 -0.54386492795E-01  0.90740550457E-01  0.51100000000E-03 0.  1.
         11    1    4    4    0    0 -0.28534985006E-01  0.22990642696E-01 -0.10959421320E-01  0.38251602026E-01  0.51100000000E-03 0. -1.
</event>
<event>
 8    1  0.1042301E+005  0.1043930E+01  0.7957747E-01            NaN
         13   -1    0    0    0    0  0.00000000000E+00  0.00000000000E+00  0.74505805969E-08  0.10566000000E+00  0.10566000000E+00 0.  1.
     999900   -1    0    0    0    0 -0.00000000000E+00 -0.00000000000E+00 -0.74505805969E-08  0.93827000000E+00  0.93827000000E+00 0.  1.
     999902    2    1    2    0    0 -0.83397729216E-03 -0.78679419507E-02 -0.22781270328E-01  0.10198138994E+01  0.10195287162E+01 0.  0.
     999903    2    3    3    0    0  0.12777568853E-01 -0.56508149735E-01 -0.11819573930E+00  0.13321643447E+00  0.20492641865E-01 0.  0.
         14    1    1    2    0    0  0.83397729216E-03  0.78679419507E-02  0.22781270328E-01  0.24116100564E-01  0.00000000000E+00 0.  1.
     999901    1    3    3    0    0 -0.13611546145E-01  0.48640207785E-01  0.95414468973E-01  0.88659746497E+00  0.88000000000E+00 0. -1.
        -11    1    4    4    0    0  0.16566247038E-01 -0.28114741554E-01 -0.58036541743E-01  0.66583635618E-01  0.51100000000E-03 0. -1.
         11    1    4    4    0    0 -0.37886781850E-02 -0.28393408181E-01 -0.60159197558E-01  0.66632798848E-01  0.51100000000E-03 0.  1.
</event>
<event>
 8    1  0.1042301E+005  0.1043930E+01  0.7957747E-01            NaN
         13   -1    0    0    0    0  0.00000000000E+00  0.00000000000E+00  0.74505805969E-08  0.10566000000E+00  0.10566000000E+00 0.  1.
     999900   -1    0    0    0    0 -0.00000000000E+00 -0.00000000000E+00 -0.74505805969E-08  0.93827000000E+00  0.93827000000E+00 0. -1.
     999902    2    1    2    0    0  0.15455424003E-01 -0.86320618123E-02  0.16027892517E-01  0.10200495486E+01  0.10197699768E+01 0.  0.
     999903    2    3    3    0    0  0.79707014297E-01 -0.38808700828E-01 -0.93353631714E-01  0.13044108736E+00  0.20991744333E-01 0.  0.
         14    1    1    2    0    0 -0.15455424003E-01  0.86320618123E-02 -0.16027892517E-01  0.23880451436E-01  0.00000000000E+00 0. -1.
     999901    1    3    3    0    0 -0.64251590294E-01  0.30176639016E-01  0.10938152423E+00  0.88960846120E+00  0.88000000000E+00 0.  1.
        -11    1    4    4    0    0  0.34671132172E-01 -0.12796789998E-01 -0.52983078825E-01  0.64601184224E-01  0.51100000000E-03 0.  1.
         11    1    4    4    0    0  0.45035882125E-01 -0.26011910830E-01 -0.40370552889E-01  0.65839903139E-01  0.51100000000E-03 0. -1.
</event>
<event>
 8    1  0.1042301E+005  0.1043930E+01  0.7957747E-01            NaN
         13   -1    0    0    0    0  0.00000000000E+00  0.00000000000E+00  0.74505805969E-08  0.10566000000E+00  0.10566000000E+00 0. -1.
     999900   -1    0    0    0    0 -0.00000000000E+00 -0.00000000000E+00 -0.74505805969E-08  0.93827000000E+00  0.93827000000E+00 0.  1.
     999902    2    1    2    0    0 -0.22014268124E-01  0.73664453532E-02 -0.39798063182E-02  0.10203772639E+01  0.10201054011E+01 0.  0.
     999903    2    3    3    0    0 -0.94108451596E-01 -0.85365054850E-01 -0.30146209559E-01  0.13218731629E+00  0.20520706287E-01 0.  0.
         14    1    1    2    0    0  0.22014268124E-01 -0.73664453532E-02  0.39798063182E-02  0.23552736073E-01  0.00000000000E+00 0. -1.
     999901    1    3    3    0    0  0.72094183473E-01  0.92731500203E-01  0.26166403241E-01  0.88818994763E+00  0.88000000000E+00 0.  1.
        -11    1    4    4    0    0 -0.52558657061E-01 -0.38187237565E-01 -0.76594072348E-02  0.65418691404E-01  0.51100000000E-03 0. -1.
         11    1    4    4    0    0 -0.41549794536E-01 -0.47177817285E-01 -0.22486802324E-01  0.66768624888E-01  0.51100000000E-03 0.  1.
</event>
<event>
 8    1  0.1042301E+005  0.1043930E+01  0.7957747E-01            NaN
         13   -1    0    0    0    0  0.00000000000E+00  0.00000000000E+00  0.74505805969E-08  0.10566000000E+00  0.10566000000E+00 0. -1.
     999900   -1    0    0    0    0 -0.00000000000E+00 -0.00000000000E+00 -0.74505805969E-08  0.93827000000E+00  0.93827000000E+00 0. -1.
     999902    2    1    2    0    0 -0.36689556700E-02  0.17788507072E-01  0.16223905674E-01  0.10195762049E+01  0.10192853037E+01 0.  0.
     999903    2    3    3    0    0 -0.10656186091E+00 -0.69047082153E-01  0.14528989031E-01  0.12933452860E+00  0.19834288823E-01 0.  0.
         14    1    1    2    0    0  0.36689556700E-02 -0.17788507072E-01 -0.16223905674E-01  0.24353795081E-01  0.00000000000E+00 0. -1.
     999901    1    3    3    0    0  0.10289290524E+00  0.86835589224E-01  0.16949166430E-02  0.89024167631E+00  0.88000000000E+00 0. -1.
        -11    1    4    4    0    0 -0.73933533950E-01 -0.56843120197E-01  0.15183531553E-01  0.94488668672E-01  0.51100000000E-03 0.  1.
         11    1    4    4    0    0 -0.32628326958E-01 -0.12203961955E-01 -0.65454252136E-03  0.34845859932E-01  0.51100000000E-03 0. -1.
</event>
<event>
 8    1  0.1042301E+005  0.1043930E+01  0.7957747E-01            NaN
         13   -1    0    0    0    0  0.00000000000E+00  0.00000000000E+00  0.74505805969E-08  0.10566000000E+00  0.10566000000E+00 0.  1.
     999900   -1    0    0    0    0 -0.00000000000E+00 -0.00000000000E+00 -0.74505805969E-08  0.93827000000E+00  0.93827000000E+00 0. -1.
     999902    2    1    2    0    0 -0.80603325553E-02  0.15231399859E-01 -0.17908584580E-01  0.10190767929E+01  0.10187736883E+01 0.  0.
     999903    2    3    3    0    0  0.12575985654E+00  0.17568378954E-01 -0.64451115510E-02  0.12888315344E+00  0.21098301415E-01 0.  0.
         14    1    1    2    0    0  0.80603325553E-02 -0.15231399859E-01  0.17908584580E-01  0.24853207122E-01  0.00000000000E+00 0.  1.
     999901    1    3    3    0    0 -0.13382018909E+00 -0.23369790946E-02 -0.11463473029E-01  0.89019363944E+00  0.88000000000E+00 0.  1.
        -11    1    4    4    0    0  0.32292616896E-01 -0.46977397453E-02 -0.18773957975E-02  0.32690481806E-01  0.51100000000E-03 0. -1.
         11    1    4    4    0    0  0.93467239642E-01  0.22266118699E-01 -0.45677157536E-02  0.96192671636E-01  0.51100000000E-03 0.  1.
</event>
<event>
 8    1  0.1042301E+005  0.1043930E+01  0.7957747E-01            NaN
         13   -1    0    0    0    0  0.00000000000E+00  0.00000000000E+00  0.74505805969E-08  0.10566000000E+00  0.10566000000E+00 0. -1.
     999900   -1    0    0    0    0 -0.00000000000E+00 -0.00000000000E+00 -0.74505805969E-08  0.93827000000E+00  0.93827000000E+00 0. -1.
     999902    2    1    2    0    0  0.21879775920E-01 -0.10318491389E-01  0.42547164637E-02  0.10193678651E+01  0.10190719042E+01 0.  0.
     999903    2    3    3    0    0  0.57533613647E-01 -0.17819181308E-01  0.11577852037E+00  0.13158128301E+00  0.16772845259E-01 0.  0.
         14    1    1    2    0    0 -0.21879775920E-01  0.10318491389E-01 -0.42547164637E-02  0.24562134905E-01  0.00000000000E+00 0. -1.
     999901    1    3    3    0    0 -0.35653837727E-01  0.75006899188E-02 -0.11152380390E+00  0.88778658209E+00  0.88000000000E+00 0. -1.
        -11    1    4    4    0    0  0.26681287920E-01 -0.42228957636E-02  0.36346350065E-01  0.45288434039E-01  0.51100000000E-03 0.  1.
         11    1    4    4    0    0  0.30852325728E-01 -0.13596285544E-01  0.79432170303E-01  0.86292848970E-01  0.51100000000E-03 0. -1.
</event>
<event>
 8    1  0.1042301E+005  0.1043930E+01  0.7957747E-01            NaN
         13   -1    0    0    0    0  0.00000000000E+00  0.00000000000E+00  0.74505805969E-08  0.10566000000E+00  0.10566000000E+00 0. -1.
     999900   -1    0    0    0    0 -0.00000000000E+00 -0.00000000000E+00 -0.74505805969E-08  0.93827000000E+00  0.93827000000E+00 0. -1.
     999902    2    1    2    0    0 -0.14931667872E-01  0.12150681945E-01  0.13820270162E-01  0.10202320329E+01  0.10199567674E+01 0.  0.
     999903    2    3    3    0    0 -0.37423183792E-01 -0.69271441362E-01 -0.99598689219E-01  0.12894123255E+00  0.22514779215E-01 0.  0.
         14    1    1    2    0    0  0.14931667872E-01 -0.12150681945E-01 -0.13820270162E-01  0.23697967097E-01  0.00000000000E+00 0. -1.
     999901    1    3    3    0    0  0.22491515921E-01  0.81422123307E-01  0.11341895938E+00  0.89129080036E+00  0.88000000000E+00 0.  1.
        -11    1    4    4    0    0 -0.76791306027E-02 -0.30054658058E-01 -0.51479417156E-01  0.60105266238E-01  0.51100000000E-03 0.  1.
         11    1    4    4    0    0 -0.29744053190E-01 -0.39216783304E-01 -0.48119272063E-01  0.68835966310E-01  0.51100000000E-03 0. -1.
</event>
<event>
 8    1  0.1042301E+005  0.1043930E+01  0.7957747E-01            NaN
         13   -1    0    0    0    0  0.00000000000E+00  0.00000000000E+00  0.74505805969E-08  0.10566000000E+00  0.10566000000E+00 0.  1.
     999900   -1    0    0    0    0 -0.00000000000E+00 -0.00000000000E+00 -0.74505805969E-08  0.93827000000E+00  0.93827000000E+00 0.  1.
     999902    2    1    2    0    0 -0.14444588658E-01  0.18749655687E-01 -0.13714095849E-01  0.10165754363E+01  0.10162073339E+01 0.  0.
     999903    2    3    3    0    0 -0.44873189236E-01 -0.58941051484E-01  0.99488621468E-01  0.12540957020E+00  0.18491182567E-01 0.  0.
         14    1    1    2    0    0  0.14444588658E-01 -0.18749655687E-01  0.13714095849E-01  0.27354563693E-01  0.00000000000E+00 0.  1.
     999901    1    3    3    0    0  0.30428600578E-01  0.77690707171E-01 -0.11320271732E+00  0.89116586611E+00  0.88000000000E+00 0.  1.
        -11    1    4    4    0    0 -0.28301135223E-01 -0.42984013994E-01  0.80639347059E-01  0.95663708527E-01  0.51100000000E-03 0. -1.
         11    1    4    4    0    0 -0.16572054013E-01 -0.15957037490E-01  0.18849274409E-01  0.29745861669E-01  0.51100000000E-03 0.  1.
</event>
<event>
 8    1  0.1042301E+005  0.1043930E+01  0.7957747E-01            NaN
         13   -1    0    0    0    0  0.00000000000E+00  0.00000000000E+00  0.74505805969E-08  0.10566000000E+00  0.10566000000E+00 0.  1.
     999900   -1    0    0    0    0 -0.00000000000E+00 -0.00000000000E+00 -0.74505805969E-08  0.93827000000E+00  0.93827000000E+00 0. -1.
     999902    2    1    2    0    0 -0.82269094257E-03  0.17504814618E-01  0.15160841319E-01  0.10207578947E+01  0.10204948472E+01 0.  0.
     999903    2    3    3    0    0 -0.31721587689E-01 -0.10419413867E-01 -0.12290591151E+00  0.12901974220E+00  0.20625408660E-01 0.  0.
         14    1    1    2    0    0  0.82269094257E-03 -0.17504814618E-01 -0.15160841319E-01  0.23172105315E-01  0.00000000000E+00 0.  1.
     999901    1    3    3    0    0  0.30898896746E-01  0.27924228485E-01  0.13806675283E+00  0.89173815248E+00  0.88000000000E+00 0.  1.
        -11    1    4    4    0    0 -0.24417226477E-01 -0.14159131734E-01 -0.69988924303E-01  0.75467824974E-01  0.51100000000E-03 0.  1.
         11    1    4    4    0    0 -0.73043612118E-02  0.37397178671E-02 -0.52916987210E-01  0.53551917228E-01  0.51100000000E-03 0. -1.
</event>
<event>
 8    1  0.1042301E+005  0.1043930E+01  0.7957747E-01            NaN
         13   -1    0    0    0    0  0.00000000000E+00  0.00000000000E+00  0.74505805969E-08  0.10566000000E+00  0.10566000000E+00 0. -1.
     999900   -1    0    0    0    0 -0.00000000000E+00 -0.00000000000E+00 -0.74505805969E-08  0.93827000000E+00  0.93827000000E+00 0. -1.
     999902    2    1    2    0    0  0.29749197751E-02  0.22955677636E-01  0.51431364793E-02  0.10202178694E+01  0.10199422709E+01 0.  0.
     999903    2    3    3    0    0 -0.72304587927E-01  0.66163584655E-01  0.86565920737E-01  0.13220683498E+00  0.19478583426E-01 0.  0.
         14    1    1    2    0    0 -0.29749197751E-02 -0.22955677636E-01 -0.51431364793E-02  0.23712130572E-01  0.00000000000E+00 0.  1.
     999901    1    3    3    0    0  0.75279507702E-01 -0.43207907018E-01 -0.81422784258E-01  0.88801103445E+00  0.88000000000E+00 0. -1.
        -11    1    4    4    0    0 -0.54641110075E-01  0.40329269735E-01  0.66353252668E-01  0.94947965583E-01  0.51100000000E-03 0. -1.
         11    1    4    4    0    0 -0.17663477851E-01  0.25834314920E-01  0.20212668069E-01  0.37258869395E-01  0.51100000000E-03 0.  1.
</event>
<event>
 8    1  0.1042301E+005  0.1043930E+01  0.7957747E-01            NaN
         13   -1    0    0    0    0  0.00000000000E+00  0.00000000000E+00  0.74505805969E-08  0.10566000000E+00  0.10566000000E+00 0.  1.
     999900   -1    0    0    0    0 -0.00000000000E+00 -0.00000000000E+00 -0.74505805969E-08  0.93827000000E+00  0.93827000000E+00 0. -1.
     999902    2    1    2    0    0  0.16182051284E-01  0.10245550888E-01  0.14971847278E-01  0.10196197901E+01  0.10193299417E+01 0.  0.
     999903    2    3    3    0    0  0.10685881912E+00  0.58783858127E-01 -0.45401730878E-01  0.13157518958E+00  0.19400106843E-01 0.  0.
         14    1    1    2    0    0 -0.16182051284E-01 -0.10245550888E-01 -0.14971847278E-01  0.24310209947E-01  0.00000000000E+00 0.  1.
     999901    1    3    3    0    0 -0.90676767836E-01 -0.48538307240E-01  0.60373578156E-01  0.88804460048E+00  0.88000000000E+00 0.  1.
        -11    1    4    4    0    0  0.53752718762E-01  0.38267305686E-01 -0.30682037281E-01  0.72769430336E-01  0.51100000000E-03 0.  1.
         11    1    4    4    0    0  0.53106100358E-01  0.20516552442E-01 -0.14719693597E-01  0.58805759241E-01  0.51100000000E-03 0. -1.
</event>
<event>
 8    1  0.1042301E+005  0.1043930E+01  0.7957747E-01            NaN
         13   -1    0    0    0    0  0.00000000000E+00  0.00000000000E+00  0.74505805969E-08  0.10566000000E+00  0.10566000000E+00 0.  1.
     999900   -1    0    0    0    0 -0.00000000000E+00 -0.00000000000E+00 -0.74505805969E-08  0.93827000000E+00  0.93827000000E+00 0.  1.
     999902    2    1    2    0    0 -0.28752787723E-02 -0.17767632583E-01  0.16696653709E-01  0.10193793536E+01  0.10190836728E+01 0.  0.
     999903    2    3    3    0    0 -0.63814078781E-01 -0.12842768105E-01  0.11318968076E+00  0.13199629315E+00  0.19337637679E-01 0.  0.
         14    1    1    2    0    0  0.28752787723E-02  0.17767632583E-01 -0.16696653709E-01  0.24550646442E-01  0.00000000000E+00 0. -1.
     999901    1    3    3    0    0  0.60938800009E-01 -0.49248644780E-02 -0.96493027049E-01  0.88738306041E+00  0.88000000000E+00 0.  1.
        -11    1    4    4    0    0 -0.44124868971E-02  0.22693336338E-02  0.18798719733E-01  0.19449239069E-01  0.51100000000E-03 0.  1.
         11    1    4    4    0    0 -0.59401591884E-01 -0.15112101739E-01  0.94390961025E-01  0.11254705408E+00  0.51100000000E-03 0. -1.
</event>
<event>
 8    1  0.1042301E+005  0.1043930E+01  0.7957747E-01            NaN
         13   -1    0    0    0    0  0.00000000000E+00  0.00000000000E+00  0.74505805969E-08  0.10566000000E+00  0.10566000000E+00 0. -1.
     999900   -1    0    0    0    0 -0.00000000000E+00 -0.00000000000E+00 -0.74505805969E-08  0.93827000000E+00  0.93827000000E+00 0.  1.
     999902    2    1    2    0    0  0.90096252444E-02 -0.73955265397E-02 -0.21198060848E-01  0.10197385771E+01  0.10194515882E+01 0.  0.
     999903    2    3    3    0    0 -0.92597832260E-01  0.62620898948E-01  0.58025222197E-01  0.12760478450E+00  0.20501685115E-01 0.  0.
         14    1    1    2    0    0 -0.90096252444E-02  0.73955265397E-02  0.21198060848E-01  0.24191422934E-01  0.00000000000E+00 0. -1.
     999901    1    3    3    0    0  0.10160745750E+00 -0.70016425487E-01 -0.79223283045E-01  0.89213379256E+00  0.88000000000E+00 0. -1.
        -11    1    4    4    0    0 -0.49687852973E-01  0.29747327987E-01  0.19067786776E-01  0.60972353316E-01  0.51100000000E-03 0. -1.
         11    1    4    4    0    0 -0.42909979287E-01  0.32873570961E-01  0.38957435421E-01  0.66632431186E-01  0.51100000000E-03 0.  1.
</event>
<event>
 8    1  0.1042301E+005  0.1043930E+01  0.7957747E-01            NaN
         13   -1    0    0    0    0  0.00000000000E+00  0.00000000000E+00  0.74505805969E-08  0.10566000000E+00  0.10566000000E+00 0.  1.
     999900   -1    0    0    0    0 -0.00000000000E+00 -0.00000000000E+00 -0.74505805969E-08  0.93827000000E+00  0.93827000000E+00 0. -1.
     999902    2    1    2    0    0  0.92670628376E-03 -0.48103163675E-02 -0.14893355503E-01  0.10282516721E+01  0.10281321370E+01 0.  0.
     999903    2    3    3    0    0  0.32839479317E-02 -0.70732356535E-01 -0.11878976201E+00  0.13968781098E+00  0.19693308599E-01 0.  0.
         14    1    1    2    0    0 -0.92670628376E-03  0.48103163675E-02  0.14893355503E-01  0.15678327915E-01  0.00000000000E+00 0.  1.
     999901    1    3    3    0    0 -0.23572416479E-02  0.65922040168E-01  0.10389640651E+00  0.88856386110E+00  0.88000000000E+00 0.  1.
        -11    1    4    4    0    0  0.60388278386E-02 -0.49254820481E-01 -0.65595008385E-01  0.82252483417E-01  0.51100000000E-03 0. -1.
         11    1    4    4    0    0 -0.27548799069E-02 -0.21477536055E-01 -0.53194753627E-01  0.57435327567E-01  0.51100000000E-03 0.  1.
</event>
<event>
 8    1  0.1042301E+005  0.1043930E+01  0.7957747E-01            NaN
         13   -1    0    0    0    0  0.00000000000E+00  0.00000000000E+00  0.74505805969E-08  0.10566000000E+00  0.10566000000E+00 0.  1.
     999900   -1    0    0    0    0 -0.00000000000E+00 -0.00000000000E+00 -0.74505805969E-08  0.93827000000E+00  0.93827000000E+00 0. -1.
     999902    2    1    2    0    0 -0.20993184871E-01  0.94926928279E-02  0.59976452225E-03  0.10208825545E+01  0.10206223617E+01 0.  0.
     999903    2    3    3    0    0 -0.32875799720E-01  0.93473854797E-01  0.85925182355E-01  0.13269650468E+00  0.20175372474E-01 0.  0.
         14    1    1    2    0    0  0.20993184871E-01 -0.94926928279E-02 -0.59976452225E-03  0.23047445533E-01  0.00000000000E+00 0.  1.
     999901    1    3    3    0    0  0.11882614850E-01 -0.83981161969E-01 -0.85325417833E-01  0.88818604978E+00  0.88000000000E+00 0. -1.
        -11    1    4    4    0    0 -0.28444217507E-03  0.26910990609E-01  0.20490043502E-01  0.33828764781E-01  0.51100000000E-03 0. -1.
         11    1    4    4    0    0 -0.32591357545E-01  0.66562864188E-01  0.65435138853E-01  0.98867739902E-01  0.51100000000E-03 0.  1.
</event>
<event>
 8    1  0.1042301E+005  0.1043930E+01  0.7957747E-01            NaN
         13   -1    0    0    0    0  0.00000000000E+00  0.00000000000E+00  0.74505805969E-08  0.10566000000E+00  0.10566000000E+00 0.  1.
     999900   -1    0    0    0    0 -0.00000000000E+00 -0.00000000000E+00 -0.74505805969E-08  0.93827000000E+00  0.93827000000E+00 0.  1.
     999902    2    1    2    0    0 -0.17275210890E-02 -0.16453827117E-01 -0.16920589531E-01  0.10202652772E+01  0.10199907925E+01 0.  0.
     999903    2    3    3    0    0 -0.78736132770E-01  0.15649546686E-03 -0.10459677227E+00  0.13240642460E+00  0.19788213978E-01 0.  0.
         14    1    1    2    0    0  0.17275210890E-02  0.16453827117E-01  0.16920589531E-01  0.23664722817E-01  0.00000000000E+00 0.  1.
     999901    1    3    3    0    0  0.77008611681E-01 -0.16610322584E-01  0.87676182737E-01  0.88785885258E+00  0.88000000000E+00 0. -1.
        -11    1    4    4    0    0 -0.44917379095E-01  0.94012818565E-02 -0.64169272844E-01  0.78891772344E-01  0.51100000000E-03 0.  1.
         11    1    4    4    0    0 -0.33818753675E-01 -0.92447863896E-02 -0.40427499424E-01  0.53514652257E-01  0.51100000000E-03 0. -1.
</event>
<event>
 8    1  0.1042301E+005  0.1043930E+01  0.7957747E-01            NaN
         13   -1    0    0    0    0  0.00000000000E+00  0.00000000000E+00  0.74505805969E-08  0.10566000000E+00  0.10566000000E+00 0. -1.
     999900   -1    0    0    0    0 -0.00000000000E+00 -0.00000000000E+00 -0.74505805969E-08  0.93827000000E+00  0.93827000000E+00 0.  1.
     999902    2    1    2    0    0  0.16234327727E-01 -0.14598449130E-01 -0.76885298821E-02  0.10207830433E+01  0.10205205730E+01 0.  0.
     999903    2    3    3    0    0  0.92818683605E-01  0.60685017542E-01 -0.69576416699E-01  0.13209700510E+00  0.17628432013E-01 0.  0.
         14    1    1    2    0    0 -0.16234327727E-01  0.14598449130E-01  0.76885298821E-02  0.23146956722E-01  0.00000000000E+00 0. -1.
     999901    1    3    3    0    0 -0.76584355878E-01 -0.75283466672E-01  0.61887886817E-01  0.88868603818E+00  0.88000000000E+00 0. -1.
        -11    1    4    4    0    0  0.37177413088E-04  0.26436117050E-02 -0.68826997333E-03  0.27793707135E-02  0.51100000000E-03 0. -1.
         11    1    4    4    0    0  0.92781506192E-01  0.58041405837E-01 -0.68888146726E-01  0.12931763439E+00  0.51100000000E-03 0.  1.
</event>
<event>
 8    1  0.1042301E+005  0.1043930E+01  0.7957747E-01            NaN
         13   -1    0    0    0    0  0.00000000000E+00  0.00000000000E+00  0.74505805969E-08  0.10566000000E+00  0.10566000000E+00 0.  1.
     999900   -1    0    0    0    0 -0.00000000000E+00 -0.00000000000E+00 -0.74505805969E-08  0.93827000000E+00  0.93827000000E+00 0.  1.
     999902    2    1    2    0    0  0.20515758324E-01 -0.12967282577E-01 -0.17437314618E-03  0.10196590881E+01  0.10193701873E+01 0.  0.
     999903    2    3    3    0    0  0.16328139071E-01 -0.48242869258E-01  0.11891493146E+00  0.13092731440E+00  0.20179647455E-01 0.  0.
         14    1    1    2    0    0 -0.20515758324E-01  0.12967282577E-01  0.17437314618E-03  0.24270911871E-01  0.00000000000E+00 0.  1.
     999901    1    3    3    0    0  0.41876192534E-02  0.35275586681E-01 -0.11908930461E+00  0.88873177373E+00  0.88000000000E+00 0. -1.
        -11    1    4    4    0    0  0.10970588628E-01 -0.13126916947E-01  0.57329469247E-01  0.59829749528E-01  0.51100000000E-03 0. -1.
         11    1    4    4    0    0  0.53575504432E-02 -0.35115952310E-01  0.61585462211E-01  0.71097564868E-01  0.51100000000E-03 0.  1.
</event>
<event>
 8    1  0.1042301E+005  0.1043930E+01  0.7957747E-01            NaN
         13   -1    0    0    0    0  0.00000000000E+00  0.00000000000E+00  0.74505805969E-08  0.10566000000E+00  0.10566000000E+00 0.  1.
     999900   -1    0    0    0    0 -0.00000000000E+00 -0.00000000000E+00 -0.74505805969E-08  0.93827000000E+00  0.93827000000E+00 0. -1.
     999902    2    1    2    0    0 -0.23913270013E-02 -0.13608674826E-01 -0.18832055192E-01  0.10205727575E+01  0.10203054408E+01 0.  0.
     999903    2    3    3    0    0  0.78211166340E-01  0.77932586385E-02  0.99973555054E-01  0.12868174524E+00  0.19661089178E-01 0.  0.
         14    1    1    2    0    0  0.23913270013E-02  0.13608674826E-01  0.18832055192E-01  0.23357242519E-01  0.00000000000E+00 0.  1.
     999901    1    3    3    0    0 -0.80602493341E-01 -0.21401933465E-01 -0.11880561025E+00  0.89189101224E+00  0.88000000000E+00 0. -1.
        -11    1    4    4    0    0  0.22486980130E-01  0.61105036639E-02  0.17563735505E-01  0.29184729847E-01  0.51100000000E-03 0.  1.
         11    1    4    4    0    0  0.55724186210E-01  0.16827549746E-02  0.82409819550E-01  0.99497015394E-01  0.51100000000E-03 0. -1.
</event>
<event>
 8    1  0.1042301E+005  0.1043930E+01  0.7957747E-01            NaN
         13   -1    0    0    0    0  0.00000000000E+00  0.00000000000E+00  0.74505805969E-08  0.10566000000E+00  0.10566000000E+00 0.  1.
     999900   -1    0    0    0    0 -0.00000000000E+00 -0.00000000000E+00 -0.74505805969E-08  0.93827000000E+00  0.93827000000E+00 0.  1.
     999902    2    1    2    0    0  0.95785973365E-02 -0.16930257450E-01 -0.13644908473E-01  0.10201693882E+01  0.10198926483E+01 0.  0.
     999903    2    3    3    0    0 -0.71637585510E-01  0.38812450642E-01 -0.99777899796E-01  0.13049404854E+00  0.20849878530E-01 0.  0.
         14    1    1    2    0    0 -0.95785973365E-02  0.16930257450E-01  0.13644908473E-01  0.23760611766E-01  0.00000000000E+00 0.  1.
     999901    1    3    3    0    0  0.81216182846E-01 -0.55742708092E-01  0.86132991323E-01  0.88967533969E+00  0.88000000000E+00 0. -1.
        -11    1    4    4    0    0 -0.60987327547E-01  0.26200720647E-01 -0.87914723815E-01  0.11015984599E+00  0.51100000000E-03 0.  1.
         11    1    4    4    0    0 -0.10650257963E-01  0.12611729995E-01 -0.11863175981E-01  0.20334202553E-01  0.51100000000E-03 0. -1.
</event>
<event>
 8    1  0.1042301E+005  0.1043930E+01  0.7957747E-01            NaN
         13   -1    0    0    0    0  0.00000000000E+00  0.00000000000E+00  0.74505805969E-08  0.10566000000E+00  0.10566000000E+00 0. -1.
     999900   -1    0    0    0    0 -0.00000000000E+00 -0.00000000000E+00 -0.74505805969E-08  0.93827000000E+00  0.93827000000E+00 0. -1.
     999902    2    1    2    0    0 -0.67421413416E-02  0.14164182243E-01 -0.17349608977E-01  0.10205400564E+01  0.10202719820E+01 0.  0.
     999903    2    3    3    0    0  0.57877246832E-01  0.10299803407E+00 -0.58321694366E-01  0.13276427937E+00  0.16326760827E-01 0.  0.
         14    1    1    2    0    0  0.67421413416E-02 -0.14164182243E-01  0.17349608977E-01  0.23389943569E-01  0.00000000000E+00 0.  1.
     999901    1    3    3    0    0 -0.64619388173E-01 -0.88833851828E-01  0.40972085389E-01  0.88777577706E+00  0.88000000000E+00 0. -1.
        -11    1    4    4    0    0  0.20935507741E-01  0.42057428174E-01 -0.14791165035E-01  0.49256090314E-01  0.51100000000E-03 0.  1.
         11    1    4    4    0    0  0.36941739091E-01  0.60940605897E-01 -0.43530529331E-01  0.83508189054E-01  0.51100000000E-03 0. -1.
</event>
<event>
 8    1  0.1042301E+005  0.1043930E+01  0.7957747E-01            NaN
         13   -1    0    0    0    0  0.00000000000E+00  0.00000000000E+00  0.74505805969E-08  0.10566000000E+00  0.10566000000E+00 0.  1.
     999900   -1    0    0    0    0 -0.00000000000E+00 -0.00000000000E+00 -0.74505805969E-08  0.93827000000E+00  0.93827000000E+00 0. -1.
     999902    2    1    2    0    0  0.25725816685E-02  0.20821644071E-01  0.10193582852E-01  0.10206047311E+01  0.10203381542E+01 0.  0.
     999903    2    3    3    0    0 -0.20854215228E-01 -0.10921856681E+00  0.62081554780E-01  0.12922847334E+00  0.21960993795E-01 0.  0.
         14    1    1    2    0    0 -0.25725816685E-02 -0.20821644071E-01 -0.10193582852E-01  0.23325268908E-01  0.00000000000E+00 0. -1.
     999901    1    3    3    0    0  0.23426796896E-01  0.13004021088E+00 -0.51887971928E-01  0.89137625776E+00  0.88000000000E+00 0. -1.
        -11    1    4    4    0    0 -0.20307030357E-01 -0.94256541220E-01  0.44688291554E-01  0.10627311780E+00  0.51100000000E-03 0.  1.
         11    1    4    4    0    0 -0.54718487061E-03 -0.14962025589E-01  0.17393263226E-01  0.22955355533E-01  0.51100000000E-03 0. -1.
</event>
<event>
 8    1  0.1042301E+005  0.1043930E+01  0.7957747E-01            NaN
         13   -1    0    0    0    0  0.00000000000E+00  0.00000000000E+00  0.74505805969E-08  0.10566000000E+00  0.10566000000E+00 0. -1.
     999900   -1    0    0    0    0 -0.00000000000E+00 -0.00000000000E+00 -0.74505805969E-08  0.93827000000E+00  0.93827000000E+00 0.  1.
     999902    2    1    2    0    0  0.14002912769E-01 -0.49409102790E-02  0.18922790650E-01  0.10198765976E+01  0.10195929130E+01 0.  0.
     999903    2    3    3    0    0 -0.88386326496E-01 -0.56240798781E-01 -0.70866251285E-01  0.12792519371E+00  0.19174447966E-01 0.  0.
         14    1    1    2    0    0 -0.14002912769E-01  0.49409102790E-02 -0.18922790650E-01  0.24053402387E-01  0.00000000000E+00 0.  1.
     999901    1    3    3    0    0  0.10238923927E+00  0.51299888502E-01  0.89789041936E-01  0.89195140391E+00  0.88000000000E+00 0. -1.
        -11    1    4    4    0    0 -0.25819977021E-01 -0.19896227245E-01 -0.32464377136E-01  0.46007912100E-01  0.51100000000E-03 0.  1.
         11    1    4    4    0    0 -0.62566349475E-01 -0.36344571536E-01 -0.38401874149E-01  0.81917281607E-01  0.51100000000E-03 0. -1.
</event>
<event>
 8    1  0.1042301E+005  0.1043930E+01  0.7957747E-01            NaN
         13   -1    0    0    0    0  0.00000000000E+00  0.00000000000E+00  0.74505805969E-08  0.10566000000E+00  0.10566000000E+00 0. -1.
     999900   -1    0    0    0    0 -0.00000000000E+00 -0.00000000000E+00 -0.74505805969E-08  0.93827000000E+00  0.93827000000E+00 0. -1.
     999902    2    1    2    0    0 -0.12922725339E-01 -0.15072133805E-01 -0.11744096025E-01  0.10208629274E+01  0.10206022862E+01 0.  0.
     999903    2    3    3    0    0 -0.26890456048E-01  0.48122892680E-01 -0.11832032798E+00  0.13207318729E+00  0.20117588369E-01 0.  0.
         14    1    1    2    0    0  0.12922725339E-01  0.15072133805E-01  0.11744096025E-01  0.23067072616E-01  0.00000000000E+00 0.  1.
     999901    1    3    3    0    0  0.13967730709E-01 -0.63195026485E-01  0.10657623196E+00  0.88878974009E+00  0.88000000000E+00 0.  1.
        -11    1    4    4    0    0 -0.24469894840E-02  0.92782252224E-02 -0.77160690787E-02  0.12323638417E-01  0.51100000000E-03 0. -1.
         11    1    4    4    0    0 -0.24443466564E-01  0.38844667458E-01 -0.11060425890E+00  0.11974954888E+00  0.51100000000E-03 0.  1.
</event>
<event>
 8    1  0.1042301E+005  0.1043930E+01  0.7957747E-01            NaN
         13   -1    0    0    0    0  0.00000000000E+00  0.00000000000E+00  0.74505805969E-08  0.10566000000E+00  0.10566000000E+00 0.  1.
     999900   -1    0    0    0    0 -0.00000000000E+00 -0.00000000000E+00 -0.74505805969E-08  0.93827000000E+00  0.93827000000E+00 0. -1.
     999902    2    1    2    0    0 -0.10541516006E-01  0.61255822998E-02 -0.17019196531E-01  0.10229943995E+01  0.10227801533E+01 0.  0.
     999903    2    3    3    0    0  0.12091930812E+00  0.47862983468E-01 -0.13161587175E-01  0.13224255970E+00  0.20062974756E-01 0.  0.
         14    1    1    2    0    0  0.10541516006E-01 -0.61255822998E-02  0.17019196531E-01  0.20935600511E-01  0.00000000000E+00 0.  1.
     999901    1    3    3    0    0 -0.13146082413E+00 -0.41737401168E-01 -0.38576093554E-02  0.89075183979E+00  0.88000000000E+00 0. -1.
        -11    1    4    4    0    0  0.26869892600E-01  0.12784124845E-01 -0.11335750006E-01  0.31846276480E-01  0.51100000000E-03 0. -1.
         11    1    4    4    0    0  0.94049415521E-01  0.35078858623E-01 -0.18258371690E-02  0.10039628322E+00  0.51100000000E-03 0.  1.
</event>
<event>
 8    1  0.1042301E+005  0.1043930E+01  0.7957747E-01            NaN
         13   -1    0    0    0    0  0.00000000000E+00  0.00000000000E+00  0.74505805969E-08  0.10566000000E+00  0.10566000000E+00 0.  1.
     999900   -1    0    0    0    0 -0.00000000000E+00 -0.00000000000E+00 -0.74505805969E-08  0.93827000000E+00  0.93827000000E+00 0.  1.
     999902    2    1    2    0    0 -0.21384137671E-01  0.70394671658E-02 -0.31257946168E-02  0.10212010310E+01  0.10209480592E+01 0.  0.
     999903    2    3    3    0    0 -0.72191560082E-02 -0.12510295278E+00 -0.31154773062E-01  0.13078096745E+00  0.20740698033E-01 0.  0.
         14    1    1    2    0    0  0.21384137671E-01 -0.70394671658E-02  0.31257946168E-02  0.22728969046E-01  0.00000000000E+00 0. -1.
     999901    1    3    3    0    0 -0.14164981663E-01  0.13214241995E+00  0.28028978445E-01  0.89042006350E+00  0.88000000000E+00 0.  1.
        -11    1    4    4    0    0  0.28077289410E-02 -0.71639653402E-01 -0.98938611696E-02  0.72375913751E-01  0.51100000000E-03 0.  1.
         11    1    4    4    0    0 -0.10026884949E-01 -0.53463299379E-01 -0.21260911892E-01  0.58405053700E-01  0.51100000000E-03 0. -1.
</event>
<event>
 8    1  0.1042301E+005  0.1043930E+01  0.7957747E-01            NaN
         13   -1    0    0    0    0  0.00000000000E+00  0.00000000000E+00  0.74505805969E-08  0.10566000000E+00  0.10566000000E+00 0.  1.
     999900   -1    0    0    0    0 -0.00000000000E+00 -0.00000000000E+00 -0.74505805969E-08  0.93827000000E+00  0.93827000000E+00 0. -1.
     999902    2    1    2    0    0 -0.83929092148E-02  0.20394906807E-01  0.11994946734E-01  0.10188247835E+01  0.10185154233E+01 0.  0.
     999903    2    3    3    0    0 -0.91674007662E-01 -0.86389895989E-01  0.15388600824E-01  0.12845954812E+00  0.19942634195E-01 0.  0.
         14    1    1    2    0    0  0.83929092148E-02 -0.20394906807E-01 -0.11994946734E-01  0.25105216508E-01  0.00000000000E+00 0. -1.
     999901    1    3    3    0    0  0.83281098447E-01  0.10678480280E+00 -0.33936540896E-02  0.89036523537E+00  0.88000000000E+00 0.  1.
        -11    1    4    4    0    0 -0.76628156045E-01 -0.62090828878E-01  0.15722441838E-01  0.99872927403E-01  0.51100000000E-03 0.  1.
         11    1    4    4    0    0 -0.15045851617E-01 -0.24299067111E-01 -0.33384101398E-03  0.28586620719E-01  0.51100000000E-03 0. -1.
</event>
<event>
 8    1  0.1042301E+005  0.1043930E+01  0.7957747E-01            NaN
         13   -1    0    0    0    0  0.00000000000E+00  0.00000000000E+00  0.74505805969E-08  0.10566000000E+00  0.10566000000E+00 0. -1.
     999900   -1    0    0    0    0 -0.00000000000E+00 -0.00000000000E+00 -0.74505805969E-08  0.93827000000E+00  0.93827000000E+00 0.  1.
     999902    2    1    2    0    0 -0.16572022509E-01 -0.16126462095E-01  0.82836553909E-03  0.10207917006E+01  0.10205294288E+01 0.  0.
     999903    2    3    3    0    0 -0.38790492154E-01 -0.65317296947E-01  0.10710604875E+00  0.13275547128E+00  0.19525826848E-01 0.  0.
         14    1    1    2    0    0  0.16572022509E-01  0.16126462095E-01 -0.82836553909E-03  0.23138299402E-01  0.00000000000E+00 0. -1.
     999901    1    3    3    0    0  0.22218469645E-01  0.49190834852E-01 -0.10627768321E+00  0.88803622932E+00  0.88000000000E+00 0.  1.
        -11    1    4    4    0    0 -0.36017643378E-01 -0.43924045772E-01  0.79768227487E-01  0.97927645069E-01  0.51100000000E-03 0. -1.
         11    1    4    4    0    0 -0.27728487764E-02 -0.21393251176E-01  0.27337821266E-01  0.34827826214E-01  0.51100000000E-03 0.  1.
</event>
<event>
 8    1  0.1042301E+005  0.1043930E+01  0.7957747E-01            NaN
         13   -1    0    0    0    0  0.00000000000E+00  0.00000000000E+00  0.74505805969E-08  0.10566000000E+00  0.10566000000E+00 0. -1.
     999900   -1    0    0    0    0 -0.00000000000E+00 -0.00000000000E+00 -0.74505805969E-08  0.93827000000E+00  0.93827000000E+00 0.  1.
     999902    2    1    2    0    0  0.22045094352E-02  0.18343214709E-01  0.15405817664E-01  0.10198743852E+01  0.10195906477E+01 0.  0.
     999903    2    3    3    0    0 -0.12711435096E+00  0.20227290028E-01 -0.11738205946E-03  0.13028577960E+00  0.20178431715E-01 0.  0.
         14    1    1    2    0    0 -0.22045094352E-02 -0.18343214709E-01 -0.15405817664E-01  0.24055614846E-01  0.00000000000E+00 0. -1.
     999901    1    3    3    0    0  0.12931886040E+00 -0.18840753188E-02  0.15523199723E-01  0.88958860555E+00  0.88000000000E+00 0. -1.
        -11    1    4    4    0    0 -0.93008490193E-01  0.75130233206E-02 -0.55627707878E-02  0.93478501845E-01  0.51100000000E-03 0. -1.
         11    1    4    4    0    0 -0.34105860768E-01  0.12714266708E-01  0.54453887284E-02  0.36807277759E-01  0.51100000000E-03 0.  1.
</event>
<event>
 8    1  0.1042301E+005  0.1043930E+01  0.7957747E-01            NaN
         13   -1    0    0    0    0  0.00000000000E+00  0.00000000000E+00  0.74505805969E-08  0.10566000000E+00  0.10566000000E+00 0. -1.
     999900   -1    0    0    0    0 -0.00000000000E+00 -0.00000000000E+00 -0.74505805969E-08  0.93827000000E+00  0.93827000000E+00 0. -1.
     999902    2    1    2    0    0 -0.16774141232E-01 -0.13267115852E-01 -0.42060310752E-02  0.10221336959E+01  0.10219012738E+01 0.  0.
     999903    2    3    3    0    0  0.96496434943E-01  0.29738488561E-01  0.79200402384E-01  0.12992501030E+00  0.20294455012E-01 0.  0.
         14    1    1    2    0    0  0.16774141232E-01  0.13267115852E-01  0.42060310752E-02  0.21796304148E-01  0.00000000000E+00 0. -1.
     999901    1    3    3    0    0 -0.11327057617E+00 -0.43005604414E-01 -0.83406433459E-01  0.89220868556E+00  0.88000000000E+00 0. -1.
        -11    1    4    4    0    0  0.48069623824E-01  0.19339715437E-01  0.52022354350E-01  0.73425471064E-01  0.51100000000E-03 0. -1.
         11    1    4    4    0    0  0.48426811119E-01  0.10398773124E-01  0.27178048034E-01  0.56499539233E-01  0.51100000000E-03 0.  1.
</event>
<event>
 8    1  0.1042301E+005  0.1043930E+01  0.7957747E-01            NaN
         13   -1    0    0    0    0  0.00000000000E+00  0.00000000000E+00  0.74505805969E-08  0.10566000000E+00  0.10566000000E+00 0.  1.
     999900   -1    0    0    0    0 -0.00000000000E+00 -0.00000000000E+00 -0.74505805969E-08  0.93827000000E+00  0.93827000000E+00 0. -1.
     999902    2    1    2    0    0 -0.14186881727E-01  0.10596304560E-01 -0.15975485263E-01  0.10200811968E+01  0.10198023743E+01 0.  0.
     999903    2    3    3    0    0 -0.77160680846E-01 -0.59146813589E-01 -0.87384391884E-01  0.13220224457E+00  0.19730314220E-01 0.  0.
         14    1    1    2    0    0  0.14186881727E-01 -0.10596304560E-01  0.15975485263E-01  0.23848803175E-01  0.00000000000E+00 0.  1.
     999901    1    3    3    0    0  0.62973799119E-01  0.69743118149E-01  0.71408906621E-01  0.88787895225E+00  0.88000000000E+00 0.  1.
        -11    1    4    4    0    0 -0.65099612132E-01 -0.42422854531E-01 -0.75770505678E-01  0.10853151035E+00  0.51100000000E-03 0. -1.
         11    1    4    4    0    0 -0.12061068715E-01 -0.16723959058E-01 -0.11613886206E-01  0.23670734228E-01  0.51100000000E-03 0.  1.
</event>
<event>
 8    1  0.1042301E+005  0.1043930E+01  0.7957747E-01            NaN
         13   -1    0    0    0    0  0.00000000000E+00  0.00000000000E+00  0.74505805969E-08  0.10566000000E+00  0.10566000000E+00 0.  1.
     999900   -1    0    0    0    0 -0.00000000000E+00 -0.00000000000E+00 -0.74505805969E-08  0.93827000000E+00  0.93827000000E+00 0. -1.
     999902    2    1    2    0    0 -0.26698380109E-03 -0.24165025066E-01  0.60611641398E-02  0.10190149959E+01  0.10187103634E+01 0.  0.
     999903    2    3    3    0    0  0.10678428454E+00 -0.71079583441E-01  0.15886226104E-01  0.13123265680E+00  0.22681433472E-01 0.  0.
         14    1    1    2    0    0  0.26698380109E-03  0.24165025066E-01 -0.60611641398E-02  0.24915004064E-01  0.00000000000E+00 0.  1.
     999901    1    3    3    0    0 -0.10705126834E+00  0.46914558375E-01 -0.98250619640E-02  0.88778233914E+00  0.88000000000E+00 0. -1.
        -11    1    4    4    0    0  0.18159391005E-01 -0.19021430186E-01  0.10455258038E-01  0.28304625587E-01  0.51100000000E-03 0.  1.
         11    1    4    4    0    0  0.88624893533E-01 -0.52058153255E-01  0.54309680658E-02  0.10292803121E+00  0.51100000000E-03 0. -1.
</event>
<event>
 8    1  0.1042301E+005  0.1043930E+01  0.7957747E-01            NaN
         13   -1    0    0    0    0  0.00000000000E+00  0.00000000000E+00  0.74505805969E-08  0.10566000000E+00  0.10566000000E+00 0.  1.
     999900   -1    0    0    0    0 -0.00000000000E+00 -0.00000000000E+00 -0.74505805969E-08  0.93827000000E+00  0.93827000000E+00 0. -1.
     999902    2    1    2    0    0 -0.13180010712E-02 -0.10441956886E-01 -0.22922267064E-01  0.10187069566E+01  0.10183946492E+01 0.  0.
     999903    2    3    3    0    0  0.91253599756E-01 -0.93903627267E-02  0.85747162296E-01  0.12720280519E+00  0.20312051225E-01 0.  0.
         14    1    1    2    0    0  0.13180010712E-02  0.10441956886E-01  0.22922267064E-01  0.25223043389E-01  0.00000000000E+00 0.  1.
     999901    1    3    3    0    0 -0.92571600827E-01 -0.10515941596E-02 -0.10866942936E+00  0.89150415142E+00  0.88000000000E+00 0.  1.
        -11    1    4    4    0    0  0.34186220034E-01 -0.17888671117E-02  0.19373455041E-01  0.39338143919E-01  0.51100000000E-03 0. -1.
         11    1    4    4    0    0  0.57067379722E-01 -0.76014956150E-02  0.66373707255E-01  0.87864661268E-01  0.51100000000E-03 0.  1.
</event>
<event>
 8    1  0.1042301E+005  0.1043930E+01  0.7957747E-01            NaN
         13   -1    0    0    0    0  0.00000000000E+00  0.00000000000E+00  0.74505805969E-08  0.10566000000E+00  0.10566000000E+00 0.  1.
     999900   -1    0    0    0    0 -0.00000000000E+00 -0.00000000000E+00 -0.74505805969E-08  0.93827000000E+00  0.93827000000E+00 0.  1.
     999902    2    1    2    0    0 -0.16670122683E-01 -0.52058682170E-03  0.17276161142E-01  0.10199168839E+01  0.10196341600E+01 0.  0.
     999903    2    3    3    0    0  0.54225840929E-01 -0.36825046685E-01 -0.10766909175E+00  0.12752931805E+00  0.19353753028E-01 0.  0.
         14    1    1    2    0    0  0.16670122683E-01  0.52058682170E-03 -0.17276161142E-01  0.24013116097E-01  0.00000000000E+00 0. -1.
     999901    1    3    3    0    0 -0.70895963612E-01  0.36304459863E-01  0.12494525290E+00  0.89238756585E+00  0.88000000000E+00 0. -1.
        -11    1    4    4    0    0  0.46887662613E-01 -0.24698599030E-01 -0.74238633910E-01  0.91214634709E-01  0.51100000000E-03 0. -1.
         11    1    4    4    0    0  0.73381783159E-02 -0.12126447655E-01 -0.33430457843E-01  0.36314683343E-01  0.51100000000E-03 0.  1.
</event>
<event>
 8    1  0.1042301E+005  0.1043930E+01  0.7957747E-01            NaN
         13   -1    0    0    0    0  0.00000000000E+00  0.00000000000E+00  0.74505805969E-08  0.10566000000E+00  0.10566000000E+00 0.  1.
     999900   -1    0    0    0    0 -0.00000000000E+00 -0.00000000000E+00 -0.74505805969E-08  0.93827000000E+00  0.93827000000E+00 0. -1.
     999902    2    1    2    0    0  0.47432990997E-02 -0.10767144199E-01  0.20666768529E-01  0.10201487973E+01  0.10198715718E+01 0.  0.
     999903    2    3    3    0    0  0.34531811719E-01 -0.12443666099E+00  0.19890497298E-01  0.13233760277E+00  0.20992393987E-01 0.  0.
         14    1    1    2    0    0 -0.47432990997E-02  0.10767144199E-01 -0.20666768529E-01  0.23781202703E-01  0.00000000000E+00 0. -1.
     999901    1    3    3    0    0 -0.29788512619E-01  0.11366951679E+00  0.77627123102E-03  0.88781119453E+00  0.88000000000E+00 0. -1.
        -11    1    4    4    0    0  0.16239723404E-01 -0.27127508462E-01  0.17078811910E-02  0.31667148762E-01  0.51100000000E-03 0.  1.
         11    1    4    4    0    0  0.18292088315E-01 -0.97309152528E-01  0.18182616107E-01  0.10067045401E+00  0.51100000000E-03 0. -1.
</event>
<event>
 8    1  0.1042301E+005  0.1043930E+01  0.7957747E-01            NaN
         13   -1    0    0    0    0  0.00000000000E+00  0.00000000000E+00  0.74505805969E-08  0.10566000000E+00  0.10566000000E+00 0.  1.
     999900   -1    0    0    0    0 -0.00000000000E+00 -0.00000000000E+00 -0.74505805969E-08  0.93827000000E+00  0.93827000000E+00 0.  1.
     999902    2    1    2    0    0  0.56021450549E-02 -0.23642818858E-01  0.64243764739E-02  0.10187975603E+01  0.10184875205E+01 0.  0.
     999903    2    3    3    0    0  0.47964926106E-01 -0.82257614054E-01  0.89167562693E-01  0.13196232514E+00  0.19906074796E-01 0.  0.
         14    1    1    2    0    0 -0.56021450549E-02  0.23642818858E-01 -0.64243764739E-02  0.25132439711E-01  0.00000000000E+00 0. -1.
     999901    1    3    3    0    0 -0.42362781051E-01  0.58614795196E-01 -0.82743186219E-01  0.88683523515E+00  0.88000000000E+00 0. -1.
        -11    1    4    4    0    0  0.77986314121E-02 -0.28579191240E-01  0.34329922047E-01  0.45347475041E-01  0.51100000000E-03 0. -1.
         11    1    4    4    0    0  0.40166294694E-01 -0.53678422814E-01  0.54837640647E-01  0.86614850100E-01  0.51100000000E-03 0.  1.
</event>
<event>
 8    1  0.1042301E+005  0.1043930E+01  0.7957747E-01            NaN
         13   -1    0    0    0    0  0.00000000000E+00  0.00000000000E+00  0.74505805969E-08  0.10566000000E+00  0.10566000000E+00 0. -1.
     999900   -1    0    0    0    0 -0.00000000000E+00 -0.00000000000E+00 -0.74505805969E-08  0.93827000000E+00  0.93827000000E+00 0. -1.
     999902    2    1    2    0    0 -0.52984401465E-02  0.29152198853E-02 -0.22882825330E-01  0.10202615469E+01  0.10199869747E+01 0.  0.
     999903    2    3    3    0    0  0.60944073843E-01  0.84845217993E-01  0.72310178520E-01  0.12887930389E+00  0.21638435730E-01 0.  0.
         14    1    1    2    0    0  0.52984401465E-02 -0.29152198853E-02  0.22882825330E-01  0.23668453056E-01  0.00000000000E+00 0. -1.
     999901    1    3    3    0    0 -0.66242513989E-01 -0.81929998108E-01 -0.95193003850E-01  0.89138224305E+00  0.88000000000E+00 0. -1.
        -11    1    4    4    0    0  0.40831360544E-01  0.40288016154E-01  0.44775596770E-01  0.72769770074E-01  0.51100000000E-03 0.  1.
         11    1    4    4    0    0  0.20112713298E-01  0.44557201839E-01  0.27534581750E-01  0.56109533816E-01  0.51100000000E-03 0. -1.
</event>
<event>
 8    1  0.1042301E+005  0.1043930E+01  0.7957747E-01            NaN
         13   -1    0    0    0    0  0.00000000000E+00  0.00000000000E+00  0.74505805969E-08  0.10566000000E+00  0.10566000000E+00 0.  1.
     999900   -1    0    0    0    0 -0.00000000000E+00 -0.00000000000E+00 -0.74505805969E-08  0.93827000000E+00  0.93827000000E+00 0.  1.
     999902    2    1    2    0    0  0.44011207839E-02  0.17264595856E-02 -0.23021255140E-01  0.10204283253E+01  0.10201576536E+01 0.  0.
     999903    2    3    3    0    0  0.10116930503E+00  0.77047306657E-01  0.23052041713E-01  0.13073171397E+00  0.19694381571E-01 0.  0.
         14    1    1    2    0    0 -0.44011207839E-02 -0.17264595856E-02  0.23021255140E-01  0.23501674729E-01  0.00000000000E+00 0.  1.
     999901    1    3    3    0    0 -0.96768184247E-01 -0.75320847072E-01 -0.46073296853E-01  0.88969661131E+00  0.88000000000E+00 0.  1.
        -11    1    4    4    0    0  0.26689164060E-01  0.31835144307E-01  0.80902960525E-02  0.42326137345E-01  0.51100000000E-03 0. -1.
         11    1    4    4    0    0  0.74480140971E-01  0.45212162351E-01  0.14961745660E-01  0.88405576621E-01  0.51100000000E-03 0.  1.
</event>
<event>
 8    1  0.1042301E+005  0.1043930E+01  0.7957747E-01            NaN
         13   -1    0    0    0    0  0.00000000000E+00  0.00000000000E+00  0.74505805969E-08  0.10566000000E+00  0.10566000000E+00 0. -1.
     999900   -1    0    0    0    0 -0.00000000000E+00 -0.00000000000E+00 -0.74505805969E-08  0.93827000000E+00  0.93827000000E+00 0. -1.
     999902    2    1    2    0    0 -0.44577979799E-02 -0.23914242663E-01 -0.35473944111E-02  0.10193465305E+01  0.10190500490E+01 0.  0.
     999903    2    3    3    0    0  0.82066241208E-01 -0.10092398939E+00  0.67660120533E-02  0.13169610563E+00  0.19431050872E-01 0.  0.
         14    1    1    2    0    0  0.44577979799E-02  0.23914242663E-01  0.35473944111E-02  0.24583469488E-01  0.00000000000E+00 0. -1.
     999901    1    3    3    0    0 -0.86524039188E-01  0.77009746724E-01 -0.10313406464E-01  0.88765042489E+00  0.88000000000E+00 0.  1.
        -11    1    4    4    0    0  0.37733509037E-01 -0.37670505306E-01 -0.50242653950E-02  0.53557343455E-01  0.51100000000E-03 0. -1.
         11    1    4    4    0    0  0.44332732171E-01 -0.63253484081E-01  0.11790277448E-01  0.78138762170E-01  0.51100000000E-03 0.  1.
</event>
<event>
 8    1  0.1042301E+005  0.1043930E+01  0.7957747E-01            NaN
         13   -1    0    0    0    0  0.00000000000E+00  0.00000000000E+00  0.74505805969E-08  0.10566000000E+00  0.10566000000E+00 0. -1.
     999900   -1    0    0    0    0 -0.00000000000E+00 -0.00000000000E+00 -0.74505805969E-08  0.93827000000E+00  0.93827000000E+00 0. -1.
     999902    2    1    2    0    0  0.91209936521E-02 -0.17000763584E-01 -0.16086534364E-01  0.10188103846E+01  0.10185006651E+01 0.  0.
     999903    2    3    3    0    0 -0.97805056129E-01 -0.56311407650E-01  0.57762730782E-01  0.12839911966E+00  0.20322333171E-01 0.  0.
         14    1    1    2    0    0 -0.91209936521E-02  0.17000763584E-01  0.16086534364E-01  0.25119615353E-01  0.00000000000E+00 0. -1.
     999901    1    3    3    0    0  0.10692604978E+00  0.39310644066E-01 -0.73849265146E-01  0.89041126499E+00  0.88000000000E+00 0.  1.
        -11    1    4    4    0    0 -0.48303814088E-01 -0.31773527751E-01  0.18829334208E-01  0.60808062533E-01  0.51100000000E-03 0.  1.
         11    1    4    4    0    0 -0.49501242040E-01 -0.24537879898E-01  0.38933396573E-01  0.67591057124E-01  0.51100000000E-03 0. -1.
</event>
<event>
 8    1  0.1042301E+005  0.1043930E+01  0.7957747E-01            NaN
         13   -1    0    0    0    0  0.00000000000E+00  0.00000000000E+00  0.74505805969E-08  0.10566000000E+00  0.10566000000E+00 0. -1.
     999900   -1    0    0    0    0 -0.00000000000E+00 -0.00000000000E+00 -0.74505805969E-08  0.93827000000E+00  0.93827000000E+00 0. -1.
     999902    2    1    2    0    0 -0.11770099855E-02 -0.18742738496E-01  0.12280755122E-01  0.10214913604E+01  0.10212448810E+01 0.  0.
     999903    2    3    3    0    0  0.12396597505E+00 -0.37699826453E-01 -0.13971779160E-01  0.13204808881E+00  0.21275508468E-01 0.  0.
         14    1    1    2    0    0  0.11770099855E-02  0.18742738496E-01 -0.12280755122E-01  0.22438639558E-01  0.00000000000E+00 0.  1.
     999901    1    3    3    0    0 -0.12514298504E+00  0.18957087956E-01  0.26252534282E-01  0.88944327163E+00  0.88000000000E+00 0. -1.
        -11    1    4    4    0    0  0.70180628368E-01 -0.13735839377E-01 -0.15369246698E-01  0.73146898407E-01  0.51100000000E-03 0.  1.
         11    1    4    4    0    0  0.53785346687E-01 -0.23963987075E-01  0.13974675382E-02  0.58901190407E-01  0.51100000000E-03 0. -1.
</event>
<event>
 8    1  0.1042301E+005  0.1043930E+01  0.7957747E-01            NaN
         13   -1    0    0    0    0  0.00000000000E+00  0.00000000000E+00  0.74505805969E-08  0.10566000000E+00  0.10566000000E+00 0.  1.
     999900   -1    0    0    0    0 -0.00000000000E+00 -0.00000000000E+00 -0.74505805969E-08  0.93827000000E+00  0.93827000000E+00 0.  1.
     999902    2    1    2    0    0 -0.13306978057E-01 -0.32152661803E-02 -0.19869359359E-01  0.10198010746E+01  0.10195155843E+01 0.  0.
     999903    2    3    3    0    0  0.10551120404E+00 -0.70666290097E-01 -0.13156205567E-01  0.12923245426E+00  0.20040028856E-01 0.  0.
         14    1    1    2    0    0  0.13306978057E-01  0.32152661803E-02  0.19869359359E-01  0.24128925441E-01  0.00000000000E+00 0.  1.
     999901    1    3    3    0    0 -0.11881818209E+00  0.67451023917E-01 -0.67131537922E-02  0.89056862030E+00  0.88000000000E+00 0. -1.
        -11    1    4    4    0    0  0.43856246504E-01 -0.28139249807E-01  0.44196624108E-02  0.52297057985E-01  0.51100000000E-03 0. -1.
         11    1    4    4    0    0  0.61654957532E-01 -0.42527040290E-01 -0.17575867977E-01  0.76935396277E-01  0.51100000000E-03 0.  1.
</event>
<event>
 8    1  0.1042301E+005  0.1043930E+01  0.7957747E-01            NaN
         13   -1    0    0    0    0  0.00000000000E+00  0.00000000000E+00  0.74505805969E-08  0.10566000000E+00  0.10566000000E+00 0.  1.
     999900   -1    0    0    0    0 -0.00000000000E+00 -0.00000000000E+00 -0.74505805969E-08  0.93827000000E+00  0.93827000000E+00 0.  1.
     999902    2    1    2    0    0  0.23276064382E-01  0.44664304612E-03 -0.33536637009E-02  0.10204093341E+01  0.10201382198E+01 0.  0.
     999903    2    3    3    0    0  0.11080552517E+00 -0.63080086645E-01  0.32444487301E-01  0.13306579326E+00  0.19922320160E-01 0.  0.
         14    1    1    2    0    0 -0.23276064382E-01 -0.44664304612E-03  0.33536637009E-02  0.23520665878E-01  0.00000000000E+00 0. -1.
     999901    1    3    3    0    0 -0.87529460789E-01  0.63526729691E-01 -0.35798151002E-01  0.88734354086E+00  0.88000000000E+00 0.  1.
        -11    1    4    4    0    0  0.77547671577E-01 -0.52777595027E-01  0.18819145472E-01  0.95674120122E-01  0.51100000000E-03 0. -1.
         11    1    4    4    0    0  0.33257853594E-01 -0.10302491618E-01  0.13625341829E-01  0.37391673139E-01  0.51100000000E-03 0.  1.
</event>
<event>
 8    1  0.1042301E+005  0.1043930E+01  0.7957747E-01            NaN
         13   -1    0    0    0    0  0.00000000000E+00  0.00000000000E+00  0.74505805969E-08  0.10566000000E+00  0.10566000000E+00 0. -1.
     999900   -1    0    0    0    0 -0.00000000000E+00 -0.00000000000E+00 -0.74505805969E-08  0.93827000000E+00  0.93827000000E+00 0. -1.
     999902    2    1    2    0    0 -0.22833486669E-01 -0.58191398114E-02  0.15875619727E-02  0.10203132505E+01  0.10200398906E+01 0.  0.
     999903    2    3    3    0    0 -0.86064676593E-01 -0.96155654584E-01  0.26122766242E-01  0.13309239556E+00  0.19446037487E-01 0.  0.
         14    1    1    2    0    0  0.22833486669E-01  0.58191398114E-02 -0.15875619727E-02  0.23616749451E-01  0.00000000000E+00 0.  1.
     999901    1    3    3    0    0  0.63231189924E-01  0.90336514773E-01 -0.24535204269E-01  0.88722085499E+00  0.88000000000E+00 0.  1.
        -11    1    4    4    0    0 -0.76213209268E-01 -0.80913079208E-01  0.15990250181E-01  0.11230017309E+00  0.51100000000E-03 0.  1.
         11    1    4    4    0    0 -0.98514673255E-02 -0.15242575376E-01  0.10132516060E-01  0.20792222471E-01  0.51100000000E-03 0. -1.
</event>
<event>
 8    1  0.1042301E+005  0.1043930E+01  0.7957747E-01            NaN
         13   -1    0    0    0    0  0.00000000000E+00  0.00000000000E+00  0.74505805969E-08  0.10566000000E+00  0.10566000000E+00 0.  1.
     999900   -1    0    0    0    0 -0.00000000000E+00 -0.00000000000E+00 -0.74505805969E-08  0.93827000000E+00  0.93827000000E+00 0.  1.
     999902    2    1    2    0    0  0.68733191280E-02 -0.15613635711E-01  0.16148276369E-01  0.10204396836E+01  0.10201692766E+01 0.  0.
     999903    2    3    3    0    0  0.26906851737E-01 -0.10533966916E+00 -0.70847479463E-01  0.13138379948E+00  0.20540517343E-01 0.  0.
         14    1    1    2    0    0 -0.68733191280E-02  0.15613635711E-01 -0.16148276369E-01  0.23490316423E-01  0.00000000000E+00 0.  1.
     999901    1    3    3    0    0 -0.20033532609E-01  0.89726033444E-01  0.86995755832E-01  0.88905588409E+00  0.88000000000E+00 0. -1.
        -11    1    4    4    0    0  0.25222855942E-01 -0.62473708694E-01 -0.48452415267E-01  0.82988278727E-01  0.51100000000E-03 0.  1.
         11    1    4    4    0    0  0.16839957951E-02 -0.42865960461E-01 -0.22395064196E-01  0.48395520758E-01  0.51100000000E-03 0. -1.
</event>
<event>
 8    1  0.1042301E+005  0.1043930E+01  0.7957747E-01            NaN
         13   -1    0    0    0    0  0.00000000000E+00  0.00000000000E+00  0.74505805969E-08  0.10566000000E+00  0.10566000000E+00 0.  1.
     999900   -1    0    0    0    0 -0.00000000000E+00 -0.00000000000E+00 -0.74505805969E-08  0.93827000000E+00  0.93827000000E+00 0.  1.
     999902    2    1    2    0    0  0.19020533001E-01  0.56728506581E-02  0.11104902211E-01  0.10211861929E+01  0.10209328870E+01 0.  0.
     999903    2    3    3    0    0  0.40034399705E-01 -0.12034967330E+00 -0.26624783922E-01  0.13115990765E+00  0.20180317965E-01 0.  0.
         14    1    1    2    0    0 -0.19020533001E-01 -0.56728506581E-02 -0.11104902211E-01  0.22743807143E-01  0.00000000000E+00 0. -1.
     999901    1    3    3    0    0 -0.21013866704E-01  0.12602252396E+00  0.37729686133E-01  0.89002628520E+00  0.88000000000E+00 0. -1.
        -11    1    4    4    0    0  0.41270099721E-03 -0.19866599437E-01 -0.85756869784E-02  0.21648455452E-01  0.51100000000E-03 0.  1.
         11    1    4    4    0    0  0.39621698708E-01 -0.10048307386E+00 -0.18049096944E-01  0.10951145220E+00  0.51100000000E-03 0. -1.
</event>
<event>
 8    1  0.1042301E+005  0.1043930E+01  0.7957747E-01            NaN
         13   -1    0    0    0    0  0.00000000000E+00  0.00000000000E+00  0.74505805969E-08  0.10566000000E+00  0.10566000000E+00 0.  1.
     999900   -1    0    0    0    0 -0.00000000000E+00 -0.00000000000E+00 -0.74505805969E-08  0.93827000000E+00  0.93827000000E+00 0. -1.
     999902    2    1    2    0    0  0.17634897964E-01  0.12958036414E-01 -0.93165244089E-02  0.10201455942E+01  0.10198682931E+01 0.  0.
     999903    2    3    3    0    0 -0.34153443993E-01  0.12383809086E+00 -0.20443813855E-01  0.13160733646E+00  0.20005274327E-01 0.  0.
         14    1    1    2    0    0 -0.17634897964E-01 -0.12958036414E-01  0.93165244089E-02  0.23784405836E-01  0.00000000000E+00 0.  1.
     999901    1    3    3    0    0  0.51788341957E-01 -0.11088005444E+00  0.11127289447E-01  0.88853825771E+00  0.88000000000E+00 0. -1.
        -11    1    4    4    0    0 -0.13504157666E-01  0.21017383363E-01 -0.64224091640E-02  0.25799246853E-01  0.51100000000E-03 0.  1.
         11    1    4    4    0    0 -0.20649286327E-01  0.10282070749E+00 -0.14021404691E-01  0.10580808961E+00  0.51100000000E-03 0. -1.
</event>
<event>
 8    1  0.1042301E+005  0.1043930E+01  0.7957747E-01            NaN
         13   -1    0    0    0    0  0.00000000000E+00  0.00000000000E+00  0.74505805969E-08  0.10566000000E+00  0.10566000000E+00 0. -1.
     999900   -1    0    0    0    0 -0.00000000000E+00 -0.00000000000E+00 -0.74505805969E-08  0.93827000000E+00  0.93827000000E+00 0. -1.
     999902    2    1    2    0    0 -0.17084829057E-02 -0.24098561351E-01 -0.24608191568E-02  0.10196459475E+01  0.10193567301E+01 0.  0.
     999903    2    3    3    0    0  0.23299395391E-02 -0.36531409967E-01  0.12368007034E+00  0.13055517119E+00  0.20197039202E-01 0.  0.
         14    1    1    2    0    0  0.17084829057E-02  0.24098561351E-01  0.24608191568E-02  0.24284052461E-01  0.00000000000E+00 0.  1.
     999901    1    3    3    0    0 -0.40384224448E-02  0.12432848617E-01 -0.12614088950E+00  0.88909077635E+00  0.88000000000E+00 0. -1.
        -11    1    4    4    0    0 -0.83369742203E-02 -0.17982791015E-01  0.48744816158E-01  0.52623228095E-01  0.51100000000E-03 0. -1.
         11    1    4    4    0    0  0.10666913759E-01 -0.18548618953E-01  0.74935254185E-01  0.77931943098E-01  0.51100000000E-03 0.  1.
</event>
<event>
 8    1  0.1042301E+005  0.1043930E+01  0.7957747E-01            NaN
         13   -1    0    0    0    0  0.00000000000E+00  0.00000000000E+00  0.74505805969E-08  0.10566000000E+00  0.10566000000E+00 0.  1.
     999900   -1    0    0    0    0 -0.00000000000E+00 -0.00000000000E+00 -0.74505805969E-08  0.93827000000E+00  0.93827000000E+00 0.  1.
     999902    2    1    2    0    0 -0.51642406481E-02  0.21836668789E-02  0.23067608865E-01  0.10201907422E+01  0.10199145053E+01 0.  0.
     999903    2    3    3    0    0  0.42880331129E-01  0.42969840856E-01  0.11669755132E+00  0.13298255975E+00  0.19516984740E-01 0.  0.
         14    1    1    2    0    0  0.51642406481E-02 -0.21836668789E-02 -0.23067608865E-01  0.23739257807E-01  0.00000000000E+00 0. -1.
     999901    1    3    3    0    0 -0.48044571778E-01 -0.40786173977E-01 -0.93629942455E-01  0.88720818244E+00  0.88000000000E+00 0.  1.
        -11    1    4    4    0    0  0.31973840398E-01  0.30061020550E-01  0.10005911651E+00  0.10926151813E+00  0.51100000000E-03 0.  1.
         11    1    4    4    0    0  0.10906490731E-01  0.12908820306E-01  0.16638434813E-01  0.23721041625E-01  0.51100000000E-03 0. -1.
</event>
<event>
 8    1  0.1042301E+005  0.1043930E+01  0.7957747E-01            NaN
         13   -1    0    0    0    0  0.00000000000E+00  0.00000000000E+00  0.74505805969E-08  0.10566000000E+00  0.10566000000E+00 0. -1.
     999900   -1    0    0    0    0 -0.00000000000E+00 -0.00000000000E+00 -0.74505805969E-08  0.93827000000E+00  0.93827000000E+00 0.  1.
     999902    2    1    2    0    0 -0.53047093947E-02 -0.17933545548E-01  0.14587782875E-01  0.10202117495E+01  0.10199360070E+01 0.  0.
     999903    2    3    3    0    0 -0.32953318852E-01  0.61204560026E-01 -0.10575664850E+00  0.12807382994E+00  0.19660056497E-01 0.  0.
         14    1    1    2    0    0  0.53047093947E-02  0.17933545548E-01 -0.14587782875E-01  0.23718250502E-01  0.00000000000E+00 0.  1.
     999901    1    3    3    0    0  0.27648609457E-01 -0.79138105574E-01  0.12034443137E+00  0.89213791956E+00  0.88000000000E+00 0.  1.
        -11    1    4    4    0    0 -0.22079514016E-01  0.51957106518E-01 -0.93644815707E-01  0.10934650651E+00  0.51100000000E-03 0.  1.
         11    1    4    4    0    0 -0.10873804836E-01  0.92474535083E-02 -0.12111832791E-01  0.18727323422E-01  0.51100000000E-03 0. -1.
</event>
<event>
 8    1  0.1042301E+005  0.1043930E+01  0.7957747E-01            NaN
         13   -1    0    0    0    0  0.00000000000E+00  0.00000000000E+00  0.74505805969E-08  0.10566000000E+00  0.10566000000E+00 0.  1.
     999900   -1    0    0    0    0 -0.00000000000E+00 -0.00000000000E+00 -0.74505805969E-08  0.93827000000E+00  0.93827000000E+00 0.  1.
     999902    2    1    2    0    0  0.10813917223E-01 -0.14143517990E-01 -0.15127533622E-01  0.10205671624E+01  0.10202997162E+01 0.  0.
     999903    2    3    3    0    0 -0.51025355802E-01  0.84146957582E-01  0.77441782641E-01  0.12812433982E+00  0.27098327452E-01 0.  0.
         14    1    1    2    0    0 -0.10813917223E-01  0.14143517990E-01  0.15127533622E-01  0.23362837591E-01  0.00000000000E+00 0.  1.
     999901    1    3    3    0    0  0.61839273025E-01 -0.98290475572E-01 -0.92569316263E-01  0.89244282259E+00  0.88000000000E+00 0.  1.
        -11    1    4    4    0    0 -0.32737458563E-01  0.28298216241E-01  0.31391207662E-01  0.53462129354E-01  0.51100000000E-03 0.  1.
         11    1    4    4    0    0 -0.18287897239E-01  0.55848741340E-01  0.46050574979E-01  0.74662210466E-01  0.51100000000E-03 0. -1.
</event>
<event>
 8    1  0.1042301E+005  0.1043930E+01  0.7957747E-01            NaN
         13   -1    0    0    0    0  0.00000000000E+00  0.00000000000E+00  0.74505805969E-08  0.10566000000E+00  0.10566000000E+00 0.  1.
     999900   -1    0    0    0    0 -0.00000000000E+00 -0.00000000000E+00 -0.74505805969E-08  0.93827000000E+00  0.93827000000E+00 0. -1.
     999902    2    1    2    0    0  0.30055232843E-02  0.17315982833E-01 -0.97534821501E-02  0.10238300785E+01  0.10236327577E+01 0.  0.
     999903    2    3    3    0    0 -0.86891412574E-01 -0.52382404044E-01  0.81568685959E-01  0.13182163534E+00  0.20723396995E-01 0.  0.
         14    1    1    2    0    0 -0.30055232843E-02 -0.17315982833E-01  0.97534821501E-02  0.20099921536E-01  0.00000000000E+00 0.  1.
     999901    1    3    3    0    0  0.89896935859E-01  0.69698386877E-01 -0.91322168109E-01  0.89200844312E+00  0.88000000000E+00 0. -1.
        -11    1    4    4    0    0 -0.62201651369E-01 -0.37871265575E-01  0.69739264451E-01  0.10083205996E+00  0.51100000000E-03 0.  1.
         11    1    4    4    0    0 -0.24689761205E-01 -0.14511138468E-01  0.11829421508E-01  0.30989575380E-01  0.51100000000E-03 0. -1.
</event>
<event>
 8    1  0.1042301E+005  0.1043930E+01  0.7957747E-01            NaN
         13   -1    0    0    0    0  0.00000000000E+00  0.00000000000E+00  0.74505805969E-08  0.10566000000E+00  0.10566000000E+00 0. -1.
     999900   -1    0    0    0    0 -0.00000000000E+00 -0.00000000000E+00 -0.74505805969E-08  0.93827000000E+00  0.93827000000E+00 0. -1.
     999902    2    1    2    0    0  0.40057797859E-02  0.23196425721E-01 -0.23643057915E-02  0.10202718010E+01  0.10199974694E+01 0.  0.
     999903    2    3    3    0    0 -0.78226389314E-01  0.63745749830E-02  0.10194084194E+00  0.13014559190E+00  0.19645270258E-01 0.  0.
         14    1    1    2    0    0 -0.40057797859E-02 -0.23196425721E-01  0.23643057915E-02  0.23658198997E-01  0.00000000000E+00 0.  1.
     999901    1    3    3    0    0  0.82232169100E-01  0.16821850738E-01 -0.10430514773E+00  0.89012620911E+00  0.88000000000E+00 0. -1.
        -11    1    4    4    0    0 -0.12009334382E-01 -0.60747283449E-02  0.18898226471E-01  0.23206260395E-01  0.51100000000E-03 0.  1.
         11    1    4    4    0    0 -0.66217054933E-01  0.12449303328E-01  0.83042615467E-01  0.10693933150E+00  0.51100000000E-03 0. -1.
</event>
<event>
 8    1  0.1042301E+005  0.1043930E+01  0.7957747E-01            NaN
         13   -1    0    0    0    0  0.00000000000E+00  0.00000000000E+00  0.74505805969E-08  0.10566000000E+00  0.10566000000E+00 0. -1.
     999900   -1    0    0    0    0 -0.00000000000E+00 -0.00000000000E+00 -0.74505805969E-08  0.93827000000E+00  0.93827000000E+00 0.  1.
     999902    2    1    2    0    0  0.70304610757E-02 -0.10688067973E-01  0.20213002542E-01  0.10200087197E+01  0.10197281798E+01 0.  0.
     999903    2    3    3    0    0 -0.86185605217E-01  0.80157624592E-01  0.50933994848E-01  0.12990425715E+00  0.20679479354E-01 0.  0.
         14    1    1    2    0    0 -0.70304610757E-02  0.10688067973E-01 -0.20213002542E-01  0.23921280310E-01  0.00000000000E+00 0.  1.
     999901    1    3    3    0    0  0.93216066293E-01 -0.90845692566E-01 -0.30720992306E-01  0.89010446254E+00  0.88000000000E+00 0.  1.
        -11    1    4    4    0    0 -0.38109466856E-01  0.36312781600E-01  0.34002048707E-01  0.62668572736E-01  0.51100000000E-03 0. -1.
         11    1    4    4    0    0 -0.48076138362E-01  0.43844842993E-01  0.16931946141E-01  0.67235684409E-01  0.51100000000E-03 0.  1.
</event>
<event>
 8    1  0.1042301E+005  0.1043930E+01  0.7957747E-01            NaN
         13   -1    0    0    0    0  0.00000000000E+00  0.00000000000E+00  0.74505805969E-08  0.10566000000E+00  0.10566000000E+00 0.  1.
     999900   -1    0    0    0    0 -0.00000000000E+00 -0.00000000000E+00 -0.74505805969E-08  0.93827000000E+00  0.93827000000E+00 0. -1.
     999902    2    1    2    0    0 -0.72568214711E-02 -0.26143161788E-03  0.22578616067E-01  0.10202124177E+01  0.10199366910E+01 0.  0.
     999903    2    3    3    0    0 -0.84893597721E-02  0.12147682605E+00 -0.40595284237E-01  0.12958754486E+00  0.17783874244E-01 0.  0.
         14    1    1    2    0    0  0.72568214711E-02  0.26143161788E-03 -0.22578616067E-01  0.23717582251E-01  0.00000000000E+00 0. -1.
     999901    1    3    3    0    0  0.12325383010E-02 -0.12173825767E+00  0.63173900304E-01  0.89062487289E+00  0.88000000000E+00 0. -1.
        -11    1    4    4    0    0 -0.70677149573E-02  0.15186056189E-01 -0.59439393311E-02  0.17780900795E-01  0.51100000000E-03 0. -1.
         11    1    4    4    0    0 -0.14216448148E-02  0.10629076986E+00 -0.34651344906E-01  0.11180664406E+00  0.51100000000E-03 0.  1.
</event>
<event>
 8    1  0.1042301E+005  0.1043930E+01  0.7957747E-01            NaN
         13   -1    0    0    0    0  0.00000000000E+00  0.00000000000E+00  0.74505805969E-08  0.10566000000E+00  0.10566000000E+00 0. -1.
     999900   -1    0    0    0    0 -0.00000000000E+00 -0.00000000000E+00 -0.74505805969E-08  0.93827000000E+00  0.93827000000E+00 0. -1.
     999902    2    1    2    0    0  0.73308094653E-02 -0.21518956247E-01 -0.67174667522E-02  0.10202249245E+01  0.10199494919E+01 0.  0.
     999903    2    3    3    0    0 -0.10453821529E+00  0.33854371749E-01 -0.65647036067E-01  0.12946481184E+00  0.19422852959E-01 0.  0.
         14    1    1    2    0    0 -0.73308094653E-02  0.21518956247E-01  0.67174667522E-02  0.23705075510E-01  0.00000000000E+00 0.  1.
     999901    1    3    3    0    0  0.11186902476E+00 -0.55373327997E-01  0.58929569315E-01  0.89076011265E+00  0.88000000000E+00 0.  1.
        -11    1    4    4    0    0 -0.86799316909E-02 -0.18561119291E-02 -0.84456615557E-02  0.12262817203E-01  0.51100000000E-03 0. -1.
         11    1    4    4    0    0 -0.95858283599E-01  0.35710483678E-01 -0.57201374511E-01  0.11720199463E+00  0.51100000000E-03 0.  1.
</event>
<event>
 8    1  0.1042301E+005  0.1043930E+01  0.7957747E-01            NaN
         13   -1    0    0    0    0  0.00000000000E+00  0.00000000000E+00  0.74505805969E-08  0.10566000000E+00  0.10566000000E+00 0. -1.
     999900   -1    0    0    0    0 -0.00000000000E+00 -0.00000000000E+00 -0.74505805969E-08  0.93827000000E+00  0.93827000000E+00 0.  1.
     999902    2    1    2    0    0  0.11728823034E-01 -0.16667904271E-01  0.10187747229E-01  0.10211445986E+01  0.10208903549E+01 0.  0.
     999903    2    3    3    0    0 -0.79709335739E-01 -0.10352336979E+00  0.12631866684E-02  0.13210890949E+00  0.19506461221E-01 0.  0.
         14    1    1    2    0    0 -0.11728823034E-01  0.16667904271E-01 -0.10187747229E-01  0.22785401382E-01  0.00000000000E+00 0.  1.
     999901    1    3    3    0    0  0.91438158772E-01  0.86855465515E-01  0.89245605608E-02  0.88903568913E+00  0.88000000000E+00 0.  1.
        -11    1    4    4    0    0 -0.39230954726E-01 -0.40197775067E-01 -0.65184656516E-02  0.56548036611E-01  0.51100000000E-03 0.  1.
         11    1    4    4    0    0 -0.40478381012E-01 -0.63325594718E-01  0.77816523199E-02  0.75560872875E-01  0.51100000000E-03 0. -1.
</event>
<event>
 8    1  0.1042301E+005  0.1043930E+01  0.7957747E-01            NaN
         13   -1    0    0    0    0  0.00000000000E+00  0.00000000000E+00  0.74505805969E-08  0.10566000000E+00  0.10566000000E+00 0.  1.
     999900   -1    0    0    0    0 -0.00000000000E+00 -0.00000000000E+00 -0.74505805969E-08  0.93827000000E+00  0.93827000000E+00 0.  1.
     999902    2    1    2    0    0  0.12947251441E-01  0.14827362547E-01 -0.11637727991E-01  0.10210625840E+01  0.10208064860E+01 0.  0.
     999903    2    3    3    0    0 -0.10719584421E+00  0.45508771660E-01 -0.57113170919E-01  0.13120656860E+00  0.19780091989E-01 0.  0.
         14    1    1    2    0    0 -0.12947251441E-01 -0.14827362547E-01  0.11637727991E-01  0.22867415962E-01  0.00000000000E+00 0.  1.
     999901    1    3    3    0    0  0.12014309565E+00 -0.30681409113E-01  0.45475442928E-01  0.88985601544E+00  0.88000000000E+00 0. -1.
        -11    1    4    4    0    0 -0.78670419077E-01  0.38215135034E-01 -0.50608870483E-01  0.10104924679E+00  0.51100000000E-03 0. -1.
         11    1    4    4    0    0 -0.28525425129E-01  0.72936366258E-02 -0.65043004364E-02  0.30157321817E-01  0.51100000000E-03 0.  1.
</event>
<event>
 8    1  0.1042301E+005  0.1043930E+01  0.7957747E-01            NaN
         13   -1    0    0    0    0  0.00000000000E+00  0.00000000000E+00  0.74505805969E-08  0.10566000000E+00  0.10566000000E+00 0. -1.
     999900   -1    0    0    0    0 -0.00000000000E+00 -0.00000000000E+00 -0.74505805969E-08  0.93827000000E+00  0.93827000000E+00 0. -1.
     999902    2    1    2    0    0  0.23072579475E-01 -0.10063700913E-01  0.56663513377E-02  0.10181282648E+01  0.10178012744E+01 0.  0.
     999903    2    3    3    0    0 -0.30192590123E-01 -0.79172331580E-01  0.95496689832E-01  0.12926231835E+00  0.20230634919E-01 0.  0.
         14    1    1    2    0    0 -0.23072579475E-01  0.10063700913E-01 -0.56663513377E-02  0.25801735159E-01  0.00000000000E+00 0. -1.
     999901    1    3    3    0    0  0.53265169598E-01  0.69108630667E-01 -0.89830338494E-01  0.88886594650E+00  0.88000000000E+00 0. -1.
        -11    1    4    4    0    0 -0.23499912211E-01 -0.59404124133E-01  0.57708693523E-01  0.86090941841E-01  0.51100000000E-03 0.  1.
         11    1    4    4    0    0 -0.66926779118E-02 -0.19768207447E-01  0.37787996309E-01  0.43171376505E-01  0.51100000000E-03 0. -1.
</event>
<event>
 8    1  0.1042301E+005  0.1043930E+01  0.7957747E-01            NaN
         13   -1    0    0    0    0  0.00000000000E+00  0.00000000000E+00  0.74505805969E-08  0.10566000000E+00  0.10566000000E+00 0. -1.
     999900   -1    0    0    0    0 -0.00000000000E+00 -0.00000000000E+00 -0.74505805969E-08  0.93827000000E+00  0.93827000000E+00 0. -1.
     999902    2    1    2    0    0  0.22563124823E-02  0.23207980931E-01  0.30173413110E-02  0.10204181801E+01  0.10201472720E+01 0.  0.
     999903    2    3    3    0    0 -0.36630444305E-02 -0.40794420520E-01  0.12255199496E+00  0.13001384524E+00  0.14387697651E-01 0.  0.
         14    1    1    2    0    0 -0.22563124823E-02 -0.23207980931E-01 -0.30173413110E-02  0.23511819868E-01  0.00000000000E+00 0.  1.
     999901    1    3    3    0    0  0.59193569128E-02  0.64002401451E-01 -0.11953465365E+00  0.89040433490E+00  0.88000000000E+00 0. -1.
        -11    1    4    4    0    0  0.50532989949E-02 -0.94789065067E-02  0.26027805496E-01  0.28161911853E-01  0.51100000000E-03 0. -1.
         11    1    4    4    0    0 -0.87163434255E-02 -0.31315514013E-01  0.96524189467E-01  0.10185193338E+00  0.51100000000E-03 0.  1.
</event>
<event>
 8    1  0.1042301E+005  0.1043930E+01  0.7957747E-01            NaN
         13   -1    0    0    0    0  0.00000000000E+00  0.00000000000E+00  0.74505805969E-08  0.10566000000E+00  0.10566000000E+00 0.  1.
     999900   -1    0    0    0    0 -0.00000000000E+00 -0.00000000000E+00 -0.74505805969E-08  0.93827000000E+00  0.93827000000E+00 0. -1.
     999902    2    1    2    0    0  0.10162026744E-01 -0.13066716734E-03  0.21502557019E-01  0.10201467324E+01  0.10198694582E+01 0.  0.
     999903    2    3    3    0    0 -0.98681344785E-01  0.74598484978E-01 -0.30982694772E-01  0.12875118191E+00  0.17719980175E-01 0.  0.
         14    1    1    2    0    0 -0.10162026744E-01  0.13066716734E-03 -0.21502557019E-01  0.23783267644E-01  0.00000000000E+00 0. -1.
     999901    1    3    3    0    0  0.10884337153E+00 -0.74729152145E-01  0.52485251791E-01  0.89139555045E+00  0.88000000000E+00 0. -1.
        -11    1    4    4    0    0 -0.39410598958E-01  0.39645219042E-01 -0.98234290192E-02  0.56760017458E-01  0.51100000000E-03 0. -1.
         11    1    4    4    0    0 -0.59270745827E-01  0.34953265936E-01 -0.21159265753E-01  0.71991164449E-01  0.51100000000E-03 0.  1.
</event>
<event>
 8    1  0.1042301E+005  0.1043930E+01  0.7957747E-01            NaN
         13   -1    0    0    0    0  0.00000000000E+00  0.00000000000E+00  0.74505805969E-08  0.10566000000E+00  0.10566000000E+00 0.  1.
     999900   -1    0    0    0    0 -0.00000000000E+00 -0.00000000000E+00 -0.74505805969E-08  0.93827000000E+00  0.93827000000E+00 0.  1.
     999902    2    1    2    0    0 -0.18127340728E-01 -0.14154717235E-01 -0.59618202610E-02  0.10201707954E+01  0.10198940886E+01 0.  0.
     999903    2    3    3    0    0 -0.76718621221E-02  0.12627291504E+00 -0.14897990295E-01  0.12893059655E+00  0.19935949195E-01 0.  0.
         14    1    1    2    0    0  0.18127340728E-01  0.14154717235E-01  0.59618202610E-02  0.23759204589E-01  0.00000000000E+00 0. -1.
     999901    1    3    3    0    0 -0.10455478606E-01 -0.14042763227E+00  0.89361700336E-02  0.89124019887E+00  0.88000000000E+00 0. -1.
        -11    1    4    4    0    0  0.21775788426E-02  0.54206043517E-01  0.18695872920E-02  0.54284376031E-01  0.51100000000E-03 0.  1.
         11    1    4    4    0    0 -0.98494409647E-02  0.72066871520E-01 -0.16767577587E-01  0.74646220515E-01  0.51100000000E-03 0. -1.
</event>
<event>
 8    1  0.1042301E+005  0.1043930E+01  0.7957747E-01            NaN
         13   -1    0    0    0    0  0.00000000000E+00  0.00000000000E+00  0.74505805969E-08  0.10566000000E+00  0.10566000000E+00 0. -1.
     999900   -1    0    0    0    0 -0.00000000000E+00 -0.00000000000E+00 -0.74505805969E-08  0.93827000000E+00  0.93827000000E+00 0. -1.
     999902    2    1    2    0    0 -0.54955174032E-02  0.99911342177E-02 -0.21001405229E-01  0.10200326676E+01  0.10197526957E+01 0.  0.
     999903    2    3    3    0    0 -0.25375306300E-01 -0.45377918116E-02  0.12378465204E+00  0.12786155280E+00  0.19011545899E-01 0.  0.
         14    1    1    2    0    0  0.54955174032E-02 -0.99911342177E-02  0.21001405229E-01  0.23897332405E-01  0.00000000000E+00 0. -1.
     999901    1    3    3    0    0  0.19879788897E-01  0.14528926029E-01 -0.14478605727E+00  0.89217111480E+00  0.88000000000E+00 0. -1.
        -11    1    4    4    0    0 -0.24639057421E-01 -0.76430773404E-02  0.82270632944E-01  0.86221911066E-01  0.51100000000E-03 0. -1.
         11    1    4    4    0    0 -0.73624887978E-03  0.31052855288E-02  0.41514019100E-01  0.41639641731E-01  0.51100000000E-03 0.  1.
</event>
<event>
 8    1  0.1042301E+005  0.1043930E+01  0.7957747E-01            NaN
         13   -1    0    0    0    0  0.00000000000E+00  0.00000000000E+00  0.74505805969E-08  0.10566000000E+00  0.10566000000E+00 0. -1.
     999900   -1    0    0    0    0 -0.00000000000E+00 -0.00000000000E+00 -0.74505805969E-08  0.93827000000E+00  0.93827000000E+00 0.  1.
     999902    2    1    2    0    0  0.91092609725E-02 -0.22060294696E-01 -0.32401756695E-02  0.10198440295E+01  0.10195595669E+01 0.  0.
     999903    2    3    3    0    0  0.37972888814E-01 -0.45674069589E-01  0.11522417771E+00  0.13112330709E+00  0.19714198326E-01 0.  0.
         14    1    1    2    0    0 -0.91092609725E-02  0.22060294696E-01  0.32401756695E-02  0.24085970520E-01  0.00000000000E+00 0.  1.
     999901    1    3    3    0    0 -0.28863627842E-01  0.23613774892E-01 -0.11846435338E+00  0.88872072239E+00  0.88000000000E+00 0.  1.
        -11    1    4    4    0    0  0.30774453155E-01 -0.32541809687E-01  0.10089308952E+00  0.11038891692E+00  0.51100000000E-03 0. -1.
         11    1    4    4    0    0  0.71984356591E-02 -0.13132259902E-01  0.14331088192E-01  0.20734390173E-01  0.51100000000E-03 0.  1.
</event>
<event>
 8    1  0.1042301E+005  0.1043930E+01  0.7957747E-01            NaN
         13   -1    0    0    0    0  0.00000000000E+00  0.00000000000E+00  0.74505805969E-08  0.10566000000E+00  0.10566000000E+00 0.  1.
     999900   -1    0    0    0    0 -0.00000000000E+00 -0.00000000000E+00 -0.74505805969E-08  0.93827000000E+00  0.93827000000E+00 0.  1.
     999902    2    1    2    0    0  0.37529697790E-02 -0.22424445474E-01  0.96724539435E-02  0.10192217645E+01  0.10189222288E+01 0.  0.
     999903    2    3    3    0    0  0.25771528621E-01  0.12103741299E+00 -0.19407495573E-01  0.12685874125E+00  0.20056478189E-01 0.  0.
         14    1    1    2    0    0 -0.37529697790E-02  0.22424445474E-01 -0.96724539435E-02  0.24708235515E-01  0.00000000000E+00 0. -1.
     999901    1    3    3    0    0 -0.22018558842E-01 -0.14346185846E+00  0.29079949516E-01  0.89236302323E+00  0.88000000000E+00 0. -1.
        -11    1    4    4    0    0  0.86270838155E-02  0.61943547523E-01 -0.18853922477E-01  0.65323511607E-01  0.51100000000E-03 0.  1.
         11    1    4    4    0    0  0.17144444806E-01  0.59093865466E-01 -0.55357309543E-03  0.61535229646E-01  0.51100000000E-03 0. -1.
</event>
<event>
 8    1  0.1042301E+005  0.1043930E+01  0.7957747E-01            NaN
         13   -1    0    0    0    0  0.00000000000E+00  0.00000000000E+00  0.74505805969E-08  0.10566000000E+00  0.10566000000E+00 0. -1.
     999900   -1    0    0    0    0 -0.00000000000E+00 -0.00000000000E+00 -0.74505805969E-08  0.93827000000E+00  0.93827000000E+00 0. -1.
     999902    2    1    2    0    0  0.14365239144E-01 -0.16937665491E-01  0.50704181364E-02  0.10211494436E+01  0.10208953093E+01 0.  0.
     999903    2    3    3    0    0  0.12060807494E+00  0.50053856889E-01  0.45045411365E-02  0.13223115468E+00  0.20324641386E-01 0.  0.
         14    1    1    2    0    0 -0.14365239144E-01  0.16937665491E-01 -0.50704181364E-02  0.22780556359E-01  0.00000000000E+00 0.  1.
     999901    1    3    3    0    0 -0.10624283580E+00 -0.66991522380E-01  0.56587699990E-03  0.88891828896E+00  0.88000000000E+00 0.  1.
        -11    1    4    4    0    0  0.57856245980E-01  0.33868359096E-01  0.67752613226E-02  0.67383798006E-01  0.51100000000E-03 0. -1.
         11    1    4    4    0    0  0.62751828961E-01  0.16185497792E-01 -0.22707201861E-02  0.64847356676E-01  0.51100000000E-03 0.  1.
</event>
<event>
 8    1  0.1042301E+005  0.1043930E+01  0.7957747E-01            NaN
         13   -1    0    0    0    0  0.00000000000E+00  0.00000000000E+00  0.74505805969E-08  0.10566000000E+00  0.10566000000E+00 0.  1.
     999900   -1    0    0    0    0 -0.00000000000E+00 -0.00000000000E+00 -0.74505805969E-08  0.93827000000E+00  0.93827000000E+00 0.  1.
     999902    2    1    2    0    0  0.22495277964E-01 -0.81079561320E-02  0.12801401893E-02  0.10199839097E+01  0.10197027806E+01 0.  0.
     999903    2    3    3    0    0 -0.85471526981E-01  0.92411327805E-01 -0.97492535360E-02  0.12763722539E+00  0.18734404981E-01 0.  0.
         14    1    1    2    0    0 -0.22495277964E-01  0.81079561320E-02 -0.12801401893E-02  0.23946090332E-01  0.00000000000E+00 0.  1.
     999901    1    3    3    0    0  0.10796680494E+00 -0.10051928394E+00  0.11029393725E-01  0.89234668428E+00  0.88000000000E+00 0. -1.
        -11    1    4    4    0    0 -0.27503102311E-01  0.17860872353E-01 -0.37157239916E-02  0.33007561614E-01  0.51100000000E-03 0. -1.
         11    1    4    4    0    0 -0.57968424670E-01  0.74550455452E-01 -0.60335295444E-02  0.94629663777E-01  0.51100000000E-03 0.  1.
</event>
<event>
 8    1  0.1042301E+005  0.1043930E+01  0.7957747E-01            NaN
         13   -1    0    0    0    0  0.00000000000E+00  0.00000000000E+00  0.74505805969E-08  0.10566000000E+00  0.10566000000E+00 0. -1.
     999900   -1    0    0    0    0 -0.00000000000E+00 -0.00000000000E+00 -0.74505805969E-08  0.93827000000E+00  0.93827000000E+00 0. -1.
     999902    2    1    2    0    0  0.12408901975E-01  0.95830471849E-02 -0.17967070758E-01  0.10200840093E+01  0.10198052533E+01 0.  0.
     999903    2    3    3    0    0 -0.27116658573E-01 -0.12314979988E+00  0.16284803360E-01  0.12859454243E+00  0.19239936060E-01 0.  0.
         14    1    1    2    0    0 -0.12408901975E-01 -0.95830471849E-02  0.17967070758E-01  0.23845990715E-01  0.00000000000E+00 0. -1.
     999901    1    3    3    0    0  0.39525560548E-01  0.13273284707E+00 -0.34251874118E-01  0.89148946685E+00  0.88000000000E+00 0. -1.
        -11    1    4    4    0    0 -0.27637465540E-02 -0.23794759089E-01 -0.40378887487E-02  0.24298035346E-01  0.51100000000E-03 0.  1.
         11    1    4    4    0    0 -0.24352912018E-01 -0.99355040794E-01  0.20322692109E-01  0.10429650709E+00  0.51100000000E-03 0. -1.
</event>
<event>
 8    1  0.1042301E+005  0.1043930E+01  0.7957747E-01            NaN
         13   -1    0    0    0    0  0.00000000000E+00  0.00000000000E+00  0.74505805969E-08  0.10566000000E+00  0.10566000000E+00 0.  1.
     999900   -1    0    0    0    0 -0.00000000000E+00 -0.00000000000E+00 -0.74505805969E-08  0.93827000000E+00  0.93827000000E+00 0. -1.
     999902    2    1    2    0    0 -0.62138950023E-02  0.15818035475E-01  0.16784988603E-01  0.10200436319E+01  0.10197639200E+01 0.  0.
     999903    2    3    3    0    0  0.56557483016E-01  0.58163337902E-01  0.10285680170E+00  0.13260815396E+00  0.20583441881E-01 0.  0.
         14    1    1    2    0    0  0.62138950023E-02 -0.15818035475E-01 -0.16784988603E-01  0.23886368074E-01  0.00000000000E+00 0. -1.
     999901    1    3    3    0    0 -0.62771378018E-01 -0.42345302427E-01 -0.86071813101E-01  0.88743547796E+00  0.88000000000E+00 0. -1.
        -11    1    4    4    0    0  0.43512392132E-01  0.30596965438E-01  0.65723756494E-01  0.84553981880E-01  0.51100000000E-03 0.  1.
         11    1    4    4    0    0  0.13045090883E-01  0.27566372464E-01  0.37133045211E-01  0.48054172083E-01  0.51100000000E-03 0. -1.
</event>
<event>
 8    1  0.1042301E+005  0.1043930E+01  0.7957747E-01            NaN
         13   -1    0    0    0    0  0.00000000000E+00  0.00000000000E+00  0.74505805969E-08  0.10566000000E+00  0.10566000000E+00 0. -1.
     999900   -1    0    0    0    0 -0.00000000000E+00 -0.00000000000E+00 -0.74505805969E-08  0.93827000000E+00  0.93827000000E+00 0.  1.
     999902    2    1    2    0    0 -0.20337466791E-01 -0.34662377026E-02  0.79456085672E-02  0.10218220816E+01  0.10215828926E+01 0.  0.
     999903    2    3    3    0    0 -0.47360431244E-02 -0.12753904456E+00  0.28182539477E-01  0.13275121876E+00  0.23237740021E-01 0.  0.
         14    1    1    2    0    0  0.20337466791E-01  0.34662377026E-02 -0.79456085672E-02  0.22107918373E-01  0.00000000000E+00 0.  1.
     999901    1    3    3    0    0 -0.15601423666E-01  0.12407280685E+00 -0.20236930910E-01  0.88907086286E+00  0.88000000000E+00 0. -1.
        -11    1    4    4    0    0  0.71512963982E-02 -0.70914337673E-01  0.92625619841E-02  0.71875173066E-01  0.51100000000E-03 0.  1.
         11    1    4    4    0    0 -0.11887339523E-01 -0.56624706882E-01  0.18919977493E-01  0.60876045697E-01  0.51100000000E-03 0. -1.
</event>
<event>
 8    1  0.1042301E+005  0.1043930E+01  0.7957747E-01            NaN
         13   -1    0    0    0    0  0.00000000000E+00  0.00000000000E+00  0.74505805969E-08  0.10566000000E+00  0.10566000000E+00 0.  1.
     999900   -1    0    0    0    0 -0.00000000000E+00 -0.00000000000E+00 -0.74505805969E-08  0.93827000000E+00  0.93827000000E+00 0. -1.
     999902    2    1    2    0    0 -0.22601301719E-02  0.98873680523E-02  0.21688992832E-01  0.10199867202E+01  0.10197056579E+01 0.  0.
     999903    2    3    3    0    0  0.52942654233E-01 -0.98405688612E-01 -0.59232945968E-01  0.12795359658E+00  0.19415890462E-01 0.  0.
         14    1    1    2    0    0  0.22601301719E-02 -0.98873680523E-02 -0.21688992832E-01  0.23943279756E-01  0.00000000000E+00 0. -1.
     999901    1    3    3    0    0 -0.55202784405E-01  0.10829305666E+00  0.80921938800E-01  0.89203312366E+00  0.88000000000E+00 0.  1.
        -11    1    4    4    0    0  0.25518212225E-01 -0.61845597333E-01 -0.42596238865E-01  0.79314297268E-01  0.51100000000E-03 0.  1.
         11    1    4    4    0    0  0.27424442009E-01 -0.36560091278E-01 -0.16636707103E-01  0.48639299317E-01  0.51100000000E-03 0. -1.
</event>
<event>
 8    1  0.1042301E+005  0.1043930E+01  0.7957747E-01            NaN
         13   -1    0    0    0    0  0.00000000000E+00  0.00000000000E+00  0.74505805969E-08  0.10566000000E+00  0.10566000000E+00 0. -1.
     999900   -1    0    0    0    0 -0.00000000000E+00 -0.00000000000E+00 -0.74505805969E-08  0.93827000000E+00  0.93827000000E+00 0.  1.
     999902    2    1    2    0    0  0.26882650209E-01  0.24152428967E-02 -0.14800702033E-01  0.10131473578E+01  0.10126796125E+01 0.  0.
     999903    2    3    3    0    0 -0.55358809958E-01  0.91495059358E-01  0.55120852903E-01  0.12208737367E+00  0.20762337459E-01 0.  0.
         14    1    1    2    0    0 -0.26882650209E-01 -0.24152428967E-02  0.14800702033E-01  0.30782642206E-01  0.00000000000E+00 0. -1.
     999901    1    3    3    0    0  0.82241460167E-01 -0.89079816462E-01 -0.69921554936E-01  0.89105998413E+00  0.88000000000E+00 0.  1.
        -11    1    4    4    0    0 -0.78311020215E-02  0.16304736046E-01  0.18537074652E-01  0.25904726095E-01  0.51100000000E-03 0.  1.
         11    1    4    4    0    0 -0.47527707937E-01  0.75190323313E-01  0.36583778251E-01  0.96182647571E-01  0.51100000000E-03 0. -1.
</event>
<event>
 8    1  0.1042301E+005  0.1043930E+01  0.7957747E-01            NaN
         13   -1    0    0    0    0  0.00000000000E+00  0.00000000000E+00  0.74505805969E-08  0.10566000000E+00  0.10566000000E+00 0. -1.
     999900   -1    0    0    0    0 -0.00000000000E+00 -0.00000000000E+00 -0.74505805969E-08  0.93827000000E+00  0.93827000000E+00 0.  1.
     999902    2    1    2    0    0 -0.13730876263E-01  0.22593286873E-01  0.50680230922E-02  0.10170101480E+01  0.10166538067E+01 0.  0.
     999903    2    3    3    0    0 -0.15455394479E-01  0.67343756991E-01  0.10817881122E+00  0.12985885696E+00  0.19662571272E-01 0.  0.
         14    1    1    2    0    0  0.13730876263E-01 -0.22593286873E-01 -0.50680230922E-02  0.26919852019E-01  0.00000000000E+00 0. -1.
     999901    1    3    3    0    0  0.17245182164E-02 -0.44750470118E-01 -0.10311078813E+00  0.88715129102E+00  0.88000000000E+00 0.  1.
        -11    1    4    4    0    0 -0.66127510029E-02  0.36463119448E-01  0.75101758547E-01  0.83748569024E-01  0.51100000000E-03 0. -1.
         11    1    4    4    0    0 -0.88426434765E-02  0.30880637543E-01  0.33077052672E-01  0.46110287932E-01  0.51100000000E-03 0.  1.
</event>
<event>
 8    1  0.1042301E+005  0.1043930E+01  0.7957747E-01            NaN
         13   -1    0    0    0    0  0.00000000000E+00  0.00000000000E+00  0.74505805969E-08  0.10566000000E+00  0.10566000000E+00 0.  1.
     999900   -1    0    0    0    0 -0.00000000000E+00 -0.00000000000E+00 -0.74505805969E-08  0.93827000000E+00  0.93827000000E+00 0.  1.
     999902    2    1    2    0    0 -0.77842295715E-02  0.21017868603E-01  0.11552262410E-01  0.10187149292E+01  0.10184028216E+01 0.  0.
     999903    2    3    3    0    0  0.54060925963E-01  0.80252974170E-01 -0.83309439205E-01  0.12948359625E+00  0.21503847527E-01 0.  0.
         14    1    1    2    0    0  0.77842295715E-02 -0.21017868603E-01 -0.11552262410E-01  0.25215070839E-01  0.00000000000E+00 0. -1.
     999901    1    3    3    0    0 -0.61845155534E-01 -0.59235105567E-01  0.94861701615E-01  0.88923133291E+00  0.88000000000E+00 0. -1.
        -11    1    4    4    0    0  0.36612147247E-01  0.35210912535E-01 -0.41446490339E-01  0.65561653198E-01  0.51100000000E-03 0.  1.
         11    1    4    4    0    0  0.17448778716E-01  0.45042061636E-01 -0.41862948866E-01  0.63921943054E-01  0.51100000000E-03 0. -1.
</event>
<event>
 8    1  0.1095632E+005  0.1043930E+01  0.7957747E-01            NaN
         13   -1    0    0    0    0  0.00000000000E+00  0.00000000000E+00  0.74505805969E-08  0.10566000000E+00  0.10566000000E+00 0.  1.
     999900   -1    0    0    0    0 -0.00000000000E+00 -0.00000000000E+00 -0.74505805969E-08  0.93827000000E+00  0.93827000000E+00 0. -1.
     999902    2    1    2    0    0  0.18806470560E-01 -0.11383493481E-01  0.77005568449E-02  0.10206369574E+01  0.10203711251E+01 0.  0.
     999903    2    3    3    0    0 -0.53839185680E-01 -0.37736728501E-02 -0.11556064985E+00  0.12904925793E+00  0.19660840686E-01 0.  0.
         14    1    1    2    0    0 -0.18806470560E-01  0.11383493481E-01 -0.77005568449E-02  0.23293042620E-01  0.00000000000E+00 0. -1.
     999901    1    3    3    0    0  0.72645656240E-01 -0.76098206309E-02  0.12326120669E+00  0.89158769945E+00  0.88000000000E+00 0.  1.
        -11    1    4    4    0    0 -0.15989364542E-01  0.31777030340E-02 -0.54352420732E-01  0.56746844278E-01  0.51100000000E-03 0.  1.
         11    1    4    4    0    0 -0.37849821139E-01 -0.69513758841E-02 -0.61208229117E-01  0.72302413649E-01  0.51100000000E-03 0. -1.
</event>
<event>
 8    1  0.1042301E+005  0.1043930E+01  0.7957747E-01            NaN
         13   -1    0    0    0    0  0.00000000000E+00  0.00000000000E+00  0.74505805969E-08  0.10566000000E+00  0.10566000000E+00 0. -1.
     999900   -1    0    0    0    0 -0.00000000000E+00 -0.00000000000E+00 -0.74505805969E-08  0.93827000000E+00  0.93827000000E+00 0. -1.
     999902    2    1    2    0    0 -0.25149631500E-02 -0.18103799353E-01 -0.13496605249E-01  0.10212092838E+01  0.10209564978E+01 0.  0.
     999903    2    3    3    0    0 -0.19936571557E-01 -0.10266873993E+00 -0.81760730919E-01  0.13435262546E+00  0.20675439651E-01 0.  0.
         14    1    1    2    0    0  0.25149631500E-02  0.18103799353E-01  0.13496605249E-01  0.22720716184E-01  0.00000000000E+00 0. -1.
     999901    1    3    3    0    0  0.17421608407E-01  0.84564940573E-01  0.68264125670E-01  0.88685665835E+00  0.88000000000E+00 0.  1.
        -11    1    4    4    0    0  0.12746407644E-02 -0.44515663397E-01 -0.30480458214E-01  0.53968402336E-01  0.51100000000E-03 0. -1.
         11    1    4    4    0    0 -0.21211212322E-01 -0.58153076530E-01 -0.51280272705E-01  0.80384223127E-01  0.51100000000E-03 0.  1.
</event>
<event>
 8    1  0.1042301E+005  0.1043930E+01  0.7957747E-01            NaN
         13   -1    0    0    0    0  0.00000000000E+00  0.00000000000E+00  0.74505805969E-08  0.10566000000E+00  0.10566000000E+00 0.  1.
     999900   -1    0    0    0    0 -0.00000000000E+00 -0.00000000000E+00 -0.74505805969E-08  0.93827000000E+00  0.93827000000E+00 0.  1.
     999902    2    1    2    0    0  0.13847345530E-01  0.13859580206E-01  0.14196950778E-01  0.10197351585E+01  0.10194480876E+01 0.  0.
     999903    2    3    3    0    0 -0.12111404070E+00  0.17633101621E-01 -0.33388457988E-01  0.12816733366E+00  0.18235656390E-01 0.  0.
         14    1    1    2    0    0 -0.13847345530E-01 -0.13859580206E-01 -0.14196950778E-01  0.24194841457E-01  0.00000000000E+00 0.  1.
     999901    1    3    3    0    0  0.13496138623E+00 -0.37735214141E-02  0.47585408766E-01  0.89156782488E+00  0.88000000000E+00 0. -1.
        -11    1    4    4    0    0 -0.29941587322E-01  0.44122481831E-02 -0.16601340365E-01  0.34522922940E-01  0.51100000000E-03 0. -1.
         11    1    4    4    0    0 -0.91172453377E-01  0.13220853437E-01 -0.16787117623E-01  0.93644410722E-01  0.51100000000E-03 0.  1.
</event>
<event>
 8    1  0.1042301E+005  0.1043930E+01  0.7957747E-01            NaN
         13   -1    0    0    0    0  0.00000000000E+00  0.00000000000E+00  0.74505805969E-08  0.10566000000E+00  0.10566000000E+00 0. -1.
     999900   -1    0    0    0    0 -0.00000000000E+00 -0.00000000000E+00 -0.74505805969E-08  0.93827000000E+00  0.93827000000E+00 0. -1.
     999902    2    1    2    0    0  0.17083756910E-01 -0.82622699566E-02  0.15143962955E-01  0.10196512136E+01  0.10193621231E+01 0.  0.
     999903    2    3    3    0    0 -0.42974801105E-01 -0.34229232139E-01 -0.11388570800E+00  0.12783847008E+00  0.18821426216E-01 0.  0.
         14    1    1    2    0    0 -0.17083756910E-01  0.82622699566E-02 -0.15143962955E-01  0.24278786398E-01  0.00000000000E+00 0.  1.
     999901    1    3    3    0    0  0.60058558015E-01  0.25966962182E-01  0.12902967095E+00  0.89181274352E+00  0.88000000000E+00 0.  1.
        -11    1    4    4    0    0 -0.18319190845E-01 -0.25966858161E-01 -0.68863050034E-01  0.75843597337E-01  0.51100000000E-03 0.  1.
         11    1    4    4    0    0 -0.24655610260E-01 -0.82623739777E-02 -0.45022657962E-01  0.51994872747E-01  0.51100000000E-03 0. -1.
</event>
<event>
 8    1  0.1042301E+005  0.1043930E+01  0.7957747E-01            NaN
         13   -1    0    0    0    0  0.00000000000E+00  0.00000000000E+00  0.74505805969E-08  0.10566000000E+00  0.10566000000E+00 0.  1.
     999900   -1    0    0    0    0 -0.00000000000E+00 -0.00000000000E+00 -0.74505805969E-08  0.93827000000E+00  0.93827000000E+00 0.  1.
     999902    2    1    2    0    0 -0.18408729837E-01  0.63312657550E-02 -0.13298941125E-01  0.10203539932E+01  0.10200815866E+01 0.  0.
     999903    2    3    3    0    0 -0.84732846545E-01  0.17299606397E-01 -0.99863119011E-01  0.13355494618E+00  0.19630319541E-01 0.  0.
         14    1    1    2    0    0  0.18408729837E-01 -0.63312657550E-02  0.13298941125E-01  0.23576006772E-01  0.00000000000E+00 0.  1.
     999901    1    3    3    0    0  0.66324116708E-01 -0.10968340642E-01  0.86564177886E-01  0.88679904705E+00  0.88000000000E+00 0. -1.
        -11    1    4    4    0    0 -0.79580340689E-02 -0.40916918307E-02 -0.93201041305E-02  0.12930495361E-01  0.51100000000E-03 0. -1.
         11    1    4    4    0    0 -0.76774812476E-01  0.21391298227E-01 -0.90543014881E-01  0.12062445082E+00  0.51100000000E-03 0.  1.
</event>
<event>
 8    1  0.1042301E+005  0.1043930E+01  0.7957747E-01            NaN
         13   -1    0    0    0    0  0.00000000000E+00  0.00000000000E+00  0.74505805969E-08  0.10566000000E+00  0.10566000000E+00 0.  1.
     999900   -1    0    0    0    0 -0.00000000000E+00 -0.00000000000E+00 -0.74505805969E-08  0.93827000000E+00  0.93827000000E+00 0.  1.
     999902    2    1    2    0    0 -0.98381772183E-02 -0.24568205336E-01 -0.95933344021E-02  0.10157800709E+01  0.10153899418E+01 0.  0.
     999903    2    3    3    0    0  0.54026870344E-01 -0.85659682565E-02 -0.11304396535E+00  0.12727748285E+00  0.20696400863E-01 0.  0.
         14    1    1    2    0    0  0.98381772183E-02  0.24568205336E-01  0.95933344021E-02  0.28149929118E-01  0.00000000000E+00 0.  1.
     999901    1    3    3    0    0 -0.63865047562E-01 -0.16002237079E-01  0.10345063094E+00  0.88850258803E+00  0.88000000000E+00 0. -1.
        -11    1    4    4    0    0  0.14017802240E-01  0.91648263640E-03 -0.50552262739E-01  0.52470287869E-01  0.51100000000E-03 0. -1.
         11    1    4    4    0    0  0.40009068104E-01 -0.94824508929E-02 -0.62491702608E-01  0.74807194984E-01  0.51100000000E-03 0.  1.
</event>
<event>
 8    1  0.1042301E+005  0.1043930E+01  0.7957747E-01            NaN
         13   -1    0    0    0    0  0.00000000000E+00  0.00000000000E+00  0.74505805969E-08  0.10566000000E+00  0.10566000000E+00 0.  1.
     999900   -1    0    0    0    0 -0.00000000000E+00 -0.00000000000E+00 -0.74505805969E-08  0.93827000000E+00  0.93827000000E+00 0.  1.
     999902    2    1    2    0    0 -0.28149165802E-02 -0.57298000451E-02  0.22964568814E-01  0.10200946107E+01  0.10198161054E+01 0.  0.
     999903    2    3    3    0    0 -0.66266538969E-01 -0.66071299934E-04  0.11379724803E+00  0.13312856745E+00  0.19548484801E-01 0.  0.
         14    1    1    2    0    0  0.28149165802E-02  0.57298000451E-02 -0.22964568814E-01  0.23835389334E-01  0.00000000000E+00 0. -1.
     999901    1    3    3    0    0  0.63451622389E-01 -0.56637287452E-02 -0.90832679221E-01  0.88696604322E+00  0.88000000000E+00 0.  1.
        -11    1    4    4    0    0 -0.57477858389E-01  0.66551346751E-02  0.98570177944E-01  0.11429932687E+00  0.51100000000E-03 0. -1.
         11    1    4    4    0    0 -0.87886805807E-02 -0.67212059750E-02  0.15227070090E-01  0.18829240575E-01  0.51100000000E-03 0.  1.
</event>
<event>
 8    1  0.1042301E+005  0.1043930E+01  0.7957747E-01            NaN
         13   -1    0    0    0    0  0.00000000000E+00  0.00000000000E+00  0.74505805969E-08  0.10566000000E+00  0.10566000000E+00 0.  1.
     999900   -1    0    0    0    0 -0.00000000000E+00 -0.00000000000E+00 -0.74505805969E-08  0.93827000000E+00  0.93827000000E+00 0. -1.
     999902    2    1    2    0    0  0.32937894260E-02 -0.22735794214E-01  0.71080185135E-02  0.10198823532E+01  0.10195988060E+01 0.  0.
     999903    2    3    3    0    0  0.61990167490E-01 -0.31214462889E-01 -0.10872792629E+00  0.13031216561E+00  0.18503377835E-01 0.  0.
         14    1    1    2    0    0 -0.32937894260E-02  0.22735794214E-01 -0.71080185135E-02  0.24047646756E-01  0.00000000000E+00 0.  1.
     999901    1    3    3    0    0 -0.58696378064E-01  0.84786686749E-02  0.11583594480E+00  0.88957018764E+00  0.88000000000E+00 0.  1.
        -11    1    4    4    0    0  0.32357652380E-01 -0.59927075246E-02 -0.50225703565E-01  0.60048419051E-01  0.51100000000E-03 0. -1.
         11    1    4    4    0    0  0.29632515110E-01 -0.25221755364E-01 -0.58502222726E-01  0.70263746558E-01  0.51100000000E-03 0.  1.
</event>
<event>
 8    1  0.1042301E+005  0.1043930E+01  0.7957747E-01            NaN
         13   -1    0    0    0    0  0.00000000000E+00  0.00000000000E+00  0.74505805969E-08  0.10566000000E+00  0.10566000000E+00 0. -1.
     999900   -1    0    0    0    0 -0.00000000000E+00 -0.00000000000E+00 -0.74505805969E-08  0.93827000000E+00  0.93827000000E+00 0. -1.
     999902    2    1    2    0    0 -0.20538902694E-01  0.93822970300E-02  0.66700112725E-02  0.10203850839E+01  0.10201134037E+01 0.  0.
     999903    2    3    3    0    0  0.11067315971E+00  0.56084217168E-01  0.29437674639E-01  0.12914098654E+00  0.20416415482E-01 0.  0.
         14    1    1    2    0    0  0.20538902694E-01 -0.93822970300E-02 -0.66700112725E-02  0.23544916050E-01  0.00000000000E+00 0.  1.
     999901    1    3    3    0    0 -0.13121206241E+00 -0.46701920138E-01 -0.22767663366E-01  0.89124409741E+00  0.88000000000E+00 0.  1.
        -11    1    4    4    0    0  0.59922964232E-01  0.26983156525E-01  0.25537046106E-01  0.70507121790E-01  0.51100000000E-03 0. -1.
         11    1    4    4    0    0  0.50750195482E-01  0.29101060643E-01  0.39006285326E-02  0.58633864753E-01  0.51100000000E-03 0.  1.
</event>
<event>
 8    1  0.1042301E+005  0.1043930E+01  0.7957747E-01            NaN
         13   -1    0    0    0    0  0.00000000000E+00  0.00000000000E+00  0.74505805969E-08  0.10566000000E+00  0.10566000000E+00 0.  1.
     999900   -1    0    0    0    0 -0.00000000000E+00 -0.00000000000E+00 -0.74505805969E-08  0.93827000000E+00  0.93827000000E+00 0.  1.
     999902    2    1    2    0    0 -0.22407732853E-01  0.19442311530E-01 -0.71051352267E-02  0.10134243789E+01  0.10129651420E+01 0.  0.
     999903    2    3    3    0    0 -0.10735611290E+00  0.19618266816E-01  0.61138472277E-01  0.12670376444E+00  0.20142486470E-01 0.  0.
         14    1    1    2    0    0  0.22407732853E-01 -0.19442311530E-01  0.71051352267E-02  0.30505621053E-01  0.00000000000E+00 0.  1.
     999901    1    3    3    0    0  0.84948380042E-01 -0.17595528648E-03 -0.68243607504E-01  0.88672061451E+00  0.88000000000E+00 0.  1.
        -11    1    4    4    0    0 -0.53668899243E-01  0.16855563122E-01  0.39565996852E-01  0.68776376627E-01  0.51100000000E-03 0. -1.
         11    1    4    4    0    0 -0.53687213653E-01  0.27627036946E-02  0.21572475426E-01  0.57927387810E-01  0.51100000000E-03 0.  1.
</event>
<event>
 8    1  0.1042301E+005  0.1043930E+01  0.7957747E-01            NaN
         13   -1    0    0    0    0  0.00000000000E+00  0.00000000000E+00  0.74505805969E-08  0.10566000000E+00  0.10566000000E+00 0.  1.
     999900   -1    0    0    0    0 -0.00000000000E+00 -0.00000000000E+00 -0.74505805969E-08  0.93827000000E+00  0.93827000000E+00 0.  1.
     999902    2    1    2    0    0 -0.64409106665E-02 -0.13451141017E-01 -0.61260660627E-02  0.10278071215E+01  0.10276806566E+01 0.  0.
     999903    2    3    3    0    0  0.10767057119E+00 -0.40788751244E-01 -0.72672547545E-01  0.13752783421E+00  0.19388963022E-01 0.  0.
         14    1    1    2    0    0  0.64409106665E-02  0.13451141017E-01  0.61260660627E-02  0.16122878474E-01  0.00000000000E+00 0. -1.
     999901    1    3    3    0    0 -0.11411148186E+00  0.27337610227E-01  0.66546481483E-01  0.89027928732E+00  0.88000000000E+00 0.  1.
        -11    1    4    4    0    0  0.33095079980E-01 -0.44482139759E-02 -0.26126421543E-01  0.42401909746E-01  0.51100000000E-03 0. -1.
         11    1    4    4    0    0  0.74575491213E-01 -0.36340537268E-01 -0.46546126003E-01  0.95125924465E-01  0.51100000000E-03 0.  1.
</event>
<event>
 8    1  0.1042301E+005  0.1043930E+01  0.7957747E-01            NaN
         13   -1    0    0    0    0  0.00000000000E+00  0.00000000000E+00  0.74505805969E-08  0.10566000000E+00  0.10566000000E+00 0. -1.
     999900   -1    0    0    0    0 -0.00000000000E+00 -0.00000000000E+00 -0.74505805969E-08  0.93827000000E+00  0.93827000000E+00 0.  1.
     999902    2    1    2    0    0 -0.17242220577E-01  0.11277837253E-01  0.10540767659E-01  0.10207871487E+01  0.10205247725E+01 0.  0.
     999903    2    3    3    0    0  0.68406146148E-01 -0.64101523870E-01  0.88314923612E-01  0.13001977719E+00  0.17810405248E-01 0.  0.
         14    1    1    2    0    0  0.17242220577E-01 -0.11277837253E-01 -0.10540767659E-01  0.23142851302E-01  0.00000000000E+00 0.  1.
     999901    1    3    3    0    0 -0.85648366725E-01  0.75379361123E-01 -0.77774155953E-01  0.89076737151E+00  0.88000000000E+00 0.  1.
        -11    1    4    4    0    0  0.52815699066E-02 -0.64219952507E-02  0.15970187722E-01  0.18012357440E-01  0.51100000000E-03 0.  1.
         11    1    4    4    0    0  0.63124576241E-01 -0.57679528620E-01  0.72344735891E-01  0.11200741975E+00  0.51100000000E-03 0. -1.
</event>
<event>
 8    1  0.1042301E+005  0.1043930E+01  0.7957747E-01            NaN
         13   -1    0    0    0    0  0.00000000000E+00  0.00000000000E+00  0.74505805969E-08  0.10566000000E+00  0.10566000000E+00 0. -1.
     999900   -1    0    0    0    0 -0.00000000000E+00 -0.00000000000E+00 -0.74505805969E-08  0.93827000000E+00  0.93827000000E+00 0. -1.
     999902    2    1    2    0    0  0.23521398469E-01 -0.49024201780E-02 -0.56622068180E-03  0.10198964710E+01  0.10196132605E+01 0.  0.
     999903    2    3    3    0    0 -0.12516231783E+00  0.10161834943E-02  0.11342644557E-01  0.12732507419E+00  0.20405403651E-01 0.  0.
         14    1    1    2    0    0 -0.23521398469E-01  0.49024201780E-02  0.56622068180E-03  0.24033528983E-01  0.00000000000E+00 0. -1.
     999901    1    3    3    0    0  0.14868371630E+00 -0.59186036723E-02 -0.11908865239E-01  0.89257139683E+00  0.88000000000E+00 0. -1.
        -11    1    4    4    0    0 -0.66402658849E-01 -0.95066898136E-02  0.43950085154E-02  0.67225497204E-01  0.51100000000E-03 0. -1.
         11    1    4    4    0    0 -0.58759658982E-01  0.10522873308E-01  0.69476360413E-02  0.60099576986E-01  0.51100000000E-03 0.  1.
</event>
<event>
 8    1  0.1042301E+005  0.1043930E+01  0.7957747E-01            NaN
         13   -1    0    0    0    0  0.00000000000E+00  0.00000000000E+00  0.74505805969E-08  0.10566000000E+00  0.10566000000E+00 0. -1.
     999900   -1    0    0    0    0 -0.00000000000E+00 -0.00000000000E+00 -0.74505805969E-08  0.93827000000E+00  0.93827000000E+00 0.  1.
     999902    2    1    2    0    0 -0.16439278367E-02  0.12360243241E-01  0.20763462165E-01  0.10197101843E+01  0.10194225132E+01 0.  0.
     999903    2    3    3    0    0  0.21890704980E-02 -0.12695757743E+00 -0.38143787278E-03  0.12849121354E+00  0.19667942617E-01 0.  0.
         14    1    1    2    0    0  0.16439278367E-02 -0.12360243241E-01 -0.20763462165E-01  0.24219815705E-01  0.00000000000E+00 0.  1.
     999901    1    3    3    0    0 -0.38329983347E-02  0.13931782067E+00  0.21144900038E-01  0.89121897075E+00  0.88000000000E+00 0.  1.
        -11    1    4    4    0    0 -0.71642077246E-02 -0.34637145941E-01 -0.41734733626E-02  0.35619331158E-01  0.51100000000E-03 0.  1.
         11    1    4    4    0    0  0.93532782226E-02 -0.92320431487E-01  0.37920354899E-02  0.92871882384E-01  0.51100000000E-03 0. -1.
</event>
<event>
 8    1  0.1042301E+005  0.1043930E+01  0.7957747E-01            NaN
         13   -1    0    0    0    0  0.00000000000E+00  0.00000000000E+00  0.74505805969E-08  0.10566000000E+00  0.10566000000E+00 0.  1.
     999900   -1    0    0    0    0 -0.00000000000E+00 -0.00000000000E+00 -0.74505805969E-08  0.93827000000E+00  0.93827000000E+00 0.  1.
     999902    2    1    2    0    0 -0.23617282413E-01 -0.35468326889E-02  0.18486287389E-02  0.10199764308E+01  0.10196951240E+01 0.  0.
     999903    2    3    3    0    0 -0.64157034114E-01 -0.11380189145E+00  0.16333920488E-02  0.13217031693E+00  0.19983222553E-01 0.  0.
         14    1    1    2    0    0  0.23617282413E-01  0.35468326889E-02 -0.18486287389E-02  0.23953569231E-01  0.00000000000E+00 0. -1.
     999901    1    3    3    0    0  0.40539751702E-01  0.11025505876E+00  0.21523669003E-03  0.88780611384E+00  0.88000000000E+00 0.  1.
        -11    1    4    4    0    0 -0.19059783540E-01 -0.50933993506E-01  0.57514284309E-02  0.54689003402E-01  0.51100000000E-03 0. -1.
         11    1    4    4    0    0 -0.45097250575E-01 -0.62867897941E-01 -0.41180363821E-02  0.77481313525E-01  0.51100000000E-03 0.  1.
</event>
<event>
 8    1  0.1042301E+005  0.1043930E+01  0.7957747E-01            NaN
         13   -1    0    0    0    0  0.00000000000E+00  0.00000000000E+00  0.74505805969E-08  0.10566000000E+00  0.10566000000E+00 0. -1.
     999900   -1    0    0    0    0 -0.00000000000E+00 -0.00000000000E+00 -0.74505805969E-08  0.93827000000E+00  0.93827000000E+00 0.  1.
     999902    2    1    2    0    0 -0.68207024678E-02  0.18430403086E-01  0.11193398716E-01  0.10213137688E+01  0.10210633283E+01 0.  0.
     999903    2    3    3    0    0 -0.10313357917E+00  0.38534417005E-01 -0.70081566319E-01  0.13210852726E+00  0.20489035862E-01 0.  0.
         14    1    1    2    0    0  0.68207024678E-02 -0.18430403086E-01 -0.11193398716E-01  0.22616231227E-01  0.00000000000E+00 0. -1.
     999901    1    3    3    0    0  0.96312876702E-01 -0.20104013919E-01  0.81274965036E-01  0.88920524151E+00  0.88000000000E+00 0. -1.
        -11    1    4    4    0    0 -0.25410024822E-01  0.18010786758E-01 -0.24999692886E-01  0.39941251439E-01  0.51100000000E-03 0.  1.
         11    1    4    4    0    0 -0.77723554347E-01  0.20523630248E-01 -0.45081873433E-01  0.92167275820E-01  0.51100000000E-03 0. -1.
</event>
<event>
 8    1  0.1042301E+005  0.1043930E+01  0.7957747E-01            NaN
         13   -1    0    0    0    0  0.00000000000E+00  0.00000000000E+00  0.74505805969E-08  0.10566000000E+00  0.10566000000E+00 0. -1.
     999900   -1    0    0    0    0 -0.00000000000E+00 -0.00000000000E+00 -0.74505805969E-08  0.93827000000E+00  0.93827000000E+00 0.  1.
     999902    2    1    2    0    0 -0.91893229270E-02 -0.10906560142E-01  0.18876877652E-01  0.10202713183E+01  0.10199969753E+01 0.  0.
     999903    2    3    3    0    0 -0.44092982376E-01 -0.93201924417E-01 -0.77614642272E-01  0.13049527578E+00  0.19344107523E-01 0.  0.
         14    1    1    2    0    0  0.91893229270E-02  0.10906560142E-01 -0.18876877652E-01  0.23658681702E-01  0.00000000000E+00 0.  1.
     999901    1    3    3    0    0  0.34903659449E-01  0.82295364275E-01  0.96491519924E-01  0.88977604252E+00  0.88000000000E+00 0. -1.
        -11    1    4    4    0    0 -0.35995065563E-01 -0.57083443692E-01 -0.44591749967E-01  0.80887882744E-01  0.51100000000E-03 0.  1.
         11    1    4    4    0    0 -0.80979168121E-02 -0.36118480725E-01 -0.33022892304E-01  0.49607393035E-01  0.51100000000E-03 0. -1.
</event>
<event>
 8    1  0.1042301E+005  0.1043930E+01  0.7957747E-01            NaN
         13   -1    0    0    0    0  0.00000000000E+00  0.00000000000E+00  0.74505805969E-08  0.10566000000E+00  0.10566000000E+00 0. -1.
     999900   -1    0    0    0    0 -0.00000000000E+00 -0.00000000000E+00 -0.74505805969E-08  0.93827000000E+00  0.93827000000E+00 0. -1.
     999902    2    1    2    0    0 -0.51875287773E-02  0.54612555833E-02  0.21948082947E-01  0.10207253860E+01  0.10204615914E+01 0.  0.
     999903    2    3    3    0    0 -0.12457681751E+00  0.34270974654E-01  0.11723911604E-01  0.13213755359E+00  0.25079868395E-01 0.  0.
         14    1    1    2    0    0  0.51875287773E-02 -0.54612555833E-02 -0.21948082947E-01  0.23204614033E-01  0.00000000000E+00 0.  1.
     999901    1    3    3    0    0  0.11938928874E+00 -0.28809719071E-01  0.10224171343E-01  0.88858783238E+00  0.88000000000E+00 0.  1.
        -11    1    4    4    0    0 -0.48765760122E-01  0.26213823007E-01  0.41479014863E-02  0.55522338609E-01  0.51100000000E-03 0.  1.
         11    1    4    4    0    0 -0.75811057392E-01  0.80571516468E-02  0.75760101174E-02  0.76615214976E-01  0.51100000000E-03 0. -1.
</event>
<event>
 8    1  0.1042301E+005  0.1043930E+01  0.7957747E-01            NaN
         13   -1    0    0    0    0  0.00000000000E+00  0.00000000000E+00  0.74505805969E-08  0.10566000000E+00  0.10566000000E+00 0.  1.
     999900   -1    0    0    0    0 -0.00000000000E+00 -0.00000000000E+00 -0.74505805969E-08  0.93827000000E+00  0.93827000000E+00 0. -1.
     999902    2    1    2    0    0 -0.11384831683E-01 -0.14053534226E-01 -0.16468074600E-01  0.10194695483E+01  0.10191760624E+01 0.  0.
     999903    2    3    3    0    0 -0.11692783030E+00  0.23124836658E-01 -0.52798891993E-01  0.13163990016E+00  0.18288377406E-01 0.  0.
         14    1    1    2    0    0  0.11384831683E-01  0.14053534226E-01  0.16468074600E-01  0.24460451707E-01  0.00000000000E+00 0.  1.
     999901    1    3    3    0    0  0.10554299862E+00 -0.37178370885E-01  0.36330817393E-01  0.88782964814E+00  0.88000000000E+00 0.  1.
        -11    1    4    4    0    0 -0.90634764636E-01  0.24635136464E-01 -0.45134130847E-01  0.10420605260E+00  0.51100000000E-03 0. -1.
         11    1    4    4    0    0 -0.26293065664E-01 -0.15102998062E-02 -0.76647611462E-02  0.27433847560E-01  0.51100000000E-03 0.  1.
</event>
<event>
 8    1  0.1042301E+005  0.1043930E+01  0.7957747E-01            NaN
         13   -1    0    0    0    0  0.00000000000E+00  0.00000000000E+00  0.74505805969E-08  0.10566000000E+00  0.10566000000E+00 0.  1.
     999900   -1    0    0    0    0 -0.00000000000E+00 -0.00000000000E+00 -0.74505805969E-08  0.93827000000E+00  0.93827000000E+00 0.  1.
     999902    2    1    2    0    0  0.36077348986E-02  0.46925565315E-02 -0.23047120011E-01  0.10201349253E+01  0.10198573725E+01 0.  0.
     999903    2    3    3    0    0  0.11154814633E+00 -0.32540843822E-01 -0.59976498489E-01  0.13199009619E+00  0.17952984598E-01 0.  0.
         14    1    1    2    0    0 -0.36077348986E-02 -0.46925565315E-02  0.23047120011E-01  0.23795074673E-01  0.00000000000E+00 0.  1.
     999901    1    3    3    0    0 -0.10794041143E+00  0.37233400354E-01  0.36929378478E-01  0.88814482913E+00  0.88000000000E+00 0. -1.
        -11    1    4    4    0    0  0.40550266413E-01 -0.58072254319E-02 -0.14068651933E-01  0.43315540647E-01  0.51100000000E-03 0.  1.
         11    1    4    4    0    0  0.70997879917E-01 -0.26733618390E-01 -0.45907846556E-01  0.88674555546E-01  0.51100000000E-03 0. -1.
</event>
<event>
 8    1  0.1042301E+005  0.1043930E+01  0.7957747E-01            NaN
         13   -1    0    0    0    0  0.00000000000E+00  0.00000000000E+00  0.74505805969E-08  0.10566000000E+00  0.10566000000E+00 0. -1.
     999900   -1    0    0    0    0 -0.00000000000E+00 -0.00000000000E+00 -0.74505805969E-08  0.93827000000E+00  0.93827000000E+00 0.  1.
     999902    2    1    2    0    0 -0.12246775289E-01  0.64678474116E-02  0.16047588191E-01  0.10227323199E+01  0.10225126192E+01 0.  0.
     999903    2    3    3    0    0 -0.10325041414E+00  0.65265782950E-01  0.55350594959E-01  0.13521691955E+00  0.17310589977E-01 0.  0.
         14    1    1    2    0    0  0.12246775289E-01 -0.64678474116E-02 -0.16047588191E-01  0.21197680106E-01  0.00000000000E+00 0. -1.
     999901    1    3    3    0    0  0.91003638854E-01 -0.58797935538E-01 -0.39303006768E-01  0.88751540034E+00  0.88000000000E+00 0.  1.
        -11    1    4    4    0    0 -0.21703957010E-01  0.59745817156E-02  0.90049869480E-02  0.24250944054E-01  0.51100000000E-03 0. -1.
         11    1    4    4    0    0 -0.81546457133E-01  0.59291201234E-01  0.46345608011E-01  0.11096597550E+00  0.51100000000E-03 0.  1.
</event>
<event>
 8    1  0.1042301E+005  0.1043930E+01  0.7957747E-01            NaN
         13   -1    0    0    0    0  0.00000000000E+00  0.00000000000E+00  0.74505805969E-08  0.10566000000E+00  0.10566000000E+00 0. -1.
     999900   -1    0    0    0    0 -0.00000000000E+00 -0.00000000000E+00 -0.74505805969E-08  0.93827000000E+00  0.93827000000E+00 0. -1.
     999902    2    1    2    0    0 -0.67535735448E-02  0.13469417657E-01 -0.14301496168E-01  0.10231557669E+01  0.10229448444E+01 0.  0.
     999903    2    3    3    0    0 -0.85164262578E-01  0.89217421093E-02 -0.10256821956E+00  0.13525941487E+00  0.21031418065E-01 0.  0.
         14    1    1    2    0    0  0.67535735448E-02 -0.13469417657E-01  0.14301496168E-01  0.20774233085E-01  0.00000000000E+00 0.  1.
     999901    1    3    3    0    0  0.78410689033E-01  0.45476755475E-02  0.88266723392E-01  0.88789635204E+00  0.88000000000E+00 0.  1.
        -11    1    4    4    0    0 -0.74725393061E-01  0.14203990738E-01 -0.92941366881E-01  0.12009994388E+00  0.51100000000E-03 0. -1.
         11    1    4    4    0    0 -0.10438869517E-01 -0.52822486287E-02 -0.96268526786E-02  0.15159470995E-01  0.51100000000E-03 0.  1.
</event>
<event>
 8    1  0.1042301E+005  0.1043930E+01  0.7957747E-01            NaN
         13   -1    0    0    0    0  0.00000000000E+00  0.00000000000E+00  0.74505805969E-08  0.10566000000E+00  0.10566000000E+00 0. -1.
     999900   -1    0    0    0    0 -0.00000000000E+00 -0.00000000000E+00 -0.74505805969E-08  0.93827000000E+00  0.93827000000E+00 0. -1.
     999902    2    1    2    0    0  0.14463228556E-01  0.18393136075E-01 -0.40557872440E-02  0.10201825402E+01  0.10199061102E+01 0.  0.
     999903    2    3    3    0    0  0.10108569868E+00  0.83430743690E-01  0.15656522826E-01  0.13332183082E+00  0.18723685449E-01 0.  0.
         14    1    1    2    0    0 -0.14463228556E-01 -0.18393136075E-01  0.40557872440E-02  0.23747459761E-01  0.00000000000E+00 0.  1.
     999901    1    3    3    0    0 -0.86622470126E-01 -0.65037607615E-01 -0.19712310070E-01  0.88686070941E+00  0.88000000000E+00 0.  1.
        -11    1    4    4    0    0  0.39618016384E-01  0.25034464713E-01  0.12368203082E-01  0.48472107589E-01  0.51100000000E-03 0. -1.
         11    1    4    4    0    0  0.61467682298E-01  0.58396278976E-01  0.32883197442E-02  0.84849723235E-01  0.51100000000E-03 0.  1.
</event>
<event>
 8    1  0.1042301E+005  0.1043930E+01  0.7957747E-01            NaN
         13   -1    0    0    0    0  0.00000000000E+00  0.00000000000E+00  0.74505805969E-08  0.10566000000E+00  0.10566000000E+00 0. -1.
     999900   -1    0    0    0    0 -0.00000000000E+00 -0.00000000000E+00 -0.74505805969E-08  0.93827000000E+00  0.93827000000E+00 0.  1.
     999902    2    1    2    0    0 -0.99585807734E-02 -0.85997325790E-03  0.21909468580E-01  0.10198481043E+01  0.10195637392E+01 0.  0.
     999903    2    3    3    0    0  0.82577510909E-02 -0.92521064665E-01 -0.86285987868E-01  0.12831019308E+00  0.19745786530E-01 0.  0.
         14    1    1    2    0    0  0.99585807734E-02  0.85997325790E-03 -0.21909468580E-01  0.24081895658E-01  0.00000000000E+00 0.  1.
     999901    1    3    3    0    0 -0.18216331864E-01  0.91661091407E-01  0.10819545645E+00  0.89153791126E+00  0.88000000000E+00 0. -1.
        -11    1    4    4    0    0 -0.26446674934E-02 -0.18248727958E-01 -0.88512821543E-02  0.20460123533E-01  0.51100000000E-03 0.  1.
         11    1    4    4    0    0  0.10902418584E-01 -0.74272336707E-01 -0.77434705714E-01  0.10785006955E+00  0.51100000000E-03 0. -1.
</event>
<event>
 8    1  0.1042301E+005  0.1043930E+01  0.7957747E-01            NaN
         13   -1    0    0    0    0  0.00000000000E+00  0.00000000000E+00  0.74505805969E-08  0.10566000000E+00  0.10566000000E+00 0. -1.
     999900   -1    0    0    0    0 -0.00000000000E+00 -0.00000000000E+00 -0.74505805969E-08  0.93827000000E+00  0.93827000000E+00 0. -1.
     999902    2    1    2    0    0 -0.23067041809E-01 -0.10269819626E-02  0.65336914145E-02  0.10199334954E+01  0.10196511672E+01 0.  0.
     999903    2    3    3    0    0  0.87582565235E-01 -0.78769124424E-01  0.47666985887E-01  0.12865400827E+00  0.20110484952E-01 0.  0.
         14    1    1    2    0    0  0.23067041809E-01  0.10269819626E-02 -0.65336914145E-02  0.23996504605E-01  0.00000000000E+00 0. -1.
     999901    1    3    3    0    0 -0.11064960704E+00  0.77742142461E-01 -0.41133294472E-01  0.89127948712E+00  0.88000000000E+00 0.  1.
        -11    1    4    4    0    0  0.56672816578E-01 -0.47512816158E-01  0.19645386667E-01  0.76521096283E-01  0.51100000000E-03 0. -1.
         11    1    4    4    0    0  0.30909748658E-01 -0.31256308266E-01  0.28021599220E-01  0.52132911988E-01  0.51100000000E-03 0.  1.
</event>
<event>
 8    1  0.1042301E+005  0.1043930E+01  0.7957747E-01            NaN
         13   -1    0    0    0    0  0.00000000000E+00  0.00000000000E+00  0.74505805969E-08  0.10566000000E+00  0.10566000000E+00 0. -1.
     999900   -1    0    0    0    0 -0.00000000000E+00 -0.00000000000E+00 -0.74505805969E-08  0.93827000000E+00  0.93827000000E+00 0.  1.
     999902    2    1    2    0    0  0.80633104654E-02  0.20795976112E-01  0.75951144152E-02  0.10203678405E+01  0.10200957575E+01 0.  0.
     999903    2    3    3    0    0 -0.94308520010E-01 -0.73592950265E-01  0.43556297171E-01  0.12869387105E+00  0.18839908379E-01 0.  0.
         14    1    1    2    0    0 -0.80633104654E-02 -0.20795976112E-01 -0.75951144152E-02  0.23562159517E-01  0.00000000000E+00 0.  1.
     999901    1    3    3    0    0  0.10237183048E+00  0.94388926377E-01 -0.35961182755E-01  0.89167396943E+00  0.88000000000E+00 0. -1.
        -11    1    4    4    0    0 -0.18254299807E-01 -0.88326312774E-02  0.13541890445E-01  0.24390136419E-01  0.51100000000E-03 0. -1.
         11    1    4    4    0    0 -0.76054220203E-01 -0.64760318988E-01  0.30014406726E-01  0.10430373463E+00  0.51100000000E-03 0.  1.
</event>
<event>
 8    1  0.1042301E+005  0.1043930E+01  0.7957747E-01            NaN
         13   -1    0    0    0    0  0.00000000000E+00  0.00000000000E+00  0.74505805969E-08  0.10566000000E+00  0.10566000000E+00 0.  1.
     999900   -1    0    0    0    0 -0.00000000000E+00 -0.00000000000E+00 -0.74505805969E-08  0.93827000000E+00  0.93827000000E+00 0.  1.
     999902    2    1    2    0    0  0.23524919183E-01  0.23937274272E-02 -0.20287983218E-02  0.10201967369E+01  0.10199206412E+01 0.  0.
     999903    2    3    3    0    0 -0.14015661217E-02 -0.10805376164E+00 -0.69653916938E-01  0.13036915015E+00  0.21607114000E-01 0.  0.
         14    1    1    2    0    0 -0.23524919183E-01 -0.23937274272E-02  0.20287983218E-02  0.23733263076E-01  0.00000000000E+00 0. -1.
     999901    1    3    3    0    0  0.24926485305E-01  0.11044748906E+00  0.67625118616E-01  0.88982758677E+00  0.88000000000E+00 0.  1.
        -11    1    4    4    0    0 -0.81541058670E-02 -0.96069720172E-01 -0.61770904145E-01  0.11450670852E+00  0.51100000000E-03 0. -1.
         11    1    4    4    0    0  0.67525397453E-02 -0.11984041465E-01 -0.78830127932E-02  0.15862441633E-01  0.51100000000E-03 0.  1.
</event>
<event>
 7    1  0.1042301E+005  0.1043930E+01  0.7957747E-01            NaN
         13   -1    0    0    0    0  0.00000000000E+00  0.00000000000E+00  0.74505805969E-08  0.10566000000E+00  0.10566000000E+00 0. -1.
     999900   -1    0    0    0    0 -0.00000000000E+00 -0.00000000000E+00 -0.74505805969E-08  0.93827000000E+00  0.93827000000E+00 0. -1.
     999903    2    1    2    0    0 -0.16564334500E-01 -0.65831024911E-01  0.89755776338E-01  0.11460408285E+00  0.21677070875E-01 0.  0.
         14    1    1    2    0    0  0.13321096378E-01 -0.36560825886E-01 -0.68762229074E-02  0.39514909081E-01  0.00000000000E+00 0.  1.
     999901    1    1    2    0    0  0.32432381218E-02  0.10239185080E+00 -0.82879553430E-01  0.88981100807E+00  0.88000000000E+00 0. -1.
        -11    1    3    3    0    0 -0.16225515832E-01 -0.30677821584E-01  0.55875625865E-01  0.65777981027E-01  0.51100000000E-03 0. -1.
         11    1    3    3    0    0 -0.33881866799E-03 -0.35153203327E-01  0.33880150473E-01  0.48826101824E-01  0.51100000000E-03 0.  1.
</event>
<event>
 8    1  0.1042301E+005  0.1043930E+01  0.7957747E-01            NaN
         13   -1    0    0    0    0  0.00000000000E+00  0.00000000000E+00  0.74505805969E-08  0.10566000000E+00  0.10566000000E+00 0.  1.
     999900   -1    0    0    0    0 -0.00000000000E+00 -0.00000000000E+00 -0.74505805969E-08  0.93827000000E+00  0.93827000000E+00 0. -1.
     999902    2    1    2    0    0 -0.87434659027E-02  0.14797894320E-01  0.16043528540E-01  0.10204178610E+01  0.10201469455E+01 0.  0.
     999903    2    3    3    0    0 -0.10641693634E-01 -0.71991768608E-01  0.10806316242E+00  0.13137137072E+00  0.16873932005E-01 0.  0.
         14    1    1    2    0    0  0.87434659027E-02 -0.14797894320E-01 -0.16043528540E-01  0.23512138999E-01  0.00000000000E+00 0. -1.
     999901    1    3    3    0    0  0.18982277317E-02  0.86789662928E-01 -0.92019633884E-01  0.88904649028E+00  0.88000000000E+00 0. -1.
        -11    1    4    4    0    0 -0.48561514109E-02 -0.28374806177E-01  0.57764196606E-01  0.64542043372E-01  0.51100000000E-03 0. -1.
         11    1    4    4    0    0 -0.57855422234E-02 -0.43616962431E-01  0.50298965818E-01  0.66829327349E-01  0.51100000000E-03 0.  1.
</event>
<event>
 8    1  0.1042301E+005  0.1043930E+01  0.7957747E-01            NaN
         13   -1    0    0    0    0  0.00000000000E+00  0.00000000000E+00  0.74505805969E-08  0.10566000000E+00  0.10566000000E+00 0. -1.
     999900   -1    0    0    0    0 -0.00000000000E+00 -0.00000000000E+00 -0.74505805969E-08  0.93827000000E+00  0.93827000000E+00 0. -1.
     999902    2    1    2    0    0  0.16380264665E-01  0.14655464345E-01 -0.91974618136E-02  0.10201037748E+01  0.10198254862E+01 0.  0.
     999903    2    3    3    0    0 -0.90170473683E-01  0.91725780360E-01 -0.29315738748E-02  0.13031045336E+00  0.20685430173E-01 0.  0.
         14    1    1    2    0    0 -0.16380264665E-01 -0.14655464345E-01  0.91974618136E-02  0.23826225247E-01  0.00000000000E+00 0.  1.
     999901    1    3    3    0    0  0.10655073835E+00 -0.77070316015E-01 -0.62658879388E-02  0.88979332140E+00  0.88000000000E+00 0.  1.
        -11    1    4    4    0    0 -0.33037866466E-01  0.43613580591E-01 -0.86580119076E-02  0.55397358455E-01  0.51100000000E-03 0. -1.
         11    1    4    4    0    0 -0.57132607217E-01  0.48112199769E-01  0.57264380328E-02  0.74913094900E-01  0.51100000000E-03 0.  1.
</event>
<event>
 8    1  0.1042301E+005  0.1043930E+01  0.7957747E-01            NaN
         13   -1    0    0    0    0  0.00000000000E+00  0.00000000000E+00  0.74505805969E-08  0.10566000000E+00  0.10566000000E+00 0.  1.
     999900   -1    0    0    0    0 -0.00000000000E+00 -0.00000000000E+00 -0.74505805969E-08  0.93827000000E+00  0.93827000000E+00 0. -1.
     999902    2    1    2    0    0  0.23446608453E-01  0.42667119620E-03 -0.66589070651E-03  0.10204700574E+01  0.10202003574E+01 0.  0.
     999903    2    3    3    0    0 -0.11044814181E+00  0.53118616921E-01  0.32757859932E-01  0.12815767242E+00  0.18191539736E-01 0.  0.
         14    1    1    2    0    0 -0.23446608453E-01 -0.42667119620E-03  0.66589070651E-03  0.23459942598E-01  0.00000000000E+00 0.  1.
     999901    1    3    3    0    0  0.13389475027E+00 -0.52691945725E-01 -0.33423750639E-01  0.89231238499E+00  0.88000000000E+00 0.  1.
        -11    1    4    4    0    0 -0.33135848569E-01  0.24608864168E-01  0.73533867789E-02  0.41927485903E-01  0.51100000000E-03 0. -1.
         11    1    4    4    0    0 -0.77312293245E-01  0.28509752752E-01  0.25404473153E-01  0.86230186513E-01  0.51100000000E-03 0.  1.
</event>
<event>
 8    1  0.1042301E+005  0.1043930E+01  0.7957747E-01            NaN
         13   -1    0    0    0    0  0.00000000000E+00  0.00000000000E+00  0.74505805969E-08  0.10566000000E+00  0.10566000000E+00 0.  1.
     999900   -1    0    0    0    0 -0.00000000000E+00 -0.00000000000E+00 -0.74505805969E-08  0.93827000000E+00  0.93827000000E+00 0.  1.
     999902    2    1    2    0    0 -0.18497380935E-01  0.15093701144E-01 -0.89933815734E-03  0.10200389614E+01  0.10197591388E+01 0.  0.
     999903    2    3    3    0    0 -0.55351478399E-02 -0.12694304583E+00  0.10711806033E-02  0.12855349326E+00  0.19485339484E-01 0.  0.
         14    1    1    2    0    0  0.18497380935E-01 -0.15093701144E-01  0.89933815734E-03  0.23891038588E-01  0.00000000000E+00 0. -1.
     999901    1    3    3    0    0 -0.12962233096E-01  0.14203674698E+00 -0.19705187607E-02  0.89148546815E+00  0.88000000000E+00 0. -1.
        -11    1    4    4    0    0 -0.38412147731E-03 -0.97829584417E-01  0.80780513324E-02  0.98164612620E-01  0.51100000000E-03 0. -1.
         11    1    4    4    0    0 -0.51510263626E-02 -0.29113461417E-01 -0.70068707290E-02  0.30388880642E-01  0.51100000000E-03 0.  1.
</event>
<event>
 8    1  0.1042301E+005  0.1043930E+01  0.7957747E-01            NaN
         13   -1    0    0    0    0  0.00000000000E+00  0.00000000000E+00  0.74505805969E-08  0.10566000000E+00  0.10566000000E+00 0.  1.
     999900   -1    0    0    0    0 -0.00000000000E+00 -0.00000000000E+00 -0.74505805969E-08  0.93827000000E+00  0.93827000000E+00 0.  1.
     999902    2    1    2    0    0  0.15836179687E-01  0.17145987412E-01  0.41938295463E-02  0.10202159182E+01  0.10199402737E+01 0.  0.
     999903    2    3    3    0    0  0.70359812819E-02  0.60844022389E-01  0.11582373629E+00  0.13204465211E+00  0.16405857760E-01 0.  0.
         14    1    1    2    0    0 -0.15836179687E-01 -0.17145987412E-01 -0.41938295463E-02  0.23714081843E-01  0.00000000000E+00 0.  1.
     999901    1    3    3    0    0  0.88001984047E-02 -0.43698034977E-01 -0.11162990675E+00  0.88817126605E+00  0.88000000000E+00 0.  1.
        -11    1    4    4    0    0  0.10098826522E-01  0.32542981084E-01  0.73757536403E-01  0.81249413612E-01  0.51100000000E-03 0.  1.
         11    1    4    4    0    0 -0.30628452403E-02  0.28301041305E-01  0.42066199889E-01  0.50795238498E-01  0.51100000000E-03 0. -1.
</event>
<event>
 8    1  0.1042301E+005  0.1043930E+01  0.7957747E-01            NaN
         13   -1    0    0    0    0  0.00000000000E+00  0.00000000000E+00  0.74505805969E-08  0.10566000000E+00  0.10566000000E+00 0. -1.
     999900   -1    0    0    0    0 -0.00000000000E+00 -0.00000000000E+00 -0.74505805969E-08  0.93827000000E+00  0.93827000000E+00 0. -1.
     999902    2    1    2    0    0 -0.20475558616E-01 -0.10699206515E-01  0.59270809527E-02  0.10200793856E+01  0.10198005202E+01 0.  0.
     999903    2    3    3    0    0 -0.36613421165E-01  0.12063900531E+00 -0.23442649927E-01  0.12970152331E+00  0.19458034379E-01 0.  0.
         14    1    1    2    0    0  0.20475558616E-01  0.10699206515E-01 -0.59270809527E-02  0.23850614443E-01  0.00000000000E+00 0. -1.
     999901    1    3    3    0    0  0.16137862549E-01 -0.13133821182E+00  0.29369730880E-01  0.89037786225E+00  0.88000000000E+00 0.  1.
        -11    1    4    4    0    0 -0.44119495871E-02  0.46505131843E-01 -0.97349246234E-02  0.47720252151E-01  0.51100000000E-03 0. -1.
         11    1    4    4    0    0 -0.32201471578E-01  0.74133873463E-01 -0.13707725303E-01  0.81981271157E-01  0.51100000000E-03 0.  1.
</event>
<event>
 8    1  0.1042301E+005  0.1043930E+01  0.7957747E-01            NaN
         13   -1    0    0    0    0  0.00000000000E+00  0.00000000000E+00  0.74505805969E-08  0.10566000000E+00  0.10566000000E+00 0. -1.
     999900   -1    0    0    0    0 -0.00000000000E+00 -0.00000000000E+00 -0.74505805969E-08  0.93827000000E+00  0.93827000000E+00 0.  1.
     999902    2    1    2    0    0 -0.20716521874E-01  0.89340456198E-02  0.74182470540E-02  0.10201808560E+01  0.10199043863E+01 0.  0.
     999903    2    3    3    0    0 -0.52574912560E-01  0.11858140400E+00 -0.16117722585E-01  0.13249203549E+00  0.21649195892E-01 0.  0.
         14    1    1    2    0    0  0.20716521874E-01 -0.89340456198E-02 -0.74182470540E-02  0.23749143964E-01  0.00000000000E+00 0.  1.
     999901    1    3    3    0    0  0.31858390686E-01 -0.10964735838E+00  0.23535969639E-01  0.88768882055E+00  0.88000000000E+00 0. -1.
        -11    1    4    4    0    0  0.12569473953E-02  0.11071284273E-02  0.11882557873E-02  0.21162993468E-02  0.51100000000E-03 0. -1.
         11    1    4    4    0    0 -0.53831859955E-01  0.11747427557E+00 -0.17305978372E-01  0.13037573614E+00  0.51100000000E-03 0. -1.
</event>
<event>
 8    1  0.1042301E+005  0.1043930E+01  0.7957747E-01            NaN
         13   -1    0    0    0    0  0.00000000000E+00  0.00000000000E+00  0.74505805969E-08  0.10566000000E+00  0.10566000000E+00 0.  1.
     999900   -1    0    0    0    0 -0.00000000000E+00 -0.00000000000E+00 -0.74505805969E-08  0.93827000000E+00  0.93827000000E+00 0. -1.
     999902    2    1    2    0    0  0.37309095041E-02 -0.11065690942E-01  0.21136664495E-01  0.10197819610E+01  0.10194960128E+01 0.  0.
     999903    2    3    3    0    0  0.40378169906E-01 -0.31894002866E-01 -0.11566550902E+00  0.12821498373E+00  0.20321123293E-01 0.  0.
         14    1    1    2    0    0 -0.37309095041E-02  0.11065690942E-01 -0.21136664495E-01  0.24148039004E-01  0.00000000000E+00 0. -1.
     999901    1    3    3    0    0 -0.36647260402E-01  0.20828311924E-01  0.13680217352E+00  0.89156697727E+00  0.88000000000E+00 0.  1.
        -11    1    4    4    0    0  0.25711008994E-01 -0.99908837430E-02 -0.44913230540E-01  0.52709896034E-01  0.51100000000E-03 0. -1.
         11    1    4    4    0    0  0.14667160912E-01 -0.21903119123E-01 -0.70752278481E-01  0.75505087695E-01  0.51100000000E-03 0.  1.
</event>
<event>
 8    1  0.1042301E+005  0.1043930E+01  0.7957747E-01            NaN
         13   -1    0    0    0    0  0.00000000000E+00  0.00000000000E+00  0.74505805969E-08  0.10566000000E+00  0.10566000000E+00 0. -1.
     999900   -1    0    0    0    0 -0.00000000000E+00 -0.00000000000E+00 -0.74505805969E-08  0.93827000000E+00  0.93827000000E+00 0.  1.
     999902    2    1    2    0    0  0.18038482618E-01  0.12134105662E-01 -0.21488376436E-02  0.10220841565E+01  0.10218506653E+01 0.  0.
     999903    2    3    3    0    0  0.92260019174E-01  0.89941214813E-01 -0.34669323225E-01  0.13494247406E+00  0.20153810380E-01 0.  0.
         14    1    1    2    0    0 -0.18038482618E-01 -0.12134105662E-01  0.21488376436E-02  0.21845843508E-01  0.00000000000E+00 0. -1.
     999901    1    3    3    0    0 -0.74221536556E-01 -0.77807109151E-01  0.32520485582E-01  0.88714168243E+00  0.88000000000E+00 0. -1.
        -11    1    4    4    0    0  0.38766835277E-01  0.29282699463E-01 -0.52023323450E-02  0.48863784012E-01  0.51100000000E-03 0.  1.
         11    1    4    4    0    0  0.53493183897E-01  0.60658515350E-01 -0.29466990880E-01  0.86078690049E-01  0.51100000000E-03 0. -1.
</event>
<event>
 8    1  0.1042301E+005  0.1043930E+01  0.7957747E-01            NaN
         13   -1    0    0    0    0  0.00000000000E+00  0.00000000000E+00  0.74505805969E-08  0.10566000000E+00  0.10566000000E+00 0.  1.
     999900   -1    0    0    0    0 -0.00000000000E+00 -0.00000000000E+00 -0.74505805969E-08  0.93827000000E+00  0.93827000000E+00 0. -1.
     999902    2    1    2    0    0  0.59449940124E-02 -0.22120144462E-01 -0.61033858127E-02  0.10202256742E+01  0.10199502592E+01 0.  0.
     999903    2    3    3    0    0  0.35383269492E-01  0.48173706139E-01 -0.11419360819E+00  0.13034291016E+00  0.19401349335E-01 0.  0.
         14    1    1    2    0    0 -0.59449940124E-02  0.22120144462E-01  0.61033858127E-02  0.23704325833E-01  0.00000000000E+00 0.  1.
     999901    1    3    3    0    0 -0.29438275480E-01 -0.70293850601E-01  0.10809022238E+00  0.88988276400E+00  0.88000000000E+00 0.  1.
        -11    1    4    4    0    0  0.20548644174E-01  0.36093450176E-01 -0.60889749126E-01  0.73707574866E-01  0.51100000000E-03 0. -1.
         11    1    4    4    0    0  0.14834625318E-01  0.12080255963E-01 -0.53303859062E-01  0.56635335298E-01  0.51100000000E-03 0.  1.
</event>
<event>
 8    1  0.1042301E+005  0.1043930E+01  0.7957747E-01            NaN
         13   -1    0    0    0    0  0.00000000000E+00  0.00000000000E+00  0.74505805969E-08  0.10566000000E+00  0.10566000000E+00 0.  1.
     999900   -1    0    0    0    0 -0.00000000000E+00 -0.00000000000E+00 -0.74505805969E-08  0.93827000000E+00  0.93827000000E+00 0. -1.
     999902    2    1    2    0    0 -0.13526663769E-01 -0.60120105797E-02  0.17620756584E-01  0.10209168306E+01  0.10206574200E+01 0.  0.
     999903    2    3    3    0    0 -0.69014958575E-01 -0.30639500231E-01  0.10900106210E+00  0.13410466088E+00  0.20024611094E-01 0.  0.
         14    1    1    2    0    0  0.13526663769E-01  0.60120105797E-02 -0.17620756584E-01  0.23013169415E-01  0.00000000000E+00 0. -1.
     999901    1    3    3    0    0  0.55488294806E-01  0.24627489651E-01 -0.91380305511E-01  0.88681216971E+00  0.88000000000E+00 0. -1.
        -11    1    4    4    0    0 -0.61995281848E-01 -0.32110827854E-01  0.10430643696E+00  0.12551738584E+00  0.51100000000E-03 0.  1.
         11    1    4    4    0    0 -0.70196767267E-02  0.14713276231E-02  0.46946251353E-02  0.85872750324E-02  0.51100000000E-03 0. -1.
</event>
<event>
 8    1  0.1042301E+005  0.1043930E+01  0.7957747E-01            NaN
         13   -1    0    0    0    0  0.00000000000E+00  0.00000000000E+00  0.74505805969E-08  0.10566000000E+00  0.10566000000E+00 0.  1.
     999900   -1    0    0    0    0 -0.00000000000E+00 -0.00000000000E+00 -0.74505805969E-08  0.93827000000E+00  0.93827000000E+00 0. -1.
     999902    2    1    2    0    0  0.49529130868E-02 -0.58213391029E-03 -0.22768529598E-01  0.10206217146E+01  0.10203555303E+01 0.  0.
     999903    2    3    3    0    0 -0.34657571060E-03 -0.10761669500E+00 -0.74875601894E-01  0.13259039262E+00  0.19808667247E-01 0.  0.
         14    1    1    2    0    0 -0.49529130868E-02  0.58213391029E-03  0.22768529598E-01  0.23308285394E-01  0.00000000000E+00 0.  1.
     999901    1    3    3    0    0  0.52994887974E-02  0.10703456109E+00  0.52107072295E-01  0.88803132199E+00  0.88000000000E+00 0.  1.
        -11    1    4    4    0    0  0.81560360607E-02 -0.45327621583E-01 -0.37954939370E-01  0.59682097367E-01  0.51100000000E-03 0. -1.
         11    1    4    4    0    0 -0.85026117713E-02 -0.62289073417E-01 -0.36920662523E-01  0.72908295250E-01  0.51100000000E-03 0.  1.
</event>
<event>
 8    1  0.1042301E+005  0.1043930E+01  0.7957747E-01            NaN
         13   -1    0    0    0    0  0.00000000000E+00  0.00000000000E+00  0.74505805969E-08  0.10566000000E+00  0.10566000000E+00 0.  1.
     999900   -1    0    0    0    0 -0.00000000000E+00 -0.00000000000E+00 -0.74505805969E-08  0.93827000000E+00  0.93827000000E+00 0. -1.
     999902    2    1    2    0    0  0.33646797934E-02 -0.19358212474E-01 -0.14393336322E-01  0.10195736951E+01  0.10192827331E+01 0.  0.
     999903    2    3    3    0    0  0.97766193476E-01  0.80779284274E-01 -0.11863117075E-01  0.12887421372E+00  0.19603776667E-01 0.  0.
         14    1    1    2    0    0 -0.33646797934E-02  0.19358212474E-01  0.14393336322E-01  0.24356304950E-01  0.00000000000E+00 0.  1.
     999901    1    3    3    0    0 -0.94401513682E-01 -0.10013749675E+00 -0.25302192472E-02  0.89069948133E+00  0.88000000000E+00 0. -1.
        -11    1    4    4    0    0  0.52144223338E-01  0.44630621738E-01 -0.16132281134E-01  0.70508326032E-01  0.51100000000E-03 0.  1.
         11    1    4    4    0    0  0.45621970137E-01  0.36148662536E-01  0.42691640590E-02  0.58365887684E-01  0.51100000000E-03 0. -1.
</event>
<event>
 8    1  0.1042301E+005  0.1043930E+01  0.7957747E-01            NaN
         13   -1    0    0    0    0  0.00000000000E+00  0.00000000000E+00  0.74505805969E-08  0.10566000000E+00  0.10566000000E+00 0. -1.
     999900   -1    0    0    0    0 -0.00000000000E+00 -0.00000000000E+00 -0.74505805969E-08  0.93827000000E+00  0.93827000000E+00 0.  1.
     999902    2    1    2    0    0 -0.12272424954E-01 -0.18107727427E-01  0.81651334362E-02  0.10205810897E+01  0.10203139659E+01 0.  0.
     999903    2    3    3    0    0  0.35957999616E-01 -0.12591715933E+00 -0.64862928097E-02  0.13256999084E+00  0.19611775180E-01 0.  0.
         14    1    1    2    0    0  0.12272424954E-01  0.18107727427E-01 -0.81651334362E-02  0.23348910271E-01  0.00000000000E+00 0.  1.
     999901    1    3    3    0    0 -0.48230424570E-01  0.10780943190E+00  0.14651426246E-01  0.88801109889E+00  0.88000000000E+00 0. -1.
        -11    1    4    4    0    0  0.18200763045E-01 -0.48594296968E-01 -0.11216372215E-01  0.53091822345E-01  0.51100000000E-03 0.  1.
         11    1    4    4    0    0  0.17757236571E-01 -0.77322862364E-01  0.47300794057E-02  0.79478168493E-01  0.51100000000E-03 0. -1.
</event>
<event>
 8    1  0.1042301E+005  0.1043930E+01  0.7957747E-01            NaN
         13   -1    0    0    0    0  0.00000000000E+00  0.00000000000E+00  0.74505805969E-08  0.10566000000E+00  0.10566000000E+00 0.  1.
     999900   -1    0    0    0    0 -0.00000000000E+00 -0.00000000000E+00 -0.74505805969E-08  0.93827000000E+00  0.93827000000E+00 0.  1.
     999902    2    1    2    0    0  0.21870991750E-01 -0.45390259183E-02 -0.83965321999E-02  0.10200669577E+01  0.10197877982E+01 0.  0.
     999903    2    3    3    0    0  0.43971377569E-01  0.98273332502E-01  0.70820528475E-01  0.13027251466E+00  0.19085358182E-01 0.  0.
         14    1    1    2    0    0 -0.21870991750E-01  0.45390259183E-02  0.83965321999E-02  0.23863042334E-01  0.00000000000E+00 0. -1.
     999901    1    3    3    0    0 -0.22100385818E-01 -0.10281235842E+00 -0.79217060675E-01  0.88979444300E+00  0.88000000000E+00 0.  1.
        -11    1    4    4    0    0  0.14190181915E-01  0.37155262844E-01  0.15762375462E-01  0.42785376252E-01  0.51100000000E-03 0. -1.
         11    1    4    4    0    0  0.29781195653E-01  0.61118069658E-01  0.55058153013E-01  0.87487138412E-01  0.51100000000E-03 0.  1.
</event>
<event>
 8    1  0.1208480E+005  0.1043930E+01  0.7957747E-01            NaN
         13   -1    0    0    0    0  0.00000000000E+00  0.00000000000E+00  0.74505805969E-08  0.10566000000E+00  0.10566000000E+00 0.  1.
     999900   -1    0    0    0    0 -0.00000000000E+00 -0.00000000000E+00 -0.74505805969E-08  0.93827000000E+00  0.93827000000E+00 0. -1.
     999902    2    1    2    0    0 -0.12701534086E-01 -0.10240164294E-01 -0.17358823275E-01  0.10201073495E+01  0.10198291454E+01 0.  0.
     999903    2    3    3    0    0  0.10582476793E+00  0.69655853357E-01  0.20237842839E-02  0.12836324751E+00  0.20547705328E-01 0.  0.
         14    1    1    2    0    0  0.12701534086E-01  0.10240164294E-01  0.17358823275E-01  0.23822650533E-01  0.00000000000E+00 0. -1.
     999901    1    3    3    0    0 -0.11852630201E+00 -0.79896017651E-01 -0.19382607559E-01  0.89174410196E+00  0.88000000000E+00 0. -1.
        -11    1    4    4    0    0  0.63550253821E-01  0.40010080096E-01  0.11168273509E-01  0.75923861363E-01  0.51100000000E-03 0. -1.
         11    1    4    4    0    0  0.42274514105E-01  0.29645773261E-01 -0.91444892249E-02  0.52439386144E-01  0.51100000000E-03 0.  1.
</event>
<event>
 8    1  0.1042301E+005  0.1043930E+01  0.7957747E-01            NaN
         13   -1    0    0    0    0  0.00000000000E+00  0.00000000000E+00  0.74505805969E-08  0.10566000000E+00  0.10566000000E+00 0. -1.
     999900   -1    0    0    0    0 -0.00000000000E+00 -0.00000000000E+00 -0.74505805969E-08  0.93827000000E+00  0.93827000000E+00 0. -1.
     999902    2    1    2    0    0  0.11257147525E-01 -0.11351349686E-01  0.17003456450E-01  0.10205913188E+01  0.10203244317E+01 0.  0.
     999903    2    3    3    0    0 -0.12204457616E+00  0.36577848473E-02  0.40008850186E-01  0.13012858974E+00  0.20603005009E-01 0.  0.
         14    1    1    2    0    0 -0.11257147525E-01  0.11351349686E-01 -0.17003456450E-01  0.23338681226E-01  0.00000000000E+00 0.  1.
     999901    1    3    3    0    0  0.13330172368E+00 -0.15009134534E-01 -0.23005393736E-01  0.89046272903E+00  0.88000000000E+00 0.  1.
        -11    1    4    4    0    0 -0.22524609413E-01  0.31568637392E-04 -0.70204701544E-03  0.22541362355E-01  0.51100000000E-03 0. -1.
         11    1    4    4    0    0 -0.99519966744E-01  0.36262162099E-02  0.40710897202E-01  0.10758722739E+00  0.51100000000E-03 0.  1.
</event>
<event>
 8    1  0.1042301E+005  0.1043930E+01  0.7957747E-01            NaN
         13   -1    0    0    0    0  0.00000000000E+00  0.00000000000E+00  0.74505805969E-08  0.10566000000E+00  0.10566000000E+00 0. -1.
     999900   -1    0    0    0    0 -0.00000000000E+00 -0.00000000000E+00 -0.74505805969E-08  0.93827000000E+00  0.93827000000E+00 0. -1.
     999902    2    1    2    0    0  0.19105120922E-01  0.13422860553E-01 -0.19918957208E-02  0.10204961254E+01  0.10202270313E+01 0.  0.
     999903    2    3    3    0    0  0.11335167586E+00 -0.63008593217E-01  0.14754463101E-01  0.13201167376E+00  0.19766198140E-01 0.  0.
         14    1    1    2    0    0 -0.19105120922E-01 -0.13422860553E-01  0.19918957208E-02  0.23433874614E-01  0.00000000000E+00 0. -1.
     999901    1    3    3    0    0 -0.94246554937E-01  0.76431453770E-01 -0.16746358821E-01  0.88848445162E+00  0.88000000000E+00 0.  1.
        -11    1    4    4    0    0  0.78231985335E-01 -0.37258022723E-01  0.21756056463E-02  0.86679860219E-01  0.51100000000E-03 0. -1.
         11    1    4    4    0    0  0.35119690524E-01 -0.25750570494E-01  0.12578857454E-01  0.45331813543E-01  0.51100000000E-03 0.  1.
</event>
<event>
 8    1  0.1042301E+005  0.1043930E+01  0.7957747E-01            NaN
         13   -1    0    0    0    0  0.00000000000E+00  0.00000000000E+00  0.74505805969E-08  0.10566000000E+00  0.10566000000E+00 0. -1.
     999900   -1    0    0    0    0 -0.00000000000E+00 -0.00000000000E+00 -0.74505805969E-08  0.93827000000E+00  0.93827000000E+00 0.  1.
     999902    2    1    2    0    0  0.21375525648E-01  0.96356009419E-02 -0.61973937384E-02  0.10196778745E+01  0.10193894262E+01 0.  0.
     999903    2    3    3    0    0 -0.11190271411E+00 -0.39854915435E-01  0.41004369918E-01  0.12701869715E+00  0.18486734810E-01 0.  0.
         14    1    1    2    0    0 -0.21375525648E-01 -0.96356009419E-02  0.61973937384E-02  0.24252125503E-01  0.00000000000E+00 0. -1.
     999901    1    3    3    0    0  0.13327823976E+00  0.49490516377E-01 -0.47201763657E-01  0.89265917734E+00  0.88000000000E+00 0.  1.
        -11    1    4    4    0    0 -0.21669993615E-01 -0.15265914513E-01  0.11986698135E-01  0.29096027604E-01  0.51100000000E-03 0.  1.
         11    1    4    4    0    0 -0.90232720497E-01 -0.24589000922E-01  0.29017671783E-01  0.97922669548E-01  0.51100000000E-03 0. -1.
</event>
<event>
 8    1  0.1042301E+005  0.1043930E+01  0.7957747E-01            NaN
         13   -1    0    0    0    0  0.00000000000E+00  0.00000000000E+00  0.74505805969E-08  0.10566000000E+00  0.10566000000E+00 0. -1.
     999900   -1    0    0    0    0 -0.00000000000E+00 -0.00000000000E+00 -0.74505805969E-08  0.93827000000E+00  0.93827000000E+00 0.  1.
     999902    2    1    2    0    0  0.64998062567E-02  0.20970201616E-01 -0.97022687460E-02  0.10199272740E+01  0.10196447976E+01 0.  0.
     999903    2    3    3    0    0  0.22687801330E-01  0.26348111518E-02 -0.12823372550E+00  0.13164356707E+00  0.19090883613E-01 0.  0.
         14    1    1    2    0    0 -0.64998062567E-02 -0.20970201616E-01  0.97022687460E-02  0.24002726012E-01  0.00000000000E+00 0. -1.
     999901    1    3    3    0    0 -0.16187995074E-01  0.18335390464E-01  0.11853145676E+00  0.88828370691E+00  0.88000000000E+00 0. -1.
        -11    1    4    4    0    0 -0.13744454752E-02  0.50415541812E-02 -0.31320594848E-01  0.31757631391E-01  0.51100000000E-03 0. -1.
         11    1    4    4    0    0  0.24062246806E-01 -0.24067430294E-02 -0.96913130653E-01  0.99885935683E-01  0.51100000000E-03 0.  1.
</event>
<event>
 8    1  0.1042301E+005  0.1043930E+01  0.7957747E-01            NaN
         13   -1    0    0    0    0  0.00000000000E+00  0.00000000000E+00  0.74505805969E-08  0.10566000000E+00  0.10566000000E+00 0.  1.
     999900   -1    0    0    0    0 -0.00000000000E+00 -0.00000000000E+00 -0.74505805969E-08  0.93827000000E+00  0.93827000000E+00 0. -1.
     999902    2    1    2    0    0 -0.87897705989E-02  0.10020793456E-01  0.19915284374E-01  0.10199655488E+01  0.10196839833E+01 0.  0.
     999903    2    3    3    0    0  0.96022598198E-01  0.62775410884E-01  0.59728565947E-01  0.13128462762E+00  0.22517999093E-01 0.  0.
         14    1    1    2    0    0  0.87897705989E-02 -0.10020793456E-01 -0.19915284374E-01  0.23964451180E-01  0.00000000000E+00 0. -1.
     999901    1    3    3    0    0 -0.10481236880E+00 -0.52754617427E-01 -0.39813281574E-01  0.88868092120E+00  0.88000000000E+00 0. -1.
        -11    1    4    4    0    0  0.55177542138E-01  0.46448326097E-01  0.44414425106E-01  0.84704843027E-01  0.51100000000E-03 0.  1.
         11    1    4    4    0    0  0.40845056060E-01  0.16327084786E-01  0.15314140841E-01  0.46579784594E-01  0.51100000000E-03 0. -1.
</event>
<event>
 8    1  0.1042301E+005  0.1043930E+01  0.7957747E-01            NaN
         13   -1    0    0    0    0  0.00000000000E+00  0.00000000000E+00  0.74505805969E-08  0.10566000000E+00  0.10566000000E+00 0.  1.
     999900   -1    0    0    0    0 -0.00000000000E+00 -0.00000000000E+00 -0.74505805969E-08  0.93827000000E+00  0.93827000000E+00 0. -1.
     999902    2    1    2    0    0  0.16437774290E-01  0.15139202003E-01 -0.78821962940E-02  0.10202334838E+01  0.10199582524E+01 0.  0.
     999903    2    3    3    0    0 -0.49255250584E-01 -0.18908942885E-02  0.11729810583E+00  0.12878763255E+00  0.19943757804E-01 0.  0.
         14    1    1    2    0    0 -0.16437774290E-01 -0.15139202003E-01  0.78821962940E-02  0.23696516185E-01  0.00000000000E+00 0. -1.
     999901    1    3    3    0    0  0.65693024874E-01  0.17030096291E-01 -0.12518030212E+00  0.89144585126E+00  0.88000000000E+00 0. -1.
        -11    1    4    4    0    0 -0.45488587805E-02 -0.64809720937E-02  0.13194122834E-01  0.15396139576E-01  0.51100000000E-03 0.  1.
         11    1    4    4    0    0 -0.44706391803E-01  0.45900778051E-02  0.10410398300E+00  0.11339149297E+00  0.51100000000E-03 0. -1.
</event>
<event>
 8    1  0.1042301E+005  0.1043930E+01  0.7957747E-01            NaN
         13   -1    0    0    0    0  0.00000000000E+00  0.00000000000E+00  0.74505805969E-08  0.10566000000E+00  0.10566000000E+00 0.  1.
     999900   -1    0    0    0    0 -0.00000000000E+00 -0.00000000000E+00 -0.74505805969E-08  0.93827000000E+00  0.93827000000E+00 0. -1.
     999902    2    1    2    0    0 -0.10531733832E-01  0.13344837617E-01 -0.16874159030E-01  0.10199771431E+01  0.10196958533E+01 0.  0.
     999903    2    3    3    0    0  0.20698865334E-01 -0.48359389197E-01  0.11444511742E+00  0.12754926690E+00  0.20101170000E-01 0.  0.
         14    1    1    2    0    0  0.10531733832E-01 -0.13344837617E-01  0.16874159030E-01  0.23952856855E-01  0.00000000000E+00 0.  1.
     999901    1    3    3    0    0 -0.31230599166E-01  0.61704226815E-01 -0.13131927645E+00  0.89242787624E+00  0.88000000000E+00 0. -1.
        -11    1    4    4    0    0 -0.44301114579E-03 -0.19749177110E-01  0.30092302044E-01  0.36000472479E-01  0.51100000000E-03 0.  1.
         11    1    4    4    0    0  0.21141876480E-01 -0.28610212087E-01  0.84352815377E-01  0.91548794421E-01  0.51100000000E-03 0. -1.
</event>
<event>
 8    1  0.1042301E+005  0.1043930E+01  0.7957747E-01            NaN
         13   -1    0    0    0    0  0.00000000000E+00  0.00000000000E+00  0.74505805969E-08  0.10566000000E+00  0.10566000000E+00 0. -1.
     999900   -1    0    0    0    0 -0.00000000000E+00 -0.00000000000E+00 -0.74505805969E-08  0.93827000000E+00  0.93827000000E+00 0. -1.
     999902    2    1    2    0    0  0.54562463580E-02  0.27239286049E-02 -0.23452361941E-01  0.10196977139E+01  0.10194097429E+01 0.  0.
     999903    2    3    3    0    0 -0.31326892149E-02  0.12681834824E+00 -0.26132033134E-01  0.13094556874E+00  0.19265295913E-01 0.  0.
         14    1    1    2    0    0 -0.54562463580E-02 -0.27239286049E-02  0.23452361941E-01  0.24232286148E-01  0.00000000000E+00 0. -1.
     999901    1    3    3    0    0  0.85889355729E-02 -0.12409441963E+00  0.26796711930E-02  0.88875214511E+00  0.88000000000E+00 0.  1.
        -11    1    4    4    0    0 -0.57516427734E-02  0.29390864035E-01  0.32482136882E-03  0.29954480687E-01  0.51100000000E-03 0.  1.
         11    1    4    4    0    0  0.26189535584E-02  0.97427484201E-01 -0.26456854503E-01  0.10099108806E+00  0.51100000000E-03 0. -1.
</event>
<event>
 7    1  0.1042301E+005  0.1043930E+01  0.7957747E-01            NaN
         13   -1    0    0    0    0  0.00000000000E+00  0.00000000000E+00  0.74505805969E-08  0.10566000000E+00  0.10566000000E+00 0. -1.
     999900   -1    0    0    0    0 -0.00000000000E+00 -0.00000000000E+00 -0.74505805969E-08  0.93827000000E+00  0.93827000000E+00 0. -1.
     999902    2    1    2    0    0 -0.18891571151E-01 -0.14923289072E-01  0.69238152294E-03  0.10198452453E+01  0.10195608118E+01 0.  0.
         14    1    1    2    0    0  0.18891571151E-01  0.14923289072E-01 -0.69238152294E-03  0.24084754711E-01  0.00000000000E+00 0.  1.
     999901    1    3    3    0    0  0.90652221755E-01 -0.56508167041E-01  0.50269837035E-01  0.88788403227E+00  0.88000000000E+00 0. -1.
        -11    1    3    3    0    0 -0.56417875390E-01  0.39568608546E-01 -0.24095782906E-01  0.73003556904E-01  0.51100000000E-03 0.  1.
         11    1    3    3    0    0 -0.53125917516E-01  0.20162694224E-02 -0.25481672606E-01  0.58957656111E-01  0.51100000000E-03 0. -1.
</event>
<event>
 8    1  0.1042301E+005  0.1043930E+01  0.7957747E-01            NaN
         13   -1    0    0    0    0  0.00000000000E+00  0.00000000000E+00  0.74505805969E-08  0.10566000000E+00  0.10566000000E+00 0. -1.
     999900   -1    0    0    0    0 -0.00000000000E+00 -0.00000000000E+00 -0.74505805969E-08  0.93827000000E+00  0.93827000000E+00 0. -1.
     999902    2    1    2    0    0 -0.52147886679E-02  0.19153990727E-01 -0.14454831343E-01  0.10193737069E+01  0.10190778885E+01 0.  0.
     999903    2    3    3    0    0 -0.37034706177E-03 -0.10798333445E+00 -0.67023936896E-01  0.12867124315E+00  0.20088380293E-01 0.  0.
         14    1    1    2    0    0  0.52147886679E-02 -0.19153990727E-01  0.14454831343E-01  0.24556293099E-01  0.00000000000E+00 0. -1.
     999901    1    3    3    0    0 -0.48444416061E-02  0.12713732517E+00  0.52569105553E-01  0.89070246375E+00  0.88000000000E+00 0. -1.
        -11    1    4    4    0    0  0.46531292179E-02 -0.96955792170E-01 -0.54882662602E-01  0.11150984271E+00  0.51100000000E-03 0.  1.
         11    1    4    4    0    0 -0.50234762796E-02 -0.11027542276E-01 -0.12141274294E-01  0.17161400440E-01  0.51100000000E-03 0. -1.
</event>
<event>
 8    1  0.1042301E+005  0.1043930E+01  0.7957747E-01            NaN
         13   -1    0    0    0    0  0.00000000000E+00  0.00000000000E+00  0.74505805969E-08  0.10566000000E+00  0.10566000000E+00 0.  1.
     999900   -1    0    0    0    0 -0.00000000000E+00 -0.00000000000E+00 -0.74505805969E-08  0.93827000000E+00  0.93827000000E+00 0. -1.
     999902    2    1    2    0    0  0.24292503107E-02 -0.15371950251E-01 -0.18513173541E-01  0.10197445559E+01  0.10194577105E+01 0.  0.
     999903    2    3    3    0    0  0.98385953849E-01  0.78803342603E-01 -0.21898509467E-01  0.12952652910E+00  0.20194412709E-01 0.  0.
         14    1    1    2    0    0 -0.24292503107E-02  0.15371950251E-01  0.18513173541E-01  0.24185444097E-01  0.00000000000E+00 0.  1.
     999901    1    3    3    0    0 -0.95956703539E-01 -0.94175292855E-01  0.33853359261E-02  0.89021802680E+00  0.88000000000E+00 0.  1.
        -11    1    4    4    0    0  0.70360273062E-01  0.48029339789E-01 -0.21649318797E-01  0.87899599722E-01  0.51100000000E-03 0.  1.
         11    1    4    4    0    0  0.28025680787E-01  0.30774002814E-01 -0.24919067013E-03  0.41626929382E-01  0.51100000000E-03 0. -1.
</event>
<event>
 8    1  0.1042301E+005  0.1043930E+01  0.7957747E-01            NaN
         13   -1    0    0    0    0  0.00000000000E+00  0.00000000000E+00  0.74505805969E-08  0.10566000000E+00  0.10566000000E+00 0. -1.
     999900   -1    0    0    0    0 -0.00000000000E+00 -0.00000000000E+00 -0.74505805969E-08  0.93827000000E+00  0.93827000000E+00 0. -1.
     999902    2    1    2    0    0 -0.10526560896E-01  0.14281339766E-01 -0.16195809354E-01  0.10199077314E+01  0.10196247894E+01 0.  0.
     999903    2    3    3    0    0  0.47144308251E-02  0.54747422028E-01  0.11515647463E+00  0.12910853168E+00  0.19710231520E-01 0.  0.
         14    1    1    2    0    0  0.10526560896E-01 -0.14281339766E-01  0.16195809354E-01  0.24022268637E-01  0.00000000000E+00 0. -1.
     999901    1    3    3    0    0 -0.15240991721E-01 -0.40466082262E-01 -0.13135228399E+00  0.89079919968E+00  0.88000000000E+00 0. -1.
        -11    1    4    4    0    0 -0.51192885968E-02  0.37920769198E-01  0.84738776543E-01  0.92979101003E-01  0.51100000000E-03 0.  1.
         11    1    4    4    0    0  0.98337194219E-02  0.16826652831E-01  0.30417698090E-01  0.36129430680E-01  0.51100000000E-03 0. -1.
</event>
<event>
 8    1  0.1042301E+005  0.1043930E+01  0.7957747E-01            NaN
         13   -1    0    0    0    0  0.00000000000E+00  0.00000000000E+00  0.74505805969E-08  0.10566000000E+00  0.10566000000E+00 0. -1.
     999900   -1    0    0    0    0 -0.00000000000E+00 -0.00000000000E+00 -0.74505805969E-08  0.93827000000E+00  0.93827000000E+00 0.  1.
     999902    2    1    2    0    0  0.17785951176E-01 -0.14086847277E-01 -0.14319838374E-01  0.10171002200E+01  0.10167462911E+01 0.  0.
     999903    2    3    3    0    0 -0.10780742654E+00 -0.18584642041E-01 -0.61160446202E-01  0.12693845421E+00  0.20123141897E-01 0.  0.
         14    1    1    2    0    0 -0.17785951176E-01  0.14086847277E-01  0.14319838374E-01  0.26829780030E-01  0.00000000000E+00 0. -1.
     999901    1    3    3    0    0  0.12559337772E+00  0.44977947647E-02  0.46840607828E-01  0.89016176576E+00  0.88000000000E+00 0. -1.
        -11    1    4    4    0    0 -0.58484576486E-01 -0.40060471417E-02 -0.23356828463E-01  0.63105440790E-01  0.51100000000E-03 0. -1.
         11    1    4    4    0    0 -0.49322850054E-01 -0.14578594900E-01 -0.37803617740E-01  0.63833013417E-01  0.51100000000E-03 0.  1.
</event>
<event>
 8    1  0.1042301E+005  0.1043930E+01  0.7957747E-01            NaN
         13   -1    0    0    0    0  0.00000000000E+00  0.00000000000E+00  0.74505805969E-08  0.10566000000E+00  0.10566000000E+00 0. -1.
     999900   -1    0    0    0    0 -0.00000000000E+00 -0.00000000000E+00 -0.74505805969E-08  0.93827000000E+00  0.93827000000E+00 0. -1.
     999902    2    1    2    0    0  0.45529511749E-03 -0.19674357054E-01 -0.13678748571E-01  0.10199634445E+01  0.10196818290E+01 0.  0.
     999903    2    3    3    0    0  0.30187113094E-01 -0.12646724575E+00  0.13431949881E-01  0.13259447276E+00  0.22263218157E-01 0.  0.
         14    1    1    2    0    0 -0.45529511749E-03  0.19674357054E-01  0.13678748571E-01  0.23966555481E-01  0.00000000000E+00 0. -1.
     999901    1    3    3    0    0 -0.29731817977E-01  0.10679288870E+00 -0.27110698452E-01  0.88736897176E+00  0.88000000000E+00 0. -1.
        -11    1    4    4    0    0  0.23977394924E-01 -0.11886955137E+00  0.84006215699E-02  0.12155540825E+00  0.51100000000E-03 0. -1.
         11    1    4    4    0    0  0.62097181700E-02 -0.75976943834E-02  0.50313283106E-02  0.11039064510E-01  0.51100000000E-03 0.  1.
</event>
<event>
 8    1  0.1042301E+005  0.1043930E+01  0.7957747E-01            NaN
         13   -1    0    0    0    0  0.00000000000E+00  0.00000000000E+00  0.74505805969E-08  0.10566000000E+00  0.10566000000E+00 0.  1.
     999900   -1    0    0    0    0 -0.00000000000E+00 -0.00000000000E+00 -0.74505805969E-08  0.93827000000E+00  0.93827000000E+00 0.  1.
     999902    2    1    2    0    0 -0.96729891618E-02 -0.14954761595E-01  0.15749512472E-01  0.10201548290E+01  0.10198777458E+01 0.  0.
     999903    2    3    3    0    0  0.97022889652E-01  0.81295450943E-01  0.94679059449E-02  0.12847799708E+00  0.19863610728E-01 0.  0.
         14    1    1    2    0    0  0.96729891618E-02  0.14954761595E-01 -0.15749512472E-01  0.23775171015E-01  0.00000000000E+00 0.  1.
     999901    1    3    3    0    0 -0.10669587881E+00 -0.96250212538E-01  0.62816065268E-02  0.89167683190E+00  0.88000000000E+00 0. -1.
        -11    1    4    4    0    0  0.31356498079E-01  0.31600774312E-01 -0.52213469376E-02  0.44825913195E-01  0.51100000000E-03 0.  1.
         11    1    4    4    0    0  0.65666391573E-01  0.49694676631E-01  0.14689252882E-01  0.83652083888E-01  0.51100000000E-03 0. -1.
</event>
<event>
 8    1  0.1042301E+005  0.1043930E+01  0.7957747E-01            NaN
         13   -1    0    0    0    0  0.00000000000E+00  0.00000000000E+00  0.74505805969E-08  0.10566000000E+00  0.10566000000E+00 0. -1.
     999900   -1    0    0    0    0 -0.00000000000E+00 -0.00000000000E+00 -0.74505805969E-08  0.93827000000E+00  0.93827000000E+00 0. -1.
     999902    2    1    2    0    0  0.11607799363E-01 -0.60348000578E-02 -0.19284862584E-01  0.10206262290E+01  0.10203601490E+01 0.  0.
     999903    2    3    3    0    0  0.96230139980E-01  0.25193929871E-01  0.81590676883E-01  0.13028244789E+00  0.20530556034E-01 0.  0.
         14    1    1    2    0    0 -0.11607799363E-01  0.60348000578E-02  0.19284862584E-01  0.23303770997E-01  0.00000000000E+00 0. -1.
     999901    1    3    3    0    0 -0.84622340617E-01 -0.31228729929E-01 -0.10087553947E+00  0.89034378111E+00  0.88000000000E+00 0.  1.
        -11    1    4    4    0    0  0.72767379222E-01  0.26362518950E-01  0.55943454756E-01  0.95498717977E-01  0.51100000000E-03 0. -1.
         11    1    4    4    0    0  0.23462760758E-01 -0.11685890794E-02  0.25647222127E-01  0.34783729913E-01  0.51100000000E-03 0.  1.
</event>
<event>
 8    1  0.1042301E+005  0.1043930E+01  0.7957747E-01            NaN
         13   -1    0    0    0    0  0.00000000000E+00  0.00000000000E+00  0.74505805969E-08  0.10566000000E+00  0.10566000000E+00 0. -1.
     999900   -1    0    0    0    0 -0.00000000000E+00 -0.00000000000E+00 -0.74505805969E-08  0.93827000000E+00  0.93827000000E+00 0.  1.
     999902    2    1    2    0    0 -0.14652982625E-01 -0.77476919769E-03 -0.19161273601E-01  0.10197956972E+01  0.10195100781E+01 0.  0.
     999903    2    3    3    0    0  0.38085428544E-01 -0.92611789114E-01 -0.82319935326E-01  0.13119882862E+00  0.20226653940E-01 0.  0.
         14    1    1    2    0    0  0.14652982625E-01  0.77476919769E-03  0.19161273601E-01  0.24134302831E-01  0.00000000000E+00 0. -1.
     999901    1    3    3    0    0 -0.52738411168E-01  0.91837019917E-01  0.63158661725E-01  0.88859686855E+00  0.88000000000E+00 0. -1.
        -11    1    4    4    0    0  0.23042697161E-01 -0.74808157024E-01 -0.57360225391E-01  0.97044746523E-01  0.51100000000E-03 0.  1.
         11    1    4    4    0    0  0.15042731383E-01 -0.17803632090E-01 -0.24959709935E-01  0.34154082100E-01  0.51100000000E-03 0. -1.
</event>
<event>
 8    1  0.1042301E+005  0.1043930E+01  0.7957747E-01            NaN
         13   -1    0    0    0    0  0.00000000000E+00  0.00000000000E+00  0.74505805969E-08  0.10566000000E+00  0.10566000000E+00 0.  1.
     999900   -1    0    0    0    0 -0.00000000000E+00 -0.00000000000E+00 -0.74505805969E-08  0.93827000000E+00  0.93827000000E+00 0.  1.
     999902    2    1    2    0    0  0.27371842027E-02  0.99798097700E-02 -0.21220070768E-01  0.10203210995E+01  0.10200479233E+01 0.  0.
     999903    2    3    3    0    0 -0.40515433839E-02 -0.10327489113E+00  0.72999829988E-01  0.12804866138E+00  0.19630750352E-01 0.  0.
         14    1    1    2    0    0 -0.27371842027E-02 -0.99798097700E-02  0.21220070768E-01  0.23608900521E-01  0.00000000000E+00 0.  1.
     999901    1    3    3    0    0  0.67887275866E-02  0.11325470090E+00 -0.94219900757E-01  0.89227243810E+00  0.88000000000E+00 0. -1.
        -11    1    4    4    0    0 -0.86296785200E-02 -0.79498798993E-01  0.63184548737E-01  0.10191701876E+00  0.51100000000E-03 0. -1.
         11    1    4    4    0    0  0.45781351360E-02 -0.23776092141E-01  0.98152812518E-02  0.26131642617E-01  0.51100000000E-03 0.  1.
</event>
<event>
 8    1  0.1042301E+005  0.1043930E+01  0.7957747E-01            NaN
         13   -1    0    0    0    0  0.00000000000E+00  0.00000000000E+00  0.74505805969E-08  0.10566000000E+00  0.10566000000E+00 0. -1.
     999900   -1    0    0    0    0 -0.00000000000E+00 -0.00000000000E+00 -0.74505805969E-08  0.93827000000E+00  0.93827000000E+00 0. -1.
     999902    2    1    2    0    0 -0.12058765980E-01 -0.16194544562E-01 -0.12445644447E-01  0.10202114171E+01  0.10199356668E+01 0.  0.
     999903    2    3    3    0    0  0.57784436997E-01 -0.11634772685E+00  0.74600407946E-02  0.13155795861E+00  0.19390966025E-01 0.  0.
         14    1    1    2    0    0  0.12058765980E-01  0.16194544562E-01  0.12445644447E-01  0.23718582931E-01  0.00000000000E+00 0. -1.
     999901    1    3    3    0    0 -0.69843202978E-01  0.10015318229E+00 -0.19905685242E-01  0.88865345846E+00  0.88000000000E+00 0. -1.
        -11    1    4    4    0    0  0.22260080540E-01 -0.38767978779E-01 -0.62287851210E-02  0.45138965976E-01  0.51100000000E-03 0. -1.
         11    1    4    4    0    0  0.35524356457E-01 -0.77579748069E-01  0.13688825916E-01  0.86418992635E-01  0.51100000000E-03 0.  1.
</event>
<event>
 8    1  0.1042301E+005  0.1043930E+01  0.7957747E-01            NaN
         13   -1    0    0    0    0  0.00000000000E+00  0.00000000000E+00  0.74505805969E-08  0.10566000000E+00  0.10566000000E+00 0.  1.
     999900   -1    0    0    0    0 -0.00000000000E+00 -0.00000000000E+00 -0.74505805969E-08  0.93827000000E+00  0.93827000000E+00 0. -1.
     999902    2    1    2    0    0  0.27623983348E-02 -0.38356517672E-04  0.24671622871E-01  0.10191041810E+01  0.10188017522E+01 0.  0.
     999903    2    3    3    0    0  0.63433176834E-01  0.28457448021E-01 -0.10443555368E+00  0.12716157223E+00  0.20728876172E-01 0.  0.
         14    1    1    2    0    0 -0.27623983348E-02  0.38356517672E-04 -0.24671622871E-01  0.24825819037E-01  0.00000000000E+00 0. -1.
     999901    1    3    3    0    0 -0.60670778499E-01 -0.28495804538E-01  0.12910717655E+00  0.89194260874E+00  0.88000000000E+00 0. -1.
        -11    1    4    4    0    0  0.45669425791E-01  0.28680419965E-01 -0.69550382330E-01  0.88010111605E-01  0.51100000000E-03 0. -1.
         11    1    4    4    0    0  0.17763751043E-01 -0.22297194427E-03 -0.34885171353E-01  0.39151460623E-01  0.51100000000E-03 0.  1.
</event>
<event>
 8    1  0.1042301E+005  0.1043930E+01  0.7957747E-01            NaN
         13   -1    0    0    0    0  0.00000000000E+00  0.00000000000E+00  0.74505805969E-08  0.10566000000E+00  0.10566000000E+00 0.  1.
     999900   -1    0    0    0    0 -0.00000000000E+00 -0.00000000000E+00 -0.74505805969E-08  0.93827000000E+00  0.93827000000E+00 0.  1.
     999902    2    1    2    0    0 -0.13487281265E-01  0.15847735440E-01 -0.12838120950E-01  0.10194785210E+01  0.10191852530E+01 0.  0.
     999903    2    3    3    0    0  0.93495834387E-01  0.10892568866E-01  0.84172054553E-01  0.12769328070E+00  0.18987365910E-01 0.  0.
         14    1    1    2    0    0  0.13487281265E-01 -0.15847735440E-01  0.12838120950E-01  0.24451478974E-01  0.00000000000E+00 0.  1.
     999901    1    3    3    0    0 -0.10698311565E+00  0.49551665744E-02 -0.97010175503E-01  0.89178524033E+00  0.88000000000E+00 0. -1.
        -11    1    4    4    0    0  0.37858962813E-01 -0.70408820591E-03  0.44231184768E-01  0.58227619155E-01  0.51100000000E-03 0. -1.
         11    1    4    4    0    0  0.55636871574E-01  0.11596657072E-01  0.39940869785E-01  0.69465661545E-01  0.51100000000E-03 0.  1.
</event>
<event>
 8    1  0.1042301E+005  0.1043930E+01  0.7957747E-01            NaN
         13   -1    0    0    0    0  0.00000000000E+00  0.00000000000E+00  0.74505805969E-08  0.10566000000E+00  0.10566000000E+00 0.  1.
     999900   -1    0    0    0    0 -0.00000000000E+00 -0.00000000000E+00 -0.74505805969E-08  0.93827000000E+00  0.93827000000E+00 0.  1.
     999902    2    1    2    0    0  0.23652502585E-01 -0.51019575223E-04  0.22324218512E-02  0.10201723236E+01  0.10198956528E+01 0.  0.
     999903    2    3    3    0    0  0.49167146085E-01 -0.90930493998E-01 -0.78913520093E-01  0.13141209731E+00  0.18868828085E-01 0.  0.
         14    1    1    2    0    0 -0.23652502585E-01  0.51019575223E-04 -0.22324218512E-02  0.23757676420E-01  0.00000000000E+00 0.  1.
     999901    1    3    3    0    0 -0.25514643500E-01  0.90879474423E-01  0.81145941944E-01  0.88876022627E+00  0.88000000000E+00 0. -1.
        -11    1    4    4    0    0  0.40760400418E-01 -0.70763560060E-01 -0.70856239063E-01  0.10811919076E+00  0.51100000000E-03 0. -1.
         11    1    4    4    0    0  0.84067456668E-02 -0.20166933939E-01 -0.80572810301E-02  0.23292906555E-01  0.51100000000E-03 0.  1.
</event>
<event>
 7    1  0.1042301E+005  0.1043930E+01  0.7957747E-01            NaN
         13   -1    0    0    0    0  0.00000000000E+00  0.00000000000E+00  0.74505805969E-08  0.10566000000E+00  0.10566000000E+00 0.  1.
     999900   -1    0    0    0    0 -0.00000000000E+00 -0.00000000000E+00 -0.74505805969E-08  0.93827000000E+00  0.93827000000E+00 0.  1.
     999903    2    1    2    0    0 -0.39183144628E-01  0.40728296403E-01  0.92277583679E-01  0.11005183403E+00  0.20053447908E-01 0.  0.
         14    1    1    2    0    0  0.58890598196E-02  0.35571712904E-01 -0.31473808808E-01  0.47860510083E-01  0.00000000000E+00 0. -1.
     999901    1    1    2    0    0  0.33294084809E-01 -0.76300009308E-01 -0.60803774871E-01  0.88601765589E+00  0.88000000000E+00 0.  1.
        -11    1    3    3    0    0 -0.99775577817E-02  0.20343672500E-01  0.49096487785E-01  0.54075344695E-01  0.51100000000E-03 0. -1.
         11    1    3    3    0    0 -0.29205586847E-01  0.20384623903E-01  0.43181095895E-01  0.55976489336E-01  0.51100000000E-03 0.  1.
</event>
<event>
 8    1  0.1042301E+005  0.1043930E+01  0.7957747E-01            NaN
         13   -1    0    0    0    0  0.00000000000E+00  0.00000000000E+00  0.74505805969E-08  0.10566000000E+00  0.10566000000E+00 0. -1.
     999900   -1    0    0    0    0 -0.00000000000E+00 -0.00000000000E+00 -0.74505805969E-08  0.93827000000E+00  0.93827000000E+00 0. -1.
     999902    2    1    2    0    0 -0.11484255335E-01 -0.67476654811E-04  0.20447866794E-01  0.10204777521E+01  0.10202082310E+01 0.  0.
     999903    2    3    3    0    0  0.37765807886E-01 -0.12006154909E+00 -0.24206311636E-01  0.12984980411E+00  0.20832529593E-01 0.  0.
         14    1    1    2    0    0  0.11484255335E-01  0.67476654811E-04 -0.20447866794E-01  0.23452247869E-01  0.00000000000E+00 0.  1.
     999901    1    3    3    0    0 -0.49250063221E-01  0.11999407243E+00  0.44654178430E-01  0.89062794802E+00  0.88000000000E+00 0.  1.
        -11    1    4    4    0    0  0.27721766030E-01 -0.62084255648E-01 -0.60188632246E-02  0.68260083114E-01  0.51100000000E-03 0. -1.
         11    1    4    4    0    0  0.10044041856E-01 -0.57977293441E-01 -0.18187448412E-01  0.61589720995E-01  0.51100000000E-03 0.  1.
</event>
<event>
 8    1  0.1042301E+005  0.1043930E+01  0.7957747E-01            NaN
         13   -1    0    0    0    0  0.00000000000E+00  0.00000000000E+00  0.74505805969E-08  0.10566000000E+00  0.10566000000E+00 0. -1.
     999900   -1    0    0    0    0 -0.00000000000E+00 -0.00000000000E+00 -0.74505805969E-08  0.93827000000E+00  0.93827000000E+00 0.  1.
     999902    2    1    2    0    0 -0.14786048011E-01 -0.18164491535E-01  0.59566956653E-02  0.10197627041E+01  0.10194762942E+01 0.  0.
     999903    2    3    3    0    0 -0.11458325758E+00  0.20434259273E-01  0.58300235464E-01  0.13173725808E+00  0.20221420374E-01 0.  0.
         14    1    1    2    0    0  0.14786048011E-01  0.18164491535E-01 -0.59566956653E-02  0.24167295914E-01  0.00000000000E+00 0.  1.
     999901    1    3    3    0    0  0.99797209564E-01 -0.38598750809E-01 -0.52343539799E-01  0.88802544601E+00  0.88000000000E+00 0.  1.
        -11    1    4    4    0    0 -0.48924871555E-01  0.15698867134E-01  0.17473365283E-01  0.54274092358E-01  0.51100000000E-03 0.  1.
         11    1    4    4    0    0 -0.65658386021E-01  0.47353921395E-02  0.40826870181E-01  0.77463165720E-01  0.51100000000E-03 0. -1.
</event>
<event>
 8    1  0.1042301E+005  0.1043930E+01  0.7957747E-01            NaN
         13   -1    0    0    0    0  0.00000000000E+00  0.00000000000E+00  0.74505805969E-08  0.10566000000E+00  0.10566000000E+00 0. -1.
     999900   -1    0    0    0    0 -0.00000000000E+00 -0.00000000000E+00 -0.74505805969E-08  0.93827000000E+00  0.93827000000E+00 0. -1.
     999902    2    1    2    0    0  0.18561685981E-01  0.12806120030E-02 -0.21192175216E-02  0.10252038889E+01  0.10250328515E+01 0.  0.
     999903    2    3    3    0    0 -0.45278337022E-02 -0.48754153956E-01  0.12373052025E+00  0.13454415578E+00  0.19885155449E-01 0.  0.
         14    1    1    2    0    0 -0.18561685981E-01 -0.12806120030E-02  0.21192175216E-02  0.18726111088E-01  0.00000000000E+00 0.  1.
     999901    1    3    3    0    0  0.23089519683E-01  0.50034765959E-01 -0.12584973777E+00  0.89065973313E+00  0.88000000000E+00 0. -1.
        -11    1    4    4    0    0 -0.11517271670E-01 -0.21198692317E-01  0.63802499321E-01  0.68213284214E-01  0.51100000000E-03 0. -1.
         11    1    4    4    0    0  0.69894379675E-02 -0.27555461639E-01  0.59928020931E-01  0.66330871568E-01  0.51100000000E-03 0.  1.
</event>
<event>
 8    1  0.1042301E+005  0.1043930E+01  0.7957747E-01            NaN
         13   -1    0    0    0    0  0.00000000000E+00  0.00000000000E+00  0.74505805969E-08  0.10566000000E+00  0.10566000000E+00 0.  1.
     999900   -1    0    0    0    0 -0.00000000000E+00 -0.00000000000E+00 -0.74505805969E-08  0.93827000000E+00  0.93827000000E+00 0.  1.
     999902    2    1    2    0    0  0.14987139818E-01  0.16798781938E-01 -0.77403363736E-02  0.10201239873E+01  0.10198461762E+01 0.  0.
     999903    2    3    3    0    0  0.38195104136E-01 -0.99423812522E-01 -0.72203955410E-01  0.12984208852E+00  0.17366528121E-01 0.  0.
         14    1    1    2    0    0 -0.14987139818E-01 -0.16798781938E-01  0.77403363736E-02  0.23806012721E-01  0.00000000000E+00 0.  1.
     999901    1    3    3    0    0 -0.23207964318E-01  0.11622259446E+00  0.64463619037E-01  0.89028189875E+00  0.88000000000E+00 0. -1.
        -11    1    4    4    0    0  0.13905763417E-01 -0.24016963718E-01 -0.11542741316E-01  0.30061284080E-01  0.51100000000E-03 0.  1.
         11    1    4    4    0    0  0.24289340719E-01 -0.75406848804E-01 -0.60661214094E-01  0.99780804444E-01  0.51100000000E-03 0. -1.
</event>
<event>
 8    1  0.1042301E+005  0.1043930E+01  0.7957747E-01            NaN
         13   -1    0    0    0    0  0.00000000000E+00  0.00000000000E+00  0.74505805969E-08  0.10566000000E+00  0.10566000000E+00 0. -1.
     999900   -1    0    0    0    0 -0.00000000000E+00 -0.00000000000E+00 -0.74505805969E-08  0.93827000000E+00  0.93827000000E+00 0. -1.
     999902    2    1    2    0    0  0.14837292669E-01 -0.12773150360E-01 -0.11138295464E-01  0.10214053413E+01  0.10211569473E+01 0.  0.
     999903    2    3    3    0    0 -0.75996931248E-01  0.10272164314E+00 -0.24437260747E-02  0.12918031413E+00  0.18823183436E-01 0.  0.
         14    1    1    2    0    0 -0.14837292669E-01  0.12773150360E-01  0.11138295464E-01  0.22524658704E-01  0.00000000000E+00 0.  1.
     999901    1    3    3    0    0  0.90834223917E-01 -0.11549479350E+00 -0.86945693896E-02  0.89222502716E+00  0.88000000000E+00 0.  1.
        -11    1    4    4    0    0 -0.36098969940E-01  0.57795845845E-01  0.64045605201E-02  0.68445415801E-01  0.51100000000E-03 0.  1.
         11    1    4    4    0    0 -0.39897961308E-01  0.44925797291E-01 -0.88482865948E-02  0.60734898333E-01  0.51100000000E-03 0. -1.
</event>
<event>
 7    1  0.1042301E+005  0.1043930E+01  0.7957747E-01            NaN
         13   -1    0    0    0    0  0.00000000000E+00  0.00000000000E+00  0.74505805969E-08  0.10566000000E+00  0.10566000000E+00 0. -1.
     999900   -1    0    0    0    0 -0.00000000000E+00 -0.00000000000E+00 -0.74505805969E-08  0.93827000000E+00  0.93827000000E+00 0.  1.
     999902    2    1    2    0    0  0.10764650798E-01 -0.63997615134E-02  0.19938217184E-01  0.10203849972E+01  0.10201133149E+01 0.  0.
         14    1    1    2    0    0 -0.10764650798E-01  0.63997615134E-02 -0.19938217184E-01  0.23545002839E-01  0.00000000000E+00 0.  1.
     999901    1    3    3    0    0 -0.45020873380E-01 -0.70073659285E-01 -0.70828867871E-01  0.88676599241E+00  0.88000000000E+00 0. -1.
        -11    1    3    3    0    0  0.47662464540E-01  0.29724696791E-01  0.30370506611E-01  0.63858413057E-01  0.51100000000E-03 0. -1.
         11    1    3    3    0    0  0.81230596382E-02  0.33949200980E-01  0.60396578444E-01  0.69760591697E-01  0.51100000000E-03 0.  1.
</event>
<event>
 7    1  0.1042301E+005  0.1043930E+01  0.7957747E-01            NaN
         13   -1    0    0    0    0  0.00000000000E+00  0.00000000000E+00  0.74505805969E-08  0.10566000000E+00  0.10566000000E+00 0.  1.
     999900   -1    0    0    0    0 -0.00000000000E+00 -0.00000000000E+00 -0.74505805969E-08  0.93827000000E+00  0.93827000000E+00 0.  1.
     999903    2    1    2    0    0  0.51151795241E-01  0.71808951057E-01 -0.64531742899E-01  0.11121697314E+00  0.20780704149E-01 0.  0.
         14    1    1    2    0    0  0.17965479177E-01 -0.34491834001E-01 -0.22513736660E-01  0.44936771059E-01  0.00000000000E+00 0.  1.
     999901    1    1    2    0    0 -0.69117274418E-01 -0.37317117056E-01  0.87045479560E-01  0.88777625580E+00  0.88000000000E+00 0. -1.
        -11    1    3    3    0    0  0.14707831613E-01  0.16892062909E-01 -0.27996668501E-01  0.35857170388E-01  0.51100000000E-03 0.  1.
         11    1    3    3    0    0  0.36443963628E-01  0.54916888148E-01 -0.36535074398E-01  0.75359802754E-01  0.51100000000E-03 0. -1.
</event>
<event>
 8    1  0.1042301E+005  0.1043930E+01  0.7957747E-01            NaN
         13   -1    0    0    0    0  0.00000000000E+00  0.00000000000E+00  0.74505805969E-08  0.10566000000E+00  0.10566000000E+00 0.  1.
     999900   -1    0    0    0    0 -0.00000000000E+00 -0.00000000000E+00 -0.74505805969E-08  0.93827000000E+00  0.93827000000E+00 0. -1.
     999902    2    1    2    0    0 -0.83978365378E-04 -0.20154068706E-01  0.11813866952E-01  0.10205684720E+01  0.10203010561E+01 0.  0.
     999903    2    3    3    0    0  0.78053502434E-01 -0.86098433701E-01  0.61866684513E-01  0.13323572172E+00  0.20469034244E-01 0.  0.
         14    1    1    2    0    0  0.83978365378E-04  0.20154068706E-01 -0.11813866952E-01  0.23361527992E-01  0.00000000000E+00 0. -1.
     999901    1    3    3    0    0 -0.78137480799E-01  0.65944364995E-01 -0.50052817560E-01  0.88733275028E+00  0.88000000000E+00 0. -1.
        -11    1    4    4    0    0  0.39519581792E-01 -0.29584364226E-01  0.30049532971E-01  0.57795047404E-01  0.51100000000E-03 0.  1.
         11    1    4    4    0    0  0.38533920641E-01 -0.56514069475E-01  0.31817151542E-01  0.75440674320E-01  0.51100000000E-03 0. -1.
</event>
<event>
 8    1  0.1042301E+005  0.1043930E+01  0.7957747E-01            NaN
         13   -1    0    0    0    0  0.00000000000E+00  0.00000000000E+00  0.74505805969E-08  0.10566000000E+00  0.10566000000E+00 0.  1.
     999900   -1    0    0    0    0 -0.00000000000E+00 -0.00000000000E+00 -0.74505805969E-08  0.93827000000E+00  0.93827000000E+00 0. -1.
     999902    2    1    2    0    0 -0.20735657018E-01  0.10828718812E-01  0.38951124255E-02  0.10202150148E+01  0.10199393491E+01 0.  0.
     999903    2    3    3    0    0  0.86071835743E-01  0.90786279314E-01  0.27936605032E-01  0.12983361035E+00  0.20634995905E-01 0.  0.
         14    1    1    2    0    0  0.20735657018E-01 -0.10828718812E-01 -0.38951124255E-02  0.23714985218E-01  0.00000000000E+00 0. -1.
     999901    1    3    3    0    0 -0.10680749276E+00 -0.79957560502E-01 -0.24041492606E-01  0.89038140443E+00  0.88000000000E+00 0.  1.
        -11    1    4    4    0    0  0.12802491986E-01  0.23733343513E-01  0.10758392327E-01  0.29037553648E-01  0.51100000000E-03 0. -1.
         11    1    4    4    0    0  0.73269343757E-01  0.67052935800E-01  0.17178212705E-01  0.10079605670E+00  0.51100000000E-03 0.  1.
</event>
<event>
 8    1  0.1042301E+005  0.1043930E+01  0.7957747E-01            NaN
         13   -1    0    0    0    0  0.00000000000E+00  0.00000000000E+00  0.74505805969E-08  0.10566000000E+00  0.10566000000E+00 0. -1.
     999900   -1    0    0    0    0 -0.00000000000E+00 -0.00000000000E+00 -0.74505805969E-08  0.93827000000E+00  0.93827000000E+00 0.  1.
     999902    2    1    2    0    0  0.23609942481E-01 -0.15992454024E-02  0.22213159242E-02  0.10201619287E+01  0.10198850129E+01 0.  0.
     999903    2    3    3    0    0 -0.86117705376E-02 -0.12864742924E+00  0.24482925771E-02  0.13045437486E+00  0.19698379199E-01 0.  0.
         14    1    1    2    0    0 -0.23609942481E-01  0.15992454024E-02 -0.22213159242E-02  0.23768071319E-01  0.00000000000E+00 0.  1.
     999901    1    3    3    0    0  0.32221713019E-01  0.12704818383E+00 -0.22697665287E-03  0.88970755382E+00  0.88000000000E+00 0.  1.
        -11    1    4    4    0    0 -0.36685269320E-02 -0.61712564697E-02 -0.29025252409E-02  0.77606874721E-02  0.51100000000E-03 0. -1.
         11    1    4    4    0    0 -0.49432436056E-02 -0.12247617277E+00  0.53508178180E-02  0.12269368739E+00  0.51100000000E-03 0.  1.
</event>
<event>
 8    1  0.1042301E+005  0.1043930E+01  0.7957747E-01            NaN
         13   -1    0    0    0    0  0.00000000000E+00  0.00000000000E+00  0.74505805969E-08  0.10566000000E+00  0.10566000000E+00 0. -1.
     999900   -1    0    0    0    0 -0.00000000000E+00 -0.00000000000E+00 -0.74505805969E-08  0.93827000000E+00  0.93827000000E+00 0.  1.
     999902    2    1    2    0    0  0.15057043553E-01 -0.14544300930E-01 -0.10475529290E-01  0.10205208573E+01  0.10202523375E+01 0.  0.
     999903    2    3    3    0    0 -0.87000627748E-01  0.15301540987E-01 -0.93613921863E-01  0.13022959319E+00  0.19822567720E-01 0.  0.
         14    1    1    2    0    0 -0.15057043553E-01  0.14544300930E-01  0.10475529290E-01  0.23409142744E-01  0.00000000000E+00 0. -1.
     999901    1    3    3    0    0  0.10205767130E+00 -0.29845841916E-01  0.83138392573E-01  0.89029126407E+00  0.88000000000E+00 0. -1.
        -11    1    4    4    0    0 -0.23455284844E-01 -0.37419289211E-02 -0.19265262350E-01  0.30586988632E-01  0.51100000000E-03 0.  1.
         11    1    4    4    0    0 -0.63545342904E-01  0.19043469908E-01 -0.74348659513E-01  0.99642604559E-01  0.51100000000E-03 0. -1.
</event>
<event>
 8    1  0.1042301E+005  0.1043930E+01  0.7957747E-01            NaN
         13   -1    0    0    0    0  0.00000000000E+00  0.00000000000E+00  0.74505805969E-08  0.10566000000E+00  0.10566000000E+00 0.  1.
     999900   -1    0    0    0    0 -0.00000000000E+00 -0.00000000000E+00 -0.74505805969E-08  0.93827000000E+00  0.93827000000E+00 0. -1.
     999902    2    1    2    0    0 -0.22626301689E-01  0.36009937227E-02 -0.14758883929E-02  0.10209714519E+01  0.10207132852E+01 0.  0.
     999903    2    3    3    0    0  0.25642384652E-01 -0.12175105783E+00 -0.30661073968E-01  0.13030048125E+00  0.23606397090E-01 0.  0.
         14    1    1    2    0    0  0.22626301689E-01 -0.36009937227E-02  0.14758883929E-02  0.22958548092E-01  0.00000000000E+00 0. -1.
     999901    1    3    3    0    0 -0.48268686341E-01  0.12535205156E+00  0.29185185575E-01  0.89067097066E+00  0.88000000000E+00 0.  1.
        -11    1    4    4    0    0  0.59446165469E-02 -0.51035401719E-01 -0.23626539162E-01  0.56554621105E-01  0.51100000000E-03 0.  1.
         11    1    4    4    0    0  0.19697768105E-01 -0.70715656115E-01 -0.70345348055E-02  0.73745860149E-01  0.51100000000E-03 0. -1.
</event>
<event>
 8    1  0.1042301E+005  0.1043930E+01  0.7957747E-01            NaN
         13   -1    0    0    0    0  0.00000000000E+00  0.00000000000E+00  0.74505805969E-08  0.10566000000E+00  0.10566000000E+00 0. -1.
     999900   -1    0    0    0    0 -0.00000000000E+00 -0.00000000000E+00 -0.74505805969E-08  0.93827000000E+00  0.93827000000E+00 0. -1.
     999902    2    1    2    0    0  0.21624258036E-01 -0.71394903602E-02  0.80026458946E-02  0.10197924111E+01  0.10195067133E+01 0.  0.
     999903    2    3    3    0    0 -0.12913476848E-01 -0.46304776804E-01 -0.11834353688E+00  0.12923633047E+00  0.19645512229E-01 0.  0.
         14    1    1    2    0    0 -0.21624258036E-01  0.71394903602E-02 -0.80026458946E-02  0.24137588933E-01  0.00000000000E+00 0. -1.
     999901    1    3    3    0    0  0.34537734884E-01  0.39165286444E-01  0.12634618278E+00  0.89055608060E+00  0.88000000000E+00 0.  1.
        -11    1    4    4    0    0 -0.14018358735E-01 -0.17633906878E-01 -0.62753769233E-01  0.66676575552E-01  0.51100000000E-03 0.  1.
         11    1    4    4    0    0  0.11048818872E-02 -0.28670869926E-01 -0.55589767652E-01  0.62559754914E-01  0.51100000000E-03 0. -1.
</event>
<event>
 8    1  0.1042301E+005  0.1043930E+01  0.7957747E-01            NaN
         13   -1    0    0    0    0  0.00000000000E+00  0.00000000000E+00  0.74505805969E-08  0.10566000000E+00  0.10566000000E+00 0. -1.
     999900   -1    0    0    0    0 -0.00000000000E+00 -0.00000000000E+00 -0.74505805969E-08  0.93827000000E+00  0.93827000000E+00 0.  1.
     999902    2    1    2    0    0 -0.62834179726E-02  0.19513004178E-01  0.11754208419E-01  0.10202995093E+01  0.10200258274E+01 0.  0.
     999903    2    3    3    0    0 -0.36971592988E-02  0.47174931169E-01  0.12258482580E+00  0.13291272969E+00  0.19990274639E-01 0.  0.
         14    1    1    2    0    0  0.62834179726E-02 -0.19513004178E-01 -0.11754208419E-01  0.23630490664E-01  0.00000000000E+00 0.  1.
     999901    1    3    3    0    0 -0.25862586738E-02 -0.27661926991E-01 -0.11083061738E+00  0.88738677964E+00  0.88000000000E+00 0.  1.
        -11    1    4    4    0    0  0.17973002462E-02  0.32549603284E-01  0.10188050052E+00  0.10697011017E+00  0.51100000000E-03 0. -1.
         11    1    4    4    0    0 -0.54944595450E-02  0.14625327885E-01  0.20704325274E-01  0.25942619519E-01  0.51100000000E-03 0.  1.
</event>
<event>
 7    1  0.1042301E+005  0.1043930E+01  0.7957747E-01            NaN
         13   -1    0    0    0    0  0.00000000000E+00  0.00000000000E+00  0.74505805969E-08  0.10566000000E+00  0.10566000000E+00 0.  1.
     999900   -1    0    0    0    0 -0.00000000000E+00 -0.00000000000E+00 -0.74505805969E-08  0.93827000000E+00  0.93827000000E+00 0.  1.
     999902    2    1    2    0    0  0.21529394200E-01  0.78075948109E-02 -0.70403123771E-02  0.10199708817E+01  0.10196894430E+01 0.  0.
         14    1    1    2    0    0 -0.21529394200E-01 -0.78075948109E-02  0.70403123771E-02  0.23959118300E-01  0.00000000000E+00 0.  1.
     999901    1    3    3    0    0  0.20977716903E-01  0.10028900470E+00 -0.87968077847E-01  0.89030125901E+00  0.88000000000E+00 0.  1.
        -11    1    3    3    0    0 -0.77017598548E-02 -0.93296658861E-02  0.28645757269E-01  0.31099844066E-01  0.51100000000E-03 0. -1.
         11    1    3    3    0    0  0.82534371518E-02 -0.83151744005E-01  0.52282008201E-01  0.98569778626E-01  0.51100000000E-03 0.  1.
</event>
<event>
 8    1  0.1042301E+005  0.1043930E+01  0.7957747E-01            NaN
         13   -1    0    0    0    0  0.00000000000E+00  0.00000000000E+00  0.74505805969E-08  0.10566000000E+00  0.10566000000E+00 0.  1.
     999900   -1    0    0    0    0 -0.00000000000E+00 -0.00000000000E+00 -0.74505805969E-08  0.93827000000E+00  0.93827000000E+00 0.  1.
     999902    2    1    2    0    0  0.13785439143E-01  0.21008622815E-01  0.76461572119E-02  0.10176647323E+01  0.10173257311E+01 0.  0.
     999903    2    3    3    0    0 -0.33504142042E-01 -0.13488041542E-01 -0.11965329300E+00  0.12658029506E+00  0.20030121635E-01 0.  0.
         14    1    1    2    0    0 -0.13785439143E-01 -0.21008622815E-01 -0.76461572119E-02  0.26265267656E-01  0.00000000000E+00 0. -1.
     999901    1    3    3    0    0  0.47289581185E-01  0.34496664357E-01  0.12729945022E+00  0.89108443728E+00  0.88000000000E+00 0. -1.
        -11    1    4    4    0    0 -0.15206778210E-01 -0.10811948369E-01 -0.87646780185E-01  0.89612295634E-01  0.51100000000E-03 0.  1.
         11    1    4    4    0    0 -0.18297363831E-01 -0.26760931725E-02 -0.32006512819E-01  0.36967999427E-01  0.51100000000E-03 0. -1.
</event>
<event>
 8    1  0.1042301E+005  0.1043930E+01  0.7957747E-01            NaN
         13   -1    0    0    0    0  0.00000000000E+00  0.00000000000E+00  0.74505805969E-08  0.10566000000E+00  0.10566000000E+00 0. -1.
     999900   -1    0    0    0    0 -0.00000000000E+00 -0.00000000000E+00 -0.74505805969E-08  0.93827000000E+00  0.93827000000E+00 0. -1.
     999902    2    1    2    0    0 -0.35394764504E-02 -0.57952473171E-02  0.18183393713E-01  0.10245199873E+01  0.10243361049E+01 0.  0.
     999903    2    3    3    0    0 -0.89038209762E-01  0.92157768255E-01 -0.31902726169E-01  0.13355789719E+00  0.19976759438E-01 0.  0.
         14    1    1    2    0    0  0.35394764504E-02  0.57952473171E-02 -0.18183393713E-01  0.19410012672E-01  0.00000000000E+00 0.  1.
     999901    1    3    3    0    0  0.85498733312E-01 -0.97953015572E-01  0.50086119881E-01  0.89096209014E+00  0.88000000000E+00 0.  1.
        -11    1    4    4    0    0 -0.24461654534E-01  0.35507536257E-01 -0.43363745693E-02  0.43338469505E-01  0.51100000000E-03 0. -1.
         11    1    4    4    0    0 -0.64576555228E-01  0.56650231997E-01 -0.27566351599E-01  0.90219427686E-01  0.51100000000E-03 0.  1.
</event>
<event>
 8    1  0.1042301E+005  0.1043930E+01  0.7957747E-01            NaN
         13   -1    0    0    0    0  0.00000000000E+00  0.00000000000E+00  0.74505805969E-08  0.10566000000E+00  0.10566000000E+00 0. -1.
     999900   -1    0    0    0    0 -0.00000000000E+00 -0.00000000000E+00 -0.74505805969E-08  0.93827000000E+00  0.93827000000E+00 0.  1.
     999902    2    1    2    0    0  0.21195498554E-01 -0.32599864102E-02  0.94691782175E-02  0.10204876877E+01  0.10202183976E+01 0.  0.
     999903    2    3    3    0    0 -0.33303964892E-01  0.10525801360E+00  0.66353750979E-01  0.13032916110E+00  0.19861179679E-01 0.  0.
         14    1    1    2    0    0 -0.21195498554E-01  0.32599864102E-02 -0.94691782175E-02  0.23442312310E-01  0.00000000000E+00 0.  1.
     999901    1    3    3    0    0  0.54499463446E-01 -0.10851800002E+00 -0.56884572762E-01  0.89015852659E+00  0.88000000000E+00 0.  1.
        -11    1    4    4    0    0 -0.13479814691E-01  0.70110890594E-01  0.47743109840E-01  0.85888928519E-01  0.51100000000E-03 0.  1.
         11    1    4    4    0    0 -0.19824150202E-01  0.35147123011E-01  0.18610641139E-01  0.44440232581E-01  0.51100000000E-03 0. -1.
</event>
<event>
 8    1  0.1042301E+005  0.1043930E+01  0.7957747E-01            NaN
         13   -1    0    0    0    0  0.00000000000E+00  0.00000000000E+00  0.74505805969E-08  0.10566000000E+00  0.10566000000E+00 0.  1.
     999900   -1    0    0    0    0 -0.00000000000E+00 -0.00000000000E+00 -0.74505805969E-08  0.93827000000E+00  0.93827000000E+00 0. -1.
     999902    2    1    2    0    0 -0.10903967192E-01 -0.15318210432E-01  0.14205355143E-01  0.10203644279E+01  0.10200922653E+01 0.  0.
     999903    2    3    3    0    0  0.10420391330E+00  0.99757623889E-02  0.74615966949E-01  0.13045485320E+00  0.22202585819E-01 0.  0.
         14    1    1    2    0    0  0.10903967192E-01  0.15318210432E-01 -0.14205355143E-01  0.23565572051E-01  0.00000000000E+00 0. -1.
     999901    1    3    3    0    0 -0.11510788049E+00 -0.25293972820E-01 -0.60410611806E-01  0.88990957475E+00  0.88000000000E+00 0.  1.
        -11    1    4    4    0    0  0.35367907302E-01  0.10538514899E-01  0.16778266096E-01  0.40542823008E-01  0.51100000000E-03 0. -1.
         11    1    4    4    0    0  0.68836005998E-01 -0.56275251052E-03  0.57837700853E-01  0.89912030191E-01  0.51100000000E-03 0.  1.
</event>
<event>
 8    1  0.1042301E+005  0.1043930E+01  0.7957747E-01            NaN
         13   -1    0    0    0    0  0.00000000000E+00  0.00000000000E+00  0.74505805969E-08  0.10566000000E+00  0.10566000000E+00 0.  1.
     999900   -1    0    0    0    0 -0.00000000000E+00 -0.00000000000E+00 -0.74505805969E-08  0.93827000000E+00  0.93827000000E+00 0.  1.
     999902    2    1    2    0    0  0.17753240775E-01  0.56391232343E-02  0.14700812477E-01  0.10202004582E+01  0.10199244500E+01 0.  0.
     999903    2    3    3    0    0  0.56739612994E-01  0.57114739403E-01  0.10506536449E+00  0.13321938251E+00  0.15073019664E-01 0.  0.
         14    1    1    2    0    0 -0.17753240775E-01 -0.56391232343E-02 -0.14700812477E-01  0.23729541848E-01  0.00000000000E+00 0. -1.
     999901    1    3    3    0    0 -0.38986372219E-01 -0.51475616169E-01 -0.90364552015E-01  0.88698107564E+00  0.88000000000E+00 0. -1.
        -11    1    4    4    0    0  0.35761925885E-01  0.33657852201E-01  0.75299244698E-01  0.89899965133E-01  0.51100000000E-03 0.  1.
         11    1    4    4    0    0  0.20977687109E-01  0.23456887202E-01  0.29766119794E-01  0.43319417381E-01  0.51100000000E-03 0. -1.
</event>
<event>
 7    1  0.1042301E+005  0.1043930E+01  0.7957747E-01            NaN
         13   -1    0    0    0    0  0.00000000000E+00  0.00000000000E+00  0.74505805969E-08  0.10566000000E+00  0.10566000000E+00 0.  1.
     999900   -1    0    0    0    0 -0.00000000000E+00 -0.00000000000E+00 -0.74505805969E-08  0.93827000000E+00  0.93827000000E+00 0. -1.
     999902    2    1    2    0    0  0.64048984043E-02 -0.10567786610E-01  0.20672919350E-01  0.10198453486E+01  0.10195609176E+01 0.  0.
         14    1    1    2    0    0 -0.64048984043E-02  0.10567786610E-01 -0.20672919350E-01  0.24084651375E-01  0.00000000000E+00 0. -1.
     999901    1    3    3    0    0  0.14399932695E-01 -0.95569520905E-01  0.10633673701E+00  0.89165486205E+00  0.88000000000E+00 0. -1.
        -11    1    3    3    0    0  0.12996944561E-01  0.62036990464E-01 -0.65283532239E-01  0.90992908824E-01  0.51100000000E-03 0.  1.
         11    1    3    3    0    0 -0.20991978852E-01  0.22964743831E-01 -0.20380285422E-01  0.37197577746E-01  0.51100000000E-03 0. -1.
</event>
<event>
 8    1  0.1650395E+005  0.1043930E+01  0.7957747E-01            NaN
         13   -1    0    0    0    0  0.00000000000E+00  0.00000000000E+00  0.74505805969E-08  0.10566000000E+00  0.10566000000E+00 0.  1.
     999900   -1    0    0    0    0 -0.00000000000E+00 -0.00000000000E+00 -0.74505805969E-08  0.93827000000E+00  0.93827000000E+00 0. -1.
     999902    2    1    2    0    0 -0.15048187646E-01  0.57113471684E-02  0.18338257103E-01  0.10195300182E+01  0.10192379992E+01 0.  0.
     999903    2    3    3    0    0 -0.11394952300E+00  0.38863300720E-01 -0.47408277193E-01  0.13093385969E+00  0.20031997699E-01 0.  0.
         14    1    1    2    0    0  0.15048187646E-01 -0.57113471684E-02 -0.18338257103E-01  0.24399981793E-01  0.00000000000E+00 0. -1.
     999901    1    3    3    0    0  0.98901335357E-01 -0.33151953551E-01  0.65746534296E-01  0.88859615852E+00  0.88000000000E+00 0. -1.
        -11    1    4    4    0    0 -0.46105330383E-01  0.68699076498E-02 -0.12922139042E-01  0.48374992706E-01  0.51100000000E-03 0.  1.
         11    1    4    4    0    0 -0.67844192619E-01  0.31993393070E-01 -0.34486138150E-01  0.82558866984E-01  0.51100000000E-03 0. -1.
</event>
<event>
 8    1  0.1042301E+005  0.1043930E+01  0.7957747E-01            NaN
         13   -1    0    0    0    0  0.00000000000E+00  0.00000000000E+00  0.74505805969E-08  0.10566000000E+00  0.10566000000E+00 0. -1.
     999900   -1    0    0    0    0 -0.00000000000E+00 -0.00000000000E+00 -0.74505805969E-08  0.93827000000E+00  0.93827000000E+00 0.  1.
     999902    2    1    2    0    0 -0.18090622940E-01  0.74496795271E-02  0.13994188224E-01  0.10198757765E+01  0.10195920723E+01 0.  0.
     999903    2    3    3    0    0  0.10947419989E+00  0.38752482374E-01 -0.49880731643E-01  0.12783729367E+00  0.19181525794E-01 0.  0.
         14    1    1    2    0    0  0.18090622940E-01 -0.74496795271E-02 -0.13994188224E-01  0.24054223485E-01  0.00000000000E+00 0.  1.
     999901    1    3    3    0    0 -0.12756482283E+00 -0.31302802847E-01  0.63874919867E-01  0.89203848285E+00  0.88000000000E+00 0.  1.
        -11    1    4    4    0    0  0.86188163676E-01  0.21911523442E-01 -0.38944136245E-01  0.97084608905E-01  0.51100000000E-03 0. -1.
         11    1    4    4    0    0  0.23286036214E-01  0.16840958932E-01 -0.10936595398E-01  0.30752684765E-01  0.51100000000E-03 0.  1.
</event>
<event>
 8    1  0.1042301E+005  0.1043930E+01  0.7957747E-01            NaN
         13   -1    0    0    0    0  0.00000000000E+00  0.00000000000E+00  0.74505805969E-08  0.10566000000E+00  0.10566000000E+00 0.  1.
     999900   -1    0    0    0    0 -0.00000000000E+00 -0.00000000000E+00 -0.74505805969E-08  0.93827000000E+00  0.93827000000E+00 0.  1.
     999902    2    1    2    0    0 -0.89258028767E-02  0.21247481624E-01 -0.37519146534E-02  0.10205804326E+01  0.10203132936E+01 0.  0.
     999903    2    3    3    0    0 -0.11502319037E+00 -0.15098451666E-01  0.57726083446E-01  0.13133511961E+00  0.21408301344E-01 0.  0.
         14    1    1    2    0    0  0.89258028767E-02 -0.21247481624E-01  0.37519146534E-02  0.23349567360E-01  0.00000000000E+00 0. -1.
     999901    1    3    3    0    0  0.10609738749E+00  0.36345933290E-01 -0.61477998099E-01  0.88924531303E+00  0.88000000000E+00 0. -1.
        -11    1    4    4    0    0 -0.71851542380E-01 -0.19752525671E-01  0.37773016051E-01  0.83545605961E-01  0.51100000000E-03 0. -1.
         11    1    4    4    0    0 -0.43171647990E-01  0.46540740054E-02  0.19953067395E-01  0.47789513646E-01  0.51100000000E-03 0.  1.
</event>
<event>
 8    1  0.1042301E+005  0.1043930E+01  0.7957747E-01            NaN
         13   -1    0    0    0    0  0.00000000000E+00  0.00000000000E+00  0.74505805969E-08  0.10566000000E+00  0.10566000000E+00 0. -1.
     999900   -1    0    0    0    0 -0.00000000000E+00 -0.00000000000E+00 -0.74505805969E-08  0.93827000000E+00  0.93827000000E+00 0.  1.
     999902    2    1    2    0    0 -0.15312747471E-01  0.18847497970E-01  0.30678857674E-02  0.10194530652E+01  0.10191591788E+01 0.  0.
     999903    2    3    3    0    0 -0.46770528949E-01  0.12284011639E+00  0.42249551966E-02  0.13277082475E+00  0.18250070815E-01 0.  0.
         14    1    1    2    0    0  0.15312747471E-01 -0.18847497970E-01 -0.30678857674E-02  0.24476934815E-01  0.00000000000E+00 0. -1.
     999901    1    3    3    0    0  0.31457781478E-01 -0.10399261842E+00 -0.11570694292E-02  0.88668224044E+00  0.88000000000E+00 0. -1.
        -11    1    4    4    0    0 -0.94094555701E-02  0.43693949179E-01 -0.39190217696E-02  0.44870022305E-01  0.51100000000E-03 0. -1.
         11    1    4    4    0    0 -0.37361073379E-01  0.79146167209E-01  0.81439769662E-02  0.87900802441E-01  0.51100000000E-03 0.  1.
</event>
<event>
 8    1  0.1042301E+005  0.1043930E+01  0.7957747E-01            NaN
         13   -1    0    0    0    0  0.00000000000E+00  0.00000000000E+00  0.74505805969E-08  0.10566000000E+00  0.10566000000E+00 0. -1.
     999900   -1    0    0    0    0 -0.00000000000E+00 -0.00000000000E+00 -0.74505805969E-08  0.93827000000E+00  0.93827000000E+00 0.  1.
     999902    2    1    2    0    0 -0.39249427830E-02 -0.22794010419E-01 -0.29828032671E-02  0.10206089965E+01  0.10203425183E+01 0.  0.
     999903    2    3    3    0    0 -0.92289213824E-02 -0.80540064652E-01 -0.10348917795E+00  0.13299180973E+00  0.20123034065E-01 0.  0.
         14    1    1    2    0    0  0.39249427830E-02  0.22794010419E-01  0.29828032671E-02  0.23321003455E-01  0.00000000000E+00 0. -1.
     999901    1    3    3    0    0  0.53039785994E-02  0.57746054233E-01  0.10050637468E+00  0.88761718681E+00  0.88000000000E+00 0. -1.
        -11    1    4    4    0    0  0.32245926633E-02 -0.31418061535E-01 -0.28888077157E-01  0.42805078101E-01  0.51100000000E-03 0. -1.
         11    1    4    4    0    0 -0.12453514046E-01 -0.49122003117E-01 -0.74601100792E-01  0.90186731634E-01  0.51100000000E-03 0.  1.
</event>
<event>
 8    1  0.1042301E+005  0.1043930E+01  0.7957747E-01            NaN
         13   -1    0    0    0    0  0.00000000000E+00  0.00000000000E+00  0.74505805969E-08  0.10566000000E+00  0.10566000000E+00 0.  1.
     999900   -1    0    0    0    0 -0.00000000000E+00 -0.00000000000E+00 -0.74505805969E-08  0.93827000000E+00  0.93827000000E+00 0. -1.
     999902    2    1    2    0    0  0.19583506986E-01  0.68273870280E-02 -0.13389832058E-01  0.10192436766E+01  0.10189446785E+01 0.  0.
     999903    2    3    3    0    0  0.11888802866E+00  0.26973842428E-02  0.51730008405E-01  0.13125773159E+00  0.20272125992E-01 0.  0.
         14    1    1    2    0    0 -0.19583506986E-01 -0.68273870280E-02  0.13389832058E-01  0.24686323381E-01  0.00000000000E+00 0.  1.
     999901    1    3    3    0    0 -0.99304521673E-01  0.41300027852E-02 -0.65119840463E-01  0.88798594503E+00  0.88000000000E+00 0. -1.
        -11    1    4    4    0    0  0.47554027529E-01  0.48837784434E-02  0.30850654284E-01  0.56896931524E-01  0.51100000000E-03 0. -1.
         11    1    4    4    0    0  0.71334001131E-01 -0.21863942007E-02  0.20879354121E-01  0.74360800066E-01  0.51100000000E-03 0.  1.
</event>
<event>
 8    1  0.1042301E+005  0.1043930E+01  0.7957747E-01            NaN
         13   -1    0    0    0    0  0.00000000000E+00  0.00000000000E+00  0.74505805969E-08  0.10566000000E+00  0.10566000000E+00 0. -1.
     999900   -1    0    0    0    0 -0.00000000000E+00 -0.00000000000E+00 -0.74505805969E-08  0.93827000000E+00  0.93827000000E+00 0.  1.
     999902    2    1    2    0    0 -0.11078968305E-01  0.48696434201E-02  0.26538619127E-01  0.10147622906E+01  0.10143430146E+01 0.  0.
     999903    2    3    3    0    0  0.87528696779E-03 -0.21161247376E-01  0.12542421102E+00  0.12876066997E+00  0.19987818897E-01 0.  0.
         14    1    1    2    0    0  0.11078968305E-01 -0.48696434201E-02 -0.26538619127E-01  0.29167709388E-01  0.00000000000E+00 0.  1.
     999901    1    3    3    0    0 -0.11954255273E-01  0.26030890796E-01 -0.98885591891E-01  0.88600162064E+00  0.88000000000E+00 0.  1.
        -11    1    4    4    0    0  0.87491134588E-02 -0.11587326242E-01  0.42525831055E-01  0.44939075910E-01  0.51100000000E-03 0. -1.
         11    1    4    4    0    0 -0.78738264910E-02 -0.95739211343E-02  0.82898379963E-01  0.83821594061E-01  0.51100000000E-03 0.  1.
</event>
<event>
 8    1  0.1042301E+005  0.1043930E+01  0.7957747E-01            NaN
         13   -1    0    0    0    0  0.00000000000E+00  0.00000000000E+00  0.74505805969E-08  0.10566000000E+00  0.10566000000E+00 0.  1.
     999900   -1    0    0    0    0 -0.00000000000E+00 -0.00000000000E+00 -0.74505805969E-08  0.93827000000E+00  0.93827000000E+00 0.  1.
     999902    2    1    2    0    0  0.11956473795E-03 -0.17560709610E-01  0.17217522026E-01  0.10193365886E+01  0.10190398643E+01 0.  0.
     999903    2    3    3    0    0 -0.12529549558E+00  0.14240718718E-01 -0.19457885264E-01  0.12912012412E+00  0.19789842633E-01 0.  0.
         14    1    1    2    0    0 -0.11956473795E-03  0.17560709610E-01 -0.17217522026E-01  0.24593411362E-01  0.00000000000E+00 0.  1.
     999901    1    3    3    0    0  0.12541506032E+00 -0.31801428329E-01  0.36675407289E-01  0.89021646452E+00  0.88000000000E+00 0. -1.
        -11    1    4    4    0    0 -0.73653373193E-01  0.14558937265E-01 -0.19106779461E-01  0.77473299784E-01  0.51100000000E-03 0.  1.
         11    1    4    4    0    0 -0.51642122387E-01 -0.31821854683E-03 -0.35110580211E-03  0.51646824336E-01  0.51100000000E-03 0. -1.
</event>
<event>
 8    1  0.1042301E+005  0.1043930E+01  0.7957747E-01            NaN
         13   -1    0    0    0    0  0.00000000000E+00  0.00000000000E+00  0.74505805969E-08  0.10566000000E+00  0.10566000000E+00 0. -1.
     999900   -1    0    0    0    0 -0.00000000000E+00 -0.00000000000E+00 -0.74505805969E-08  0.93827000000E+00  0.93827000000E+00 0. -1.
     999902    2    1    2    0    0  0.14732633418E-01 -0.51242935670E-02 -0.16583286483E-01  0.10211634837E+01  0.10209096661E+01 0.  0.
     999903    2    3    3    0    0 -0.15649230799E-01  0.71193740376E-01  0.10450626543E+00  0.12908154829E+00  0.20664934085E-01 0.  0.
         14    1    1    2    0    0 -0.14732633418E-01  0.51242935670E-02  0.16583286483E-01  0.22766516259E-01  0.00000000000E+00 0. -1.
     999901    1    3    3    0    0  0.30381864217E-01 -0.76318033943E-01 -0.12108955191E+00  0.89208193545E+00  0.88000000000E+00 0. -1.
        -11    1    4    4    0    0  0.39244169892E-02  0.27590761725E-01  0.41650996896E-01  0.50117041460E-01  0.51100000000E-03 0.  1.
         11    1    4    4    0    0 -0.19573647788E-01  0.43602978650E-01  0.62855268536E-01  0.78964506829E-01  0.51100000000E-03 0. -1.
</event>
<event>
 7    1  0.1042301E+005  0.1043930E+01  0.7957747E-01            NaN
         13   -1    0    0    0    0  0.00000000000E+00  0.00000000000E+00  0.74505805969E-08  0.10566000000E+00  0.10566000000E+00 0. -1.
     999900   -1    0    0    0    0 -0.00000000000E+00 -0.00000000000E+00 -0.74505805969E-08  0.93827000000E+00  0.93827000000E+00 0. -1.
     999902    2    1    2    0    0 -0.11844286401E-01  0.10921488171E-01  0.16675384446E-01  0.10207430539E+01  0.10204796654E+01 0.  0.
         14    1    1    2    0    0  0.11844286401E-01 -0.10921488171E-01 -0.16675384446E-01  0.23186946126E-01  0.00000000000E+00 0.  1.
     999901    1    3    3    0    0 -0.71189285219E-01  0.11558859656E+00  0.13863853312E-02  0.89041033240E+00  0.88000000000E+00 0. -1.
        -11    1    3    3    0    0  0.29549873339E-01 -0.41993949122E-01  0.29889388863E-01  0.59416525183E-01  0.51100000000E-03 0.  1.
         11    1    3    3    0    0  0.29795125478E-01 -0.62673159264E-01 -0.14600389748E-01  0.70916196289E-01  0.51100000000E-03 0. -1.
</event>
<event>
 7    1  0.1042301E+005  0.1043930E+01  0.7957747E-01            NaN
         13   -1    0    0    0    0  0.00000000000E+00  0.00000000000E+00  0.74505805969E-08  0.10566000000E+00  0.10566000000E+00 0. -1.
     999900   -1    0    0    0    0 -0.00000000000E+00 -0.00000000000E+00 -0.74505805969E-08  0.93827000000E+00  0.93827000000E+00 0.  1.
     999902    2    1    2    0    0  0.79587948305E-02 -0.12485436357E-01 -0.17922288426E-01  0.10206827000E+01  0.10204179227E+01 0.  0.
         14    1    1    2    0    0 -0.79587948305E-02  0.12485436357E-01  0.17922288426E-01  0.23247300028E-01  0.00000000000E+00 0. -1.
     999901    1    3    3    0    0 -0.26127053669E-01  0.97721333817E-01 -0.80442608566E-01  0.88943976485E+00  0.88000000000E+00 0.  1.
        -11    1    3    3    0    0  0.10087704372E-01 -0.28624624458E-01  0.16379084184E-01  0.34491541348E-01  0.51100000000E-03 0.  1.
         11    1    3    3    0    0  0.23998144128E-01 -0.81582145717E-01  0.46141235957E-01  0.96751393778E-01  0.51100000000E-03 0. -1.
</event>
<event>
 8    1  0.1042301E+005  0.1043930E+01  0.7957747E-01            NaN
         13   -1    0    0    0    0  0.00000000000E+00  0.00000000000E+00  0.74505805969E-08  0.10566000000E+00  0.10566000000E+00 0. -1.
     999900   -1    0    0    0    0 -0.00000000000E+00 -0.00000000000E+00 -0.74505805969E-08  0.93827000000E+00  0.93827000000E+00 0. -1.
     999902    2    1    2    0    0  0.14994696662E-01 -0.17404203448E-01 -0.27303866156E-02  0.10207955617E+01  0.10205333784E+01 0.  0.
     999903    2    3    3    0    0 -0.69241701491E-01  0.10594995847E+00  0.26403979887E-02  0.12819214169E+00  0.20160519928E-01 0.  0.
         14    1    1    2    0    0 -0.14994696662E-01  0.17404203448E-01  0.27303866156E-02  0.23134438327E-01  0.00000000000E+00 0.  1.
     999901    1    3    3    0    0  0.84236398154E-01 -0.12335416192E+00 -0.53707846043E-02  0.89260341998E+00  0.88000000000E+00 0. -1.
        -11    1    4    4    0    0 -0.30109431010E-01  0.44042960129E-01 -0.87671113992E-02  0.54069247599E-01  0.51100000000E-03 0.  1.
         11    1    4    4    0    0 -0.39132270481E-01  0.61906998344E-01  0.11407509388E-01  0.74122894091E-01  0.51100000000E-03 0. -1.
</event>
<event>
 8    1  0.1042301E+005  0.1043930E+01  0.7957747E-01            NaN
         13   -1    0    0    0    0  0.00000000000E+00  0.00000000000E+00  0.74505805969E-08  0.10566000000E+00  0.10566000000E+00 0. -1.
     999900   -1    0    0    0    0 -0.00000000000E+00 -0.00000000000E+00 -0.74505805969E-08  0.93827000000E+00  0.93827000000E+00 0. -1.
     999902    2    1    2    0    0  0.16229952377E-01  0.71978602328E-02 -0.15497881427E-01  0.10203629706E+01  0.10200907738E+01 0.  0.
     999903    2    3    3    0    0  0.42075926181E-01 -0.26618812107E-01 -0.12065210254E+00  0.13308117099E+00  0.25975440373E-01 0.  0.
         14    1    1    2    0    0 -0.16229952377E-01 -0.71978602328E-02  0.15497881427E-01  0.23567029402E-01  0.00000000000E+00 0. -1.
     999901    1    3    3    0    0 -0.25845973805E-01  0.33816672340E-01  0.10515422112E+00  0.88728179960E+00  0.88000000000E+00 0.  1.
        -11    1    4    4    0    0  0.70080947022E-02 -0.74696060176E-02 -0.57078814639E-01  0.57992763402E-01  0.51100000000E-03 0. -1.
         11    1    4    4    0    0  0.35067831479E-01 -0.19149206089E-01 -0.63573287906E-01  0.75088407592E-01  0.51100000000E-03 0.  1.
</event>
<event>
 8    1  0.1042301E+005  0.1043930E+01  0.7957747E-01            NaN
         13   -1    0    0    0    0  0.00000000000E+00  0.00000000000E+00  0.74505805969E-08  0.10566000000E+00  0.10566000000E+00 0. -1.
     999900   -1    0    0    0    0 -0.00000000000E+00 -0.00000000000E+00 -0.74505805969E-08  0.93827000000E+00  0.93827000000E+00 0.  1.
     999902    2    1    2    0    0 -0.14320882695E-01  0.17413710518E-01 -0.61611872661E-02  0.10205572547E+01  0.10202895789E+01 0.  0.
     999903    2    3    3    0    0  0.22539581367E-01 -0.74901642779E-03  0.12555480397E+00  0.12980606562E+00  0.24021076531E-01 0.  0.
         14    1    1    2    0    0  0.14320882695E-01 -0.17413710518E-01  0.61611872661E-02  0.23372745318E-01  0.00000000000E+00 0. -1.
     999901    1    3    3    0    0 -0.36860464062E-01  0.18162726946E-01 -0.13171599124E+00  0.89075118906E+00  0.88000000000E+00 0.  1.
        -11    1    4    4    0    0  0.13342585596E-01  0.94226806089E-02  0.40863177407E-01  0.44009906715E-01  0.51100000000E-03 0. -1.
         11    1    4    4    0    0  0.91969957708E-02 -0.10171697037E-01  0.84691626567E-01  0.85796158908E-01  0.51100000000E-03 0.  1.
</event>
<event>
 8    1  0.1042301E+005  0.1043930E+01  0.7957747E-01            NaN
         13   -1    0    0    0    0  0.00000000000E+00  0.00000000000E+00  0.74505805969E-08  0.10566000000E+00  0.10566000000E+00 0.  1.
     999900   -1    0    0    0    0 -0.00000000000E+00 -0.00000000000E+00 -0.74505805969E-08  0.93827000000E+00  0.93827000000E+00 0.  1.
     999902    2    1    2    0    0  0.11679350916E-01 -0.18758138721E-01  0.87839314884E-02  0.10201511763E+01  0.10198740069E+01 0.  0.
     999903    2    3    3    0    0 -0.72656979789E-02 -0.36069873925E-01 -0.12304733798E+00  0.12996125570E+00  0.19886035964E-01 0.  0.
         14    1    1    2    0    0 -0.11679350916E-01  0.18758138721E-01 -0.87839314884E-02  0.23778823741E-01  0.00000000000E+00 0. -1.
     999901    1    3    3    0    0  0.18945048895E-01  0.17311735204E-01  0.13183126947E+00  0.89018992056E+00  0.88000000000E+00 0. -1.
        -11    1    4    4    0    0 -0.12397288586E-01 -0.22624356888E-01 -0.94881132630E-01  0.98327232947E-01  0.51100000000E-03 0.  1.
         11    1    4    4    0    0  0.51315906075E-02 -0.13445517037E-01 -0.28166205354E-01  0.31634022754E-01  0.51100000000E-03 0. -1.
</event>
<event>
 8    1  0.1042301E+005  0.1043930E+01  0.7957747E-01            NaN
         13   -1    0    0    0    0  0.00000000000E+00  0.00000000000E+00  0.74505805969E-08  0.10566000000E+00  0.10566000000E+00 0.  1.
     999900   -1    0    0    0    0 -0.00000000000E+00 -0.00000000000E+00 -0.74505805969E-08  0.93827000000E+00  0.93827000000E+00 0. -1.
     999902    2    1    2    0    0 -0.21887364252E-01  0.23367112921E-02  0.10145340532E-01  0.10196927380E+01  0.10194046474E+01 0.  0.
     999903    2    3    3    0    0 -0.66721760604E-01 -0.90541279030E-01  0.66107824007E-01  0.13190433771E+00  0.19467751907E-01 0.  0.
         14    1    1    2    0    0  0.21887364252E-01 -0.23367112921E-02 -0.10145340532E-01  0.24237261976E-01  0.00000000000E+00 0. -1.
     999901    1    3    3    0    0  0.44834396352E-01  0.92877990323E-01 -0.55962483475E-01  0.88778840032E+00  0.88000000000E+00 0.  1.
        -11    1    4    4    0    0 -0.45749940663E-01 -0.75384830051E-01  0.53143513696E-01  0.10295835975E+00  0.51100000000E-03 0. -1.
         11    1    4    4    0    0 -0.20971819940E-01 -0.15156448980E-01  0.12964310310E-01  0.28945977961E-01  0.51100000000E-03 0.  1.
</event>
<event>
 8    1  0.1042301E+005  0.1043930E+01  0.7957747E-01            NaN
         13   -1    0    0    0    0  0.00000000000E+00  0.00000000000E+00  0.74505805969E-08  0.10566000000E+00  0.10566000000E+00 0.  1.
     999900   -1    0    0    0    0 -0.00000000000E+00 -0.00000000000E+00 -0.74505805969E-08  0.93827000000E+00  0.93827000000E+00 0.  1.
     999902    2    1    2    0    0 -0.13344987692E-01 -0.39156523898E-02  0.18663247776E-01  0.10206547374E+01  0.10203893155E+01 0.  0.
     999903    2    3    3    0    0  0.12287591365E+00  0.21991404722E-01 -0.23898513842E-01  0.12878097219E+00  0.20767469727E-01 0.  0.
         14    1    1    2    0    0  0.13344987692E-01  0.39156523898E-02 -0.18663247776E-01  0.23275262570E-01  0.00000000000E+00 0. -1.
     999901    1    3    3    0    0 -0.13622090134E+00 -0.25907057112E-01  0.42561761618E-01  0.89187376524E+00  0.88000000000E+00 0.  1.
        -11    1    4    4    0    0  0.80046756220E-01  0.21873363545E-01 -0.22262167296E-01  0.85917358129E-01  0.51100000000E-03 0. -1.
         11    1    4    4    0    0  0.42829157425E-01  0.11804117675E-03 -0.16363465459E-02  0.42863614062E-01  0.51100000000E-03 0.  1.
</event>
<event>
 8    1  0.1042301E+005  0.1043930E+01  0.7957747E-01            NaN
         13   -1    0    0    0    0  0.00000000000E+00  0.00000000000E+00  0.74505805969E-08  0.10566000000E+00  0.10566000000E+00 0.  1.
     999900   -1    0    0    0    0 -0.00000000000E+00 -0.00000000000E+00 -0.74505805969E-08  0.93827000000E+00  0.93827000000E+00 0.  1.
     999902    2    1    2    0    0  0.66587168086E-02 -0.16496040311E-01  0.14331309927E-01  0.10210860883E+01  0.10208305224E+01 0.  0.
     999903    2    3    3    0    0  0.11983410048E+00 -0.37769953383E-01  0.39499034943E-01  0.13322649290E+00  0.20058505235E-01 0.  0.
         14    1    1    2    0    0 -0.66587168086E-02  0.16496040311E-01 -0.14331309927E-01  0.22843911655E-01  0.00000000000E+00 0. -1.
     999901    1    3    3    0    0 -0.11317538367E+00  0.21273913072E-01 -0.25167725016E-01  0.88785959545E+00  0.88000000000E+00 0.  1.
        -11    1    4    4    0    0  0.11389426487E-01 -0.96492053127E-03  0.94212025278E-02  0.14821278130E-01  0.51100000000E-03 0.  1.
         11    1    4    4    0    0  0.10844467399E+00 -0.36805032852E-01  0.30077832415E-01  0.11840521477E+00  0.51100000000E-03 0. -1.
</event>
<event>
 8    1  0.1042301E+005  0.1043930E+01  0.7957747E-01            NaN
         13   -1    0    0    0    0  0.00000000000E+00  0.00000000000E+00  0.74505805969E-08  0.10566000000E+00  0.10566000000E+00 0. -1.
     999900   -1    0    0    0    0 -0.00000000000E+00 -0.00000000000E+00 -0.74505805969E-08  0.93827000000E+00  0.93827000000E+00 0.  1.
     999902    2    1    2    0    0 -0.67650119538E-02  0.23562127534E-01  0.16478790128E-02  0.10193606136E+01  0.10190644758E+01 0.  0.
     999903    2    3    3    0    0 -0.54038507302E-01 -0.23338861904E-01  0.11380915230E+00  0.12974573214E+00  0.20410024831E-01 0.  0.
         14    1    1    2    0    0  0.67650119538E-02 -0.23562127534E-01 -0.16478790128E-02  0.24569386356E-01  0.00000000000E+00 0. -1.
     999901    1    3    3    0    0  0.47273495348E-01  0.46900989438E-01 -0.11216127329E+00  0.88961488151E+00  0.88000000000E+00 0.  1.
        -11    1    4    4    0    0 -0.30652626434E-01 -0.48186314843E-02  0.44145371361E-01  0.53961816595E-01  0.51100000000E-03 0.  1.
         11    1    4    4    0    0 -0.23385880868E-01 -0.18520230419E-01  0.69663780942E-01  0.75783915542E-01  0.51100000000E-03 0. -1.
</event>
<event>
 8    1  0.1042301E+005  0.1043930E+01  0.7957747E-01            NaN
         13   -1    0    0    0    0  0.00000000000E+00  0.00000000000E+00  0.74505805969E-08  0.10566000000E+00  0.10566000000E+00 0. -1.
     999900   -1    0    0    0    0 -0.00000000000E+00 -0.00000000000E+00 -0.74505805969E-08  0.93827000000E+00  0.93827000000E+00 0. -1.
     999902    2    1    2    0    0 -0.18034675013E-01  0.96190951496E-02  0.11860911615E-01  0.10202982900E+01  0.10200245795E+01 0.  0.
     999903    2    3    3    0    0 -0.72390079917E-01  0.97152246438E-01  0.51719795710E-01  0.13339057592E+00  0.20957714967E-01 0.  0.
         14    1    1    2    0    0  0.18034675013E-01 -0.96190951496E-02 -0.11860911615E-01  0.23631710024E-01  0.00000000000E+00 0. -1.
     999901    1    3    3    0    0  0.54355404904E-01 -0.87533151289E-01 -0.39858884095E-01  0.88690771406E+00  0.88000000000E+00 0. -1.
        -11    1    4    4    0    0 -0.37486243286E-01  0.65592224245E-01  0.26968859682E-01  0.80219317066E-01  0.51100000000E-03 0.  1.
         11    1    4    4    0    0 -0.34903836631E-01  0.31560022194E-01  0.24750936028E-01  0.53171258850E-01  0.51100000000E-03 0. -1.
</event>
<event>
 8    1  0.1042301E+005  0.1043930E+01  0.7957747E-01            NaN
         13   -1    0    0    0    0  0.00000000000E+00  0.00000000000E+00  0.74505805969E-08  0.10566000000E+00  0.10566000000E+00 0.  1.
     999900   -1    0    0    0    0 -0.00000000000E+00 -0.00000000000E+00 -0.74505805969E-08  0.93827000000E+00  0.93827000000E+00 0.  1.
     999902    2    1    2    0    0 -0.18361676215E-01 -0.88452075633E-02  0.12475586429E-01  0.10200337847E+01  0.10197538393E+01 0.  0.
     999903    2    3    3    0    0 -0.40962172965E-01  0.11001707314E+00 -0.45321759768E-01  0.12987674378E+00  0.32128658086E-01 0.  0.
         14    1    1    2    0    0  0.18361676215E-01  0.88452075633E-02 -0.12475586429E-01  0.23896215328E-01  0.00000000000E+00 0. -1.
     999901    1    3    3    0    0  0.22600496750E-01 -0.11886228070E+00  0.57797346197E-01  0.89015704089E+00  0.88000000000E+00 0.  1.
        -11    1    4    4    0    0 -0.36637004773E-01  0.53059732933E-01 -0.21308883513E-01  0.67911228934E-01  0.51100000000E-03 0.  1.
         11    1    4    4    0    0 -0.43251681921E-02  0.56957340202E-01 -0.24012876255E-01  0.61965514844E-01  0.51100000000E-03 0. -1.
</event>
<event>
 8    1  0.1042301E+005  0.1043930E+01  0.7957747E-01            NaN
         13   -1    0    0    0    0  0.00000000000E+00  0.00000000000E+00  0.74505805969E-08  0.10566000000E+00  0.10566000000E+00 0. -1.
     999900   -1    0    0    0    0 -0.00000000000E+00 -0.00000000000E+00 -0.74505805969E-08  0.93827000000E+00  0.93827000000E+00 0. -1.
     999902    2    1    2    0    0  0.15150897834E-01 -0.17530316844E-01  0.46079441484E-02  0.10203059685E+01  0.10200324380E+01 0.  0.
     999903    2    3    3    0    0  0.55432996275E-01 -0.74917006356E-01 -0.91720047976E-01  0.13227727436E+00  0.19983372970E-01 0.  0.
         14    1    1    2    0    0 -0.15150897834E-01  0.17530316844E-01 -0.46079441484E-02  0.23624031474E-01  0.00000000000E+00 0.  1.
     999901    1    3    3    0    0 -0.40282098442E-01  0.57386689512E-01  0.96327992124E-01  0.88802869416E+00  0.88000000000E+00 0.  1.
        -11    1    4    4    0    0  0.11831616514E-01 -0.30809655879E-01 -0.27082530055E-01  0.42695978732E-01  0.51100000000E-03 0. -1.
         11    1    4    4    0    0  0.43601379762E-01 -0.44107350476E-01 -0.64637517921E-01  0.89581295632E-01  0.51100000000E-03 0.  1.
</event>
<event>
 8    1  0.1042301E+005  0.1043930E+01  0.7957747E-01            NaN
         13   -1    0    0    0    0  0.00000000000E+00  0.00000000000E+00  0.74505805969E-08  0.10566000000E+00  0.10566000000E+00 0. -1.
     999900   -1    0    0    0    0 -0.00000000000E+00 -0.00000000000E+00 -0.74505805969E-08  0.93827000000E+00  0.93827000000E+00 0. -1.
     999902    2    1    2    0    0  0.23007640710E-02  0.17647543378E-01  0.17984906618E-01  0.10186280995E+01  0.10183138116E+01 0.  0.
     999903    2    3    3    0    0  0.86059410133E-01  0.31040468294E-01  0.92204486622E-01  0.13143960359E+00  0.20123848900E-01 0.  0.
         14    1    1    2    0    0 -0.23007640710E-02 -0.17647543378E-01 -0.17984906618E-01  0.25301900495E-01  0.00000000000E+00 0.  1.
     999901    1    3    3    0    0 -0.83758646062E-01 -0.13392924916E-01 -0.74219580004E-01  0.88718849591E+00  0.88000000000E+00 0. -1.
        -11    1    4    4    0    0  0.19520706678E-01 -0.11734843007E-02  0.22736159485E-01  0.29993818092E-01  0.51100000000E-03 0. -1.
         11    1    4    4    0    0  0.66538703455E-01  0.32213952595E-01  0.69468327136E-01  0.10144578550E+00  0.51100000000E-03 0.  1.
</event>
<event>
 8    1  0.1042301E+005  0.1043930E+01  0.7957747E-01            NaN
         13   -1    0    0    0    0  0.00000000000E+00  0.00000000000E+00  0.74505805969E-08  0.10566000000E+00  0.10566000000E+00 0. -1.
     999900   -1    0    0    0    0 -0.00000000000E+00 -0.00000000000E+00 -0.74505805969E-08  0.93827000000E+00  0.93827000000E+00 0. -1.
     999902    2    1    2    0    0  0.18977786747E-01  0.11611572920E-01 -0.24005729151E-02  0.10215526059E+01  0.10213074850E+01 0.  0.
     999903    2    3    3    0    0 -0.53854294968E-01  0.11346686968E+00  0.35677262026E-01  0.13187348673E+00  0.18513073132E-01 0.  0.
         14    1    1    2    0    0 -0.18977786747E-01 -0.11611572920E-01  0.24005729151E-02  0.22377394080E-01  0.00000000000E+00 0. -1.
     999901    1    3    3    0    0  0.72832081716E-01 -0.10185529676E+00 -0.38077834941E-01  0.88967911919E+00  0.88000000000E+00 0.  1.
        -11    1    4    4    0    0 -0.28250950087E-01  0.38726443030E-01  0.12624664813E-01  0.49573146493E-01  0.51100000000E-03 0. -1.
         11    1    4    4    0    0 -0.25603344882E-01  0.74740426646E-01  0.23052597213E-01  0.82300340240E-01  0.51100000000E-03 0.  1.
</event>
<event>
 8    1  0.1042301E+005  0.1043930E+01  0.7957747E-01            NaN
         13   -1    0    0    0    0  0.00000000000E+00  0.00000000000E+00  0.74505805969E-08  0.10566000000E+00  0.10566000000E+00 0.  1.
     999900   -1    0    0    0    0 -0.00000000000E+00 -0.00000000000E+00 -0.74505805969E-08  0.93827000000E+00  0.93827000000E+00 0.  1.
     999902    2    1    2    0    0  0.16519847258E-01 -0.66418901910E-02 -0.15930147336E-01  0.10200387955E+01  0.10197589689E+01 0.  0.
     999903    2    3    3    0    0 -0.10289738308E+00  0.73339025048E-01  0.91215994314E-02  0.12802701770E+00  0.18472402255E-01 0.  0.
         14    1    1    2    0    0 -0.16519847258E-01  0.66418901910E-02  0.15930147336E-01  0.23891204508E-01  0.00000000000E+00 0. -1.
     999901    1    3    3    0    0  0.11941723034E+00 -0.79980915239E-01 -0.25051746767E-01  0.89201177779E+00  0.88000000000E+00 0. -1.
        -11    1    4    4    0    0 -0.54182247790E-01  0.39668485519E-01  0.14028836275E-01  0.68603018062E-01  0.51100000000E-03 0.  1.
         11    1    4    4    0    0 -0.48715135290E-01  0.33670539529E-01 -0.49072368431E-02  0.59423999637E-01  0.51100000000E-03 0. -1.
</event>
<event>
 8    1  0.1042301E+005  0.1043930E+01  0.7957747E-01            NaN
         13   -1    0    0    0    0  0.00000000000E+00  0.00000000000E+00  0.74505805969E-08  0.10566000000E+00  0.10566000000E+00 0.  1.
     999900   -1    0    0    0    0 -0.00000000000E+00 -0.00000000000E+00 -0.74505805969E-08  0.93827000000E+00  0.93827000000E+00 0.  1.
     999902    2    1    2    0    0  0.56995606063E-02 -0.10063444846E-01 -0.18401526373E-01  0.10221958314E+01  0.10219647467E+01 0.  0.
     999903    2    3    3    0    0  0.46063436932E-01 -0.33202406808E-01  0.11611873665E+00  0.13075859003E+00  0.19748615811E-01 0.  0.
         14    1    1    2    0    0 -0.56995606063E-02  0.10063444846E-01  0.18401526373E-01  0.21734168632E-01  0.00000000000E+00 0.  1.
     999901    1    3    3    0    0 -0.40363876325E-01  0.23138961962E-01 -0.13452026302E+00  0.89143724133E+00  0.88000000000E+00 0.  1.
        -11    1    4    4    0    0  0.11170321010E-01 -0.10130782780E-01  0.52439693583E-01  0.54567310867E-01  0.51100000000E-03 0.  1.
         11    1    4    4    0    0  0.34893115922E-01 -0.23071624028E-01  0.63679043068E-01  0.76191279167E-01  0.51100000000E-03 0. -1.
</event>
<event>
 8    1  0.1042301E+005  0.1043930E+01  0.7957747E-01            NaN
         13   -1    0    0    0    0  0.00000000000E+00  0.00000000000E+00  0.74505805969E-08  0.10566000000E+00  0.10566000000E+00 0. -1.
     999900   -1    0    0    0    0 -0.00000000000E+00 -0.00000000000E+00 -0.74505805969E-08  0.93827000000E+00  0.93827000000E+00 0.  1.
     999902    2    1    2    0    0 -0.78047491134E-02  0.21141883802E-01  0.10156638706E-01  0.10192105609E+01  0.10189107502E+01 0.  0.
     999903    2    3    3    0    0 -0.10453069171E+00  0.73083077401E-01  0.27020488492E-01  0.13222793143E+00  0.22052603914E-01 0.  0.
         14    1    1    2    0    0  0.78047491134E-02 -0.21141883802E-01 -0.10156638706E-01  0.24719439096E-01  0.00000000000E+00 0.  1.
     999901    1    3    3    0    0  0.96725942596E-01 -0.51941193599E-01 -0.16863849785E-01  0.88698262948E+00  0.88000000000E+00 0. -1.
        -11    1    4    4    0    0 -0.47511009714E-02  0.58856337748E-02 -0.31407835049E-02  0.82060518762E-02  0.51100000000E-03 0.  1.
         11    1    4    4    0    0 -0.99779590739E-01  0.67197443626E-01  0.30161271997E-01  0.12402187955E+00  0.51100000000E-03 0. -1.
</event>
<event>
 8    1  0.1042301E+005  0.1043930E+01  0.7957747E-01            NaN
         13   -1    0    0    0    0  0.00000000000E+00  0.00000000000E+00  0.74505805969E-08  0.10566000000E+00  0.10566000000E+00 0. -1.
     999900   -1    0    0    0    0 -0.00000000000E+00 -0.00000000000E+00 -0.74505805969E-08  0.93827000000E+00  0.93827000000E+00 0. -1.
     999902    2    1    2    0    0 -0.11340721097E-01  0.12836152422E-01 -0.16983488016E-01  0.10198091039E+01  0.10195238059E+01 0.  0.
     999903    2    3    3    0    0  0.32930927749E-01  0.12361641533E+00  0.20182436045E-01  0.13098203890E+00  0.19583147075E-01 0.  0.
         14    1    1    2    0    0  0.11340721097E-01 -0.12836152422E-01  0.16983488016E-01  0.24120896111E-01  0.00000000000E+00 0. -1.
     999901    1    3    3    0    0 -0.44271648847E-01 -0.11078026291E+00 -0.37165924062E-01  0.88882706499E+00  0.88000000000E+00 0. -1.
        -11    1    4    4    0    0  0.23351554759E-01  0.84859573581E-01  0.22954848050E-01  0.90959488279E-01  0.51100000000E-03 0. -1.
         11    1    4    4    0    0  0.95793729899E-02  0.38756841747E-01 -0.27724120040E-02  0.40022550623E-01  0.51100000000E-03 0.  1.
</event>
<event>
 8    1  0.1278244E+005  0.1043930E+01  0.7957747E-01            NaN
         13   -1    0    0    0    0  0.00000000000E+00  0.00000000000E+00  0.74505805969E-08  0.10566000000E+00  0.10566000000E+00 0. -1.
     999900   -1    0    0    0    0 -0.00000000000E+00 -0.00000000000E+00 -0.74505805969E-08  0.93827000000E+00  0.93827000000E+00 0. -1.
     999902    2    1    2    0    0  0.18981540203E-01 -0.15569967619E-01  0.23567161153E-01  0.10098986344E+01  0.10093250804E+01 0.  0.
     999903    2    3    3    0    0 -0.61892233563E-01 -0.10047515861E+00  0.21915569676E-01  0.12211927752E+00  0.22514876750E-01 0.  0.
         14    1    1    2    0    0 -0.18981540203E-01  0.15569967619E-01 -0.23567161153E-01  0.34031365606E-01  0.00000000000E+00 0. -1.
     999901    1    3    3    0    0  0.80873773767E-01  0.84905190988E-01  0.16515914778E-02  0.88777935688E+00  0.88000000000E+00 0. -1.
        -11    1    4    4    0    0 -0.16546880445E-01 -0.47801942182E-01  0.10872041443E-01  0.51742509941E-01  0.51100000000E-03 0.  1.
         11    1    4    4    0    0 -0.45345353118E-01 -0.52673216425E-01  0.11043528232E-01  0.70376767578E-01  0.51100000000E-03 0. -1.
</event>
<event>
 8    1  0.1042301E+005  0.1043930E+01  0.7957747E-01            NaN
         13   -1    0    0    0    0  0.00000000000E+00  0.00000000000E+00  0.74505805969E-08  0.10566000000E+00  0.10566000000E+00 0. -1.
     999900   -1    0    0    0    0 -0.00000000000E+00 -0.00000000000E+00 -0.74505805969E-08  0.93827000000E+00  0.93827000000E+00 0. -1.
     999902    2    1    2    0    0  0.17793622583E-01  0.51117739979E-02  0.15994559260E-01  0.10194643268E+01  0.10191707141E+01 0.  0.
     999903    2    3    3    0    0  0.12949705620E+00 -0.42922698045E-02 -0.13353767690E-01  0.13186789972E+00  0.20564744591E-01 0.  0.
         14    1    1    2    0    0 -0.17793622583E-01 -0.51117739979E-02 -0.15994559260E-01  0.24465673176E-01  0.00000000000E+00 0. -1.
     999901    1    3    3    0    0 -0.11170343361E+00  0.94040438023E-02  0.29348326951E-01  0.88759642711E+00  0.88000000000E+00 0.  1.
        -11    1    4    4    0    0  0.20712089341E-01 -0.81790978318E-02 -0.77411030263E-03  0.22287858891E-01  0.51100000000E-03 0. -1.
         11    1    4    4    0    0  0.10878496686E+00  0.38868280273E-02 -0.12579657388E-01  0.10958004082E+00  0.51100000000E-03 0.  1.
</event>
<event>
 8    1  0.1042301E+005  0.1043930E+01  0.7957747E-01            NaN
         13   -1    0    0    0    0  0.00000000000E+00  0.00000000000E+00  0.74505805969E-08  0.10566000000E+00  0.10566000000E+00 0. -1.
     999900   -1    0    0    0    0 -0.00000000000E+00 -0.00000000000E+00 -0.74505805969E-08  0.93827000000E+00  0.93827000000E+00 0. -1.
     999902    2    1    2    0    0 -0.63345623357E-02  0.10465363795E-01  0.21087016542E-01  0.10195514687E+01  0.10192599691E+01 0.  0.
     999903    2    3    3    0    0 -0.29384590001E-01  0.58580018585E-01  0.11401333054E+00  0.13305182204E+00  0.20215714212E-01 0.  0.
         14    1    1    2    0    0  0.63345623357E-02 -0.10465363795E-01 -0.21087016542E-01  0.24378531252E-01  0.00000000000E+00 0.  1.
     999901    1    3    3    0    0  0.23050027665E-01 -0.48114654789E-01 -0.92926313995E-01  0.88649964671E+00  0.88000000000E+00 0.  1.
        -11    1    4    4    0    0  0.14302526249E-02  0.13397408875E-01  0.17165349993E-01  0.21827655589E-01  0.51100000000E-03 0.  1.
         11    1    4    4    0    0 -0.30814842626E-01  0.45182609710E-01  0.96847980544E-01  0.11122416645E+00  0.51100000000E-03 0. -1.
</event>
<event>
 8    1  0.1042301E+005  0.1043930E+01  0.7957747E-01            NaN
         13   -1    0    0    0    0  0.00000000000E+00  0.00000000000E+00  0.74505805969E-08  0.10566000000E+00  0.10566000000E+00 0. -1.
     999900   -1    0    0    0    0 -0.00000000000E+00 -0.00000000000E+00 -0.74505805969E-08  0.93827000000E+00  0.93827000000E+00 0. -1.
     999902    2    1    2    0    0 -0.21197304540E-01  0.10047093542E-01 -0.36205031457E-02  0.10201944180E+01  0.10199182677E+01 0.  0.
     999903    2    3    3    0    0 -0.94334179222E-01  0.22604871616E-01  0.87883877019E-01  0.13234321889E+00  0.19525218448E-01 0.  0.
         14    1    1    2    0    0  0.21197304540E-01 -0.10047093542E-01  0.36205031457E-02  0.23735581970E-01  0.00000000000E+00 0. -1.
     999901    1    3    3    0    0  0.73136874682E-01 -0.12557778074E-01 -0.91504380165E-01  0.88785119914E+00  0.88000000000E+00 0. -1.
        -11    1    4    4    0    0 -0.61860282524E-01  0.92089049931E-02  0.45788102792E-01  0.77513288947E-01  0.51100000000E-03 0. -1.
         11    1    4    4    0    0 -0.32473896698E-01  0.13395966623E-01  0.42095774227E-01  0.54829929941E-01  0.51100000000E-03 0.  1.
</event>
<event>
 8    1  0.1042301E+005  0.1043930E+01  0.7957747E-01            NaN
         13   -1    0    0    0    0  0.00000000000E+00  0.00000000000E+00  0.74505805969E-08  0.10566000000E+00  0.10566000000E+00 0.  1.
     999900   -1    0    0    0    0 -0.00000000000E+00 -0.00000000000E+00 -0.74505805969E-08  0.93827000000E+00  0.93827000000E+00 0. -1.
     999902    2    1    2    0    0  0.83930638305E-02  0.10284682646E-01  0.19242138646E-01  0.10205531286E+01  0.10202853572E+01 0.  0.
     999903    2    3    3    0    0 -0.35699811610E-01  0.88836006154E-01  0.90356326174E-01  0.13310075253E+00  0.19627330602E-01 0.  0.
         14    1    1    2    0    0 -0.83930638305E-02 -0.10284682646E-01 -0.19242138646E-01  0.23376871417E-01  0.00000000000E+00 0. -1.
     999901    1    3    3    0    0  0.44092875441E-01 -0.78551323508E-01 -0.71114187528E-01  0.88745237605E+00  0.88000000000E+00 0. -1.
        -11    1    4    4    0    0 -0.25104983192E-01  0.78819543237E-01  0.80958442615E-01  0.11574675429E+00  0.51100000000E-03 0.  1.
         11    1    4    4    0    0 -0.10594828419E-01  0.10016462917E-01  0.93978835596E-02  0.17353998242E-01  0.51100000000E-03 0. -1.
</event>
<event>
 8    1  0.1042301E+005  0.1043930E+01  0.7957747E-01            NaN
         13   -1    0    0    0    0  0.00000000000E+00  0.00000000000E+00  0.74505805969E-08  0.10566000000E+00  0.10566000000E+00 0.  1.
     999900   -1    0    0    0    0 -0.00000000000E+00 -0.00000000000E+00 -0.74505805969E-08  0.93827000000E+00  0.93827000000E+00 0.  1.
     999902    2    1    2    0    0 -0.14392544501E-01  0.88236443511E-02  0.17032411674E-01  0.10199486513E+01  0.10196666839E+01 0.  0.
     999903    2    3    3    0    0  0.63699983121E-02 -0.33452782151E-01 -0.12173638956E+00  0.12783029616E+00  0.19004487929E-01 0.  0.
         14    1    1    2    0    0  0.14392544501E-01 -0.88236443511E-02 -0.17032411674E-01  0.23981348675E-01  0.00000000000E+00 0. -1.
     999901    1    3    3    0    0 -0.20762542813E-01  0.42276426502E-01  0.13876880124E+00  0.89211835516E+00  0.88000000000E+00 0. -1.
        -11    1    4    4    0    0  0.21163364112E-02 -0.21572338779E-01 -0.10284870458E+00  0.10510928520E+00  0.51100000000E-03 0. -1.
         11    1    4    4    0    0  0.42536619009E-02 -0.11880443372E-01 -0.18887684984E-01  0.22721010966E-01  0.51100000000E-03 0.  1.
</event>
<event>
 8    1  0.1042301E+005  0.1043930E+01  0.7957747E-01            NaN
         13   -1    0    0    0    0  0.00000000000E+00  0.00000000000E+00  0.74505805969E-08  0.10566000000E+00  0.10566000000E+00 0. -1.
     999900   -1    0    0    0    0 -0.00000000000E+00 -0.00000000000E+00 -0.74505805969E-08  0.93827000000E+00  0.93827000000E+00 0.  1.
     999902    2    1    2    0    0  0.10976672680E-01 -0.15972409681E-01  0.13511666483E-01  0.10203043710E+01  0.10200308030E+01 0.  0.
     999903    2    3    3    0    0  0.11048518217E+00 -0.45090954029E-01  0.56046583354E-01  0.13319724544E+00  0.18976750813E-01 0.  0.
         14    1    1    2    0    0 -0.10976672680E-01  0.15972409681E-01 -0.13511666483E-01  0.23625628993E-01  0.00000000000E+00 0.  1.
     999901    1    3    3    0    0 -0.99508509492E-01  0.29118544348E-01 -0.42534916871E-01  0.88710712557E+00  0.88000000000E+00 0.  1.
        -11    1    4    4    0    0  0.35923055122E-01 -0.18445567035E-01  0.28221319731E-01  0.49268741012E-01  0.51100000000E-03 0. -1.
         11    1    4    4    0    0  0.74562127050E-01 -0.26645386994E-01  0.27825263623E-01  0.83928504424E-01  0.51100000000E-03 0.  1.
</event>
<event>
 8    1  0.1042301E+005  0.1043930E+01  0.7957747E-01            NaN
         13   -1    0    0    0    0  0.00000000000E+00  0.00000000000E+00  0.74505805969E-08  0.10566000000E+00  0.10566000000E+00 0.  1.
     999900   -1    0    0    0    0 -0.00000000000E+00 -0.00000000000E+00 -0.74505805969E-08  0.93827000000E+00  0.93827000000E+00 0. -1.
     999902    2    1    2    0    0 -0.12878538013E-01  0.34144136159E-02  0.18331569049E-01  0.10212681072E+01  0.10210166431E+01 0.  0.
     999903    2    3    3    0    0  0.82995547967E-01 -0.93572050488E-01  0.33214596139E-01  0.13063927369E+00  0.17872347859E-01 0.  0.
         14    1    1    2    0    0  0.12878538013E-01 -0.34144136159E-02 -0.18331569049E-01  0.22661892804E-01  0.00000000000E+00 0. -1.
     999901    1    3    3    0    0 -0.95874085980E-01  0.96986464103E-01 -0.14883027090E-01  0.89062883351E+00  0.88000000000E+00 0.  1.
        -11    1    4    4    0    0  0.62451517322E-01 -0.77744116048E-01  0.20740740908E-01  0.10185665933E+00  0.51100000000E-03 0.  1.
         11    1    4    4    0    0  0.20544030645E-01 -0.15827934439E-01  0.12473855231E-01  0.28782614354E-01  0.51100000000E-03 0. -1.
</event>
<event>
 8    1  0.1042301E+005  0.1043930E+01  0.7957747E-01            NaN
         13   -1    0    0    0    0  0.00000000000E+00  0.00000000000E+00  0.74505805969E-08  0.10566000000E+00  0.10566000000E+00 0. -1.
     999900   -1    0    0    0    0 -0.00000000000E+00 -0.00000000000E+00 -0.74505805969E-08  0.93827000000E+00  0.93827000000E+00 0.  1.
     999902    2    1    2    0    0  0.74933968652E-02 -0.22346002718E-01 -0.48259655912E-02  0.10198720537E+01  0.10195882606E+01 0.  0.
     999903    2    3    3    0    0 -0.29422402575E-01  0.43979819720E-01 -0.11634893657E+00  0.12959161252E+00  0.21377761333E-01 0.  0.
         14    1    1    2    0    0 -0.74933968652E-02  0.22346002718E-01  0.48259655912E-02  0.24057946254E-01  0.00000000000E+00 0.  1.
     999901    1    3    3    0    0  0.36915799440E-01 -0.66325822438E-01  0.11152297098E+00  0.89028044122E+00  0.88000000000E+00 0. -1.
        -11    1    4    4    0    0 -0.37502722613E-02  0.14673647091E-02 -0.27549668443E-01  0.27847137260E-01  0.51100000000E-03 0. -1.
         11    1    4    4    0    0 -0.25672130313E-01  0.42512455011E-01 -0.88799268125E-01  0.10174447526E+00  0.51100000000E-03 0.  1.
</event>
<event>
 8    1  0.1042301E+005  0.1043930E+01  0.7957747E-01            NaN
         13   -1    0    0    0    0  0.00000000000E+00  0.00000000000E+00  0.74505805969E-08  0.10566000000E+00  0.10566000000E+00 0.  1.
     999900   -1    0    0    0    0 -0.00000000000E+00 -0.00000000000E+00 -0.74505805969E-08  0.93827000000E+00  0.93827000000E+00 0.  1.
     999902    2    1    2    0    0  0.66772254451E-02  0.22424154046E-01  0.88032297776E-02  0.10189315025E+01  0.10186247993E+01 0.  0.
     999903    2    3    3    0    0 -0.40118741839E-01  0.98318210592E-01  0.76357758446E-01  0.13185011685E+00  0.16672194121E-01 0.  0.
         14    1    1    2    0    0 -0.66772254451E-02 -0.22424154046E-01 -0.88032297776E-02  0.24998497532E-01  0.00000000000E+00 0. -1.
     999901    1    3    3    0    0  0.46795967284E-01 -0.75894056547E-01 -0.67554528668E-01  0.88708138562E+00  0.88000000000E+00 0.  1.
        -11    1    4    4    0    0 -0.25319939648E-02  0.17332952972E-01  0.18368022969E-01  0.25386761136E-01  0.51100000000E-03 0. -1.
         11    1    4    4    0    0 -0.37586747874E-01  0.80985257621E-01  0.57989735476E-01  0.10646335571E+00  0.51100000000E-03 0.  1.
</event>
<event>
 8    1  0.1042301E+005  0.1043930E+01  0.7957747E-01            NaN
         13   -1    0    0    0    0  0.00000000000E+00  0.00000000000E+00  0.74505805969E-08  0.10566000000E+00  0.10566000000E+00 0.  1.
     999900   -1    0    0    0    0 -0.00000000000E+00 -0.00000000000E+00 -0.74505805969E-08  0.93827000000E+00  0.93827000000E+00 0.  1.
     999902    2    1    2    0    0 -0.54618026818E-03 -0.14830920336E-01 -0.15805792897E-01  0.10222487270E+01  0.10220187778E+01 0.  0.
     999903    2    3    3    0    0  0.44926164224E-02 -0.57531755056E-01 -0.12037434684E+00  0.13501519896E+00  0.20224592247E-01 0.  0.
         14    1    1    2    0    0  0.54618026818E-03  0.14830920336E-01  0.15805792897E-01  0.21681273025E-01  0.00000000000E+00 0.  1.
     999901    1    3    3    0    0 -0.50387966906E-02  0.42700834719E-01  0.10456855394E+00  0.88723352801E+00  0.88000000000E+00 0. -1.
        -11    1    4    4    0    0  0.41524621523E-02 -0.11789697013E-02 -0.50905627254E-02  0.66938674430E-02  0.51100000000E-03 0. -1.
         11    1    4    4    0    0  0.34015427010E-03 -0.56352785354E-01 -0.11528378411E+00  0.12832133152E+00  0.51100000000E-03 0.  1.
</event>
<event>
 7    1  0.1262913E+005  0.1043930E+01  0.7957747E-01            NaN
         13   -1    0    0    0    0  0.00000000000E+00  0.00000000000E+00  0.74505805969E-08  0.10566000000E+00  0.10566000000E+00 0.  1.
     999900   -1    0    0    0    0 -0.00000000000E+00 -0.00000000000E+00 -0.74505805969E-08  0.93827000000E+00  0.93827000000E+00 0. -1.
     999903    2    1    2    0    0 -0.88785958110E-01  0.41290411026E-01 -0.19304524893E-01  0.10224504358E+00  0.22215756907E-01 0.  0.
         14    1    1    2    0    0 -0.30652409602E-01  0.22554948747E-02  0.42258156684E-01  0.52253318343E-01  0.00000000000E+00 0.  1.
     999901    1    1    2    0    0  0.11943836771E+00 -0.43545905901E-01 -0.22953631791E-01  0.88943163808E+00  0.88000000000E+00 0. -1.
        -11    1    3    3    0    0 -0.64748230292E-01  0.38927576121E-01 -0.93957843706E-02  0.76132984925E-01  0.51100000000E-03 0. -1.
         11    1    3    3    0    0 -0.24037727817E-01  0.23628349052E-02 -0.99087405224E-02  0.26112058654E-01  0.51100000000E-03 0.  1.
</event>
<event>
 8    1  0.1042301E+005  0.1043930E+01  0.7957747E-01            NaN
         13   -1    0    0    0    0  0.00000000000E+00  0.00000000000E+00  0.74505805969E-08  0.10566000000E+00  0.10566000000E+00 0.  1.
     999900   -1    0    0    0    0 -0.00000000000E+00 -0.00000000000E+00 -0.74505805969E-08  0.93827000000E+00  0.93827000000E+00 0.  1.
     999902    2    1    2    0    0  0.15315136875E-02  0.42237878269E-02  0.22813910773E-01  0.10206778938E+01  0.10204130058E+01 0.  0.
     999903    2    3    3    0    0  0.59313114646E-01  0.65686682754E-01  0.97944691482E-01  0.13345693200E+00  0.19616428011E-01 0.  0.
         14    1    1    2    0    0 -0.15315136875E-02 -0.42237878269E-02 -0.22813910773E-01  0.23252106196E-01  0.00000000000E+00 0. -1.
     999901    1    3    3    0    0 -0.57781600958E-01 -0.61462894927E-01 -0.75130780709E-01  0.88722096181E+00  0.88000000000E+00 0. -1.
        -11    1    4    4    0    0  0.24226430559E-01  0.32092724957E-01  0.57931976161E-01  0.70521187708E-01  0.51100000000E-03 0.  1.
         11    1    4    4    0    0  0.35086684087E-01  0.33593957797E-01  0.40012715321E-01  0.62935744288E-01  0.51100000000E-03 0. -1.
</event>
<event>
 8    1  0.1042301E+005  0.1043930E+01  0.7957747E-01            NaN
         13   -1    0    0    0    0  0.00000000000E+00  0.00000000000E+00  0.74505805969E-08  0.10566000000E+00  0.10566000000E+00 0. -1.
     999900   -1    0    0    0    0 -0.00000000000E+00 -0.00000000000E+00 -0.74505805969E-08  0.93827000000E+00  0.93827000000E+00 0. -1.
     999902    2    1    2    0    0 -0.24932904458E-01  0.46891384590E-02  0.75723066730E-03  0.10185486852E+01  0.10182323963E+01 0.  0.
     999903    2    3    3    0    0  0.41526465619E-01 -0.15350953218E-01 -0.11821722883E+00  0.12783359315E+00  0.20149819678E-01 0.  0.
         14    1    1    2    0    0  0.24932904458E-01 -0.46891384590E-02 -0.75723066730E-03  0.25381314830E-01  0.00000000000E+00 0.  1.
     999901    1    3    3    0    0 -0.66459370077E-01  0.20040091677E-01  0.11897445950E+00  0.89071509202E+00  0.88000000000E+00 0.  1.
        -11    1    4    4    0    0  0.10897566862E-02 -0.63201646574E-02 -0.25132176863E-01  0.25942619101E-01  0.51100000000E-03 0. -1.
         11    1    4    4    0    0  0.40436708933E-01 -0.90307885601E-02 -0.93085051967E-01  0.10189097405E+00  0.51100000000E-03 0.  1.
</event>
<event>
 8    1  0.1042301E+005  0.1043930E+01  0.7957747E-01            NaN
         13   -1    0    0    0    0  0.00000000000E+00  0.00000000000E+00  0.74505805969E-08  0.10566000000E+00  0.10566000000E+00 0.  1.
     999900   -1    0    0    0    0 -0.00000000000E+00 -0.00000000000E+00 -0.74505805969E-08  0.93827000000E+00  0.93827000000E+00 0.  1.
     999902    2    1    2    0    0 -0.82834630405E-02 -0.12777784678E-01 -0.17012776843E-01  0.10210975206E+01  0.10208422133E+01 0.  0.
     999903    2    3    3    0    0  0.12288791441E+00 -0.17518149679E-01 -0.37193254706E-01  0.13113367129E+00  0.20109114241E-01 0.  0.
         14    1    1    2    0    0  0.82834630405E-02  0.12777784678E-01  0.17012776843E-01  0.22832479435E-01  0.00000000000E+00 0.  1.
     999901    1    3    3    0    0 -0.13117137745E+00  0.47403650008E-02  0.20180477862E-01  0.88996384927E+00  0.88000000000E+00 0. -1.
        -11    1    4    4    0    0  0.84640933322E-01 -0.20935986578E-01 -0.28778768107E-01  0.91819833056E-01  0.51100000000E-03 0.  1.
         11    1    4    4    0    0  0.38246981086E-01  0.34178368993E-02 -0.84144865986E-02  0.39313838238E-01  0.51100000000E-03 0. -1.
</event>
<event>
 8    1  0.1052051E+005  0.1043930E+01  0.7957747E-01            NaN
         13   -1    0    0    0    0  0.00000000000E+00  0.00000000000E+00  0.74505805969E-08  0.10566000000E+00  0.10566000000E+00 0.  1.
     999900   -1    0    0    0    0 -0.00000000000E+00 -0.00000000000E+00 -0.74505805969E-08  0.93827000000E+00  0.93827000000E+00 0. -1.
     999902    2    1    2    0    0 -0.22254220205E-01  0.50682472591E-03  0.98866631173E-02  0.10195732084E+01  0.10192822347E+01 0.  0.
     999903    2    3    3    0    0 -0.12018861539E+00  0.27884366274E-01 -0.43091900385E-01  0.13213453238E+00  0.19487986493E-01 0.  0.
         14    1    1    2    0    0  0.22254220205E-01 -0.50682472591E-03 -0.98866631173E-02  0.24356791575E-01  0.00000000000E+00 0.  1.
     999901    1    3    3    0    0  0.97934395186E-01 -0.27377541548E-01  0.52978563503E-01  0.88743867604E+00  0.88000000000E+00 0.  1.
        -11    1    4    4    0    0 -0.39319800999E-01  0.17926536124E-01 -0.11287947371E-01  0.44666389207E-01  0.51100000000E-03 0. -1.
         11    1    4    4    0    0 -0.80868814392E-01  0.99578301506E-02 -0.31803953015E-01  0.87468143177E-01  0.51100000000E-03 0.  1.
</event>
<event>
 7    1  0.1042301E+005  0.1043930E+01  0.7957747E-01            NaN
         13   -1    0    0    0    0  0.00000000000E+00  0.00000000000E+00  0.74505805969E-08  0.10566000000E+00  0.10566000000E+00 0. -1.
     999900   -1    0    0    0    0 -0.00000000000E+00 -0.00000000000E+00 -0.74505805969E-08  0.93827000000E+00  0.93827000000E+00 0.  1.
     999903    2    1    2    0    0  0.68010875676E-01 -0.90841177192E-01  0.35702795061E-01  0.12077257583E+00  0.20826108964E-01 0.  0.
         14    1    1    2    0    0 -0.28241544416E-01  0.23811596251E-01  0.10809200486E-01  0.38489164218E-01  0.00000000000E+00 0.  1.
     999901    1    1    2    0    0 -0.39769331259E-01  0.67029580941E-01 -0.46511995547E-01  0.88466825995E+00  0.88000000000E+00 0.  1.
        -11    1    3    3    0    0  0.35472225845E-01 -0.31754600556E-01  0.19127867178E-01  0.51310524132E-01  0.51100000000E-03 0.  1.
         11    1    3    3    0    0  0.32538649830E-01 -0.59086576636E-01  0.16574927882E-01  0.69462051702E-01  0.51100000000E-03 0. -1.
</event>
<event>
 8    1  0.1042301E+005  0.1043930E+01  0.7957747E-01            NaN
         13   -1    0    0    0    0  0.00000000000E+00  0.00000000000E+00  0.74505805969E-08  0.10566000000E+00  0.10566000000E+00 0.  1.
     999900   -1    0    0    0    0 -0.00000000000E+00 -0.00000000000E+00 -0.74505805969E-08  0.93827000000E+00  0.93827000000E+00 0. -1.
     999902    2    1    2    0    0 -0.19661140026E-01 -0.47431031208E-02  0.12259571915E-01  0.10202793223E+01  0.10200051671E+01 0.  0.
     999903    2    3    3    0    0 -0.81486839976E-01 -0.74316299958E-01 -0.69120402508E-01  0.13163679169E+00  0.19687492328E-01 0.  0.
         14    1    1    2    0    0  0.19661140026E-01  0.47431031208E-02 -0.12259571915E-01  0.23650677747E-01  0.00000000000E+00 0. -1.
     999901    1    3    3    0    0  0.61825699950E-01  0.69573196837E-01  0.81379974424E-01  0.88864253057E+00  0.88000000000E+00 0. -1.
        -11    1    4    4    0    0 -0.50315758976E-01 -0.39995663663E-01 -0.50206208959E-01  0.81561346558E-01  0.51100000000E-03 0. -1.
         11    1    4    4    0    0 -0.31171081000E-01 -0.34320636295E-01 -0.18914193549E-01  0.50075445130E-01  0.51100000000E-03 0.  1.
</event>
<event>
 8    1  0.1042301E+005  0.1043930E+01  0.7957747E-01            NaN
         13   -1    0    0    0    0  0.00000000000E+00  0.00000000000E+00  0.74505805969E-08  0.10566000000E+00  0.10566000000E+00 0.  1.
     999900   -1    0    0    0    0 -0.00000000000E+00 -0.00000000000E+00 -0.74505805969E-08  0.93827000000E+00  0.93827000000E+00 0.  1.
     999902    2    1    2    0    0  0.13002925078E-03 -0.23974051112E-01 -0.33655970861E-04  0.10199555726E+01  0.10196737699E+01 0.  0.
     999903    2    3    3    0    0  0.11925009962E+00  0.40460925311E-01  0.23504984167E-01  0.12928418266E+00  0.17442559153E-01 0.  0.
         14    1    1    2    0    0 -0.13002925078E-03  0.23974051112E-01  0.33655970861E-04  0.23974427356E-01  0.00000000000E+00 0.  1.
     999901    1    3    3    0    0 -0.11912007037E+00 -0.64434976423E-01 -0.23538640138E-01  0.89067138998E+00  0.88000000000E+00 0.  1.
        -11    1    4    4    0    0  0.24465468408E-01  0.14033969094E-02  0.25145383567E-02  0.24639656886E-01  0.51100000000E-03 0. -1.
         11    1    4    4    0    0  0.94784631211E-01  0.39057528402E-01  0.20990445810E-01  0.10464452578E+00  0.51100000000E-03 0.  1.
</event>
<event>
 8    1  0.1042301E+005  0.1043930E+01  0.7957747E-01            NaN
         13   -1    0    0    0    0  0.00000000000E+00  0.00000000000E+00  0.74505805969E-08  0.10566000000E+00  0.10566000000E+00 0.  1.
     999900   -1    0    0    0    0 -0.00000000000E+00 -0.00000000000E+00 -0.74505805969E-08  0.93827000000E+00  0.93827000000E+00 0.  1.
     999902    2    1    2    0    0  0.21212251592E-02  0.22297386876E-01  0.15155299074E-01  0.10168864028E+01  0.10165267336E+01 0.  0.
     999903    2    3    3    0    0  0.28221936668E-01  0.12542093605E+00  0.80661736605E-02  0.13045198945E+00  0.20634182441E-01 0.  0.
         14    1    1    2    0    0 -0.21212251592E-02 -0.22297386876E-01 -0.15155299074E-01  0.27043597167E-01  0.00000000000E+00 0. -1.
     999901    1    3    3    0    0 -0.26100711508E-01 -0.10312354917E+00  0.70891254136E-02  0.88643441339E+00  0.88000000000E+00 0. -1.
        -11    1    4    4    0    0  0.12929270540E-01  0.84491515556E-01 -0.24372012712E-02  0.85511305151E-01  0.51100000000E-03 0. -1.
         11    1    4    4    0    0  0.15292666128E-01  0.40929420492E-01  0.10503374932E-01  0.44940684296E-01  0.51100000000E-03 0.  1.
</event>
<event>
 8    1  0.1042301E+005  0.1043930E+01  0.7957747E-01            NaN
         13   -1    0    0    0    0  0.00000000000E+00  0.00000000000E+00  0.74505805969E-08  0.10566000000E+00  0.10566000000E+00 0.  1.
     999900   -1    0    0    0    0 -0.00000000000E+00 -0.00000000000E+00 -0.74505805969E-08  0.93827000000E+00  0.93827000000E+00 0.  1.
     999902    2    1    2    0    0  0.21760973052E-01 -0.99592760870E-02 -0.44868372217E-02  0.10195813073E+01  0.10192905294E+01 0.  0.
     999903    2    3    3    0    0 -0.73920241738E-01 -0.10393900708E+00 -0.11593359158E-01  0.12939167168E+00  0.18446663396E-01 0.  0.
         14    1    1    2    0    0 -0.21760973052E-01  0.99592760870E-02  0.44868372217E-02  0.24348692708E-01  0.00000000000E+00 0. -1.
     999901    1    3    3    0    0  0.95681214790E-01  0.93979730998E-01  0.71065219367E-02  0.89018963561E+00  0.88000000000E+00 0.  1.
        -11    1    4    4    0    0 -0.23863791463E-01 -0.33580528625E-01  0.48717342143E-02  0.41486472024E-01  0.51100000000E-03 0. -1.
         11    1    4    4    0    0 -0.50056450275E-01 -0.70358478459E-01 -0.16465093373E-01  0.87905199653E-01  0.51100000000E-03 0.  1.
</event>
<event>
 8    1  0.1042301E+005  0.1043930E+01  0.7957747E-01            NaN
         13   -1    0    0    0    0  0.00000000000E+00  0.00000000000E+00  0.74505805969E-08  0.10566000000E+00  0.10566000000E+00 0.  1.
     999900   -1    0    0    0    0 -0.00000000000E+00 -0.00000000000E+00 -0.74505805969E-08  0.93827000000E+00  0.93827000000E+00 0. -1.
     999902    2    1    2    0    0 -0.18618697397E-01  0.13613159040E-01 -0.11634557373E-02  0.10208361129E+01  0.10205748585E+01 0.  0.
     999903    2    3    3    0    0  0.40126566615E-01 -0.21617207245E-02  0.12201441640E+00  0.13017756943E+00  0.21068160561E-01 0.  0.
         14    1    1    2    0    0  0.18618697397E-01 -0.13613159040E-01  0.11634557373E-02  0.23093887093E-01  0.00000000000E+00 0.  1.
     999901    1    3    3    0    0 -0.58745264012E-01  0.15774879765E-01 -0.12317787214E+00  0.89065854347E+00  0.88000000000E+00 0. -1.
        -11    1    4    4    0    0 -0.51790586150E-03  0.16874520343E-02  0.23027161992E-01  0.23100368639E-01  0.51100000000E-03 0.  1.
         11    1    4    4    0    0  0.40644472476E-01 -0.38491727587E-02  0.98987254409E-01  0.10707720080E+00  0.51100000000E-03 0. -1.
</event>
<event>
 8    1  0.1042301E+005  0.1043930E+01  0.7957747E-01            NaN
         13   -1    0    0    0    0  0.00000000000E+00  0.00000000000E+00  0.74505805969E-08  0.10566000000E+00  0.10566000000E+00 0.  1.
     999900   -1    0    0    0    0 -0.00000000000E+00 -0.00000000000E+00 -0.74505805969E-08  0.93827000000E+00  0.93827000000E+00 0.  1.
     999902    2    1    2    0    0 -0.12071065610E-01  0.90288331234E-02 -0.18828731783E-01  0.10198104728E+01  0.10195252075E+01 0.  0.
     999903    2    3    3    0    0  0.82376586848E-01  0.62495662184E-01 -0.75541974422E-01  0.13133118054E+00  0.29149257776E-01 0.  0.
         14    1    1    2    0    0  0.12071065610E-01 -0.90288331234E-02  0.18828731783E-01  0.24119527215E-01  0.00000000000E+00 0.  1.
     999901    1    3    3    0    0 -0.94447652458E-01 -0.53466829061E-01  0.56713242639E-01  0.88847929225E+00  0.88000000000E+00 0. -1.
        -11    1    4    4    0    0  0.64465339865E-01  0.31802383936E-01 -0.49970744695E-01  0.87547176507E-01  0.51100000000E-03 0.  1.
         11    1    4    4    0    0  0.17911246983E-01  0.30693278248E-01 -0.25571229727E-01  0.43784004029E-01  0.51100000000E-03 0. -1.
</event>
<event>
 8    1  0.1042301E+005  0.1043930E+01  0.7957747E-01            NaN
         13   -1    0    0    0    0  0.00000000000E+00  0.00000000000E+00  0.74505805969E-08  0.10566000000E+00  0.10566000000E+00 0. -1.
     999900   -1    0    0    0    0 -0.00000000000E+00 -0.00000000000E+00 -0.74505805969E-08  0.93827000000E+00  0.93827000000E+00 0.  1.
     999902    2    1    2    0    0  0.22400594718E-01 -0.54314625270E-02  0.50585344208E-02  0.10203317755E+01  0.10200588492E+01 0.  0.
     999903    2    3    3    0    0 -0.98142467987E-01 -0.77963182610E-01  0.23199482424E-01  0.12897293958E+00  0.19636733277E-01 0.  0.
         14    1    1    2    0    0 -0.22400594718E-01  0.54314625270E-02 -0.50585344208E-02  0.23598224497E-01  0.00000000000E+00 0.  1.
     999901    1    3    3    0    0  0.12054306271E+00  0.72531720083E-01 -0.18140948004E-01  0.89135883592E+00  0.88000000000E+00 0.  1.
        -11    1    4    4    0    0 -0.50977498763E-01 -0.46791170512E-01  0.21305334671E-01  0.72403711400E-01  0.51100000000E-03 0. -1.
         11    1    4    4    0    0 -0.47164969224E-01 -0.31172012098E-01  0.18941477530E-02  0.56569228180E-01  0.51100000000E-03 0.  1.
</event>
<event>
 8    1  0.1042301E+005  0.1043930E+01  0.7957747E-01            NaN
         13   -1    0    0    0    0  0.00000000000E+00  0.00000000000E+00  0.74505805969E-08  0.10566000000E+00  0.10566000000E+00 0.  1.
     999900   -1    0    0    0    0 -0.00000000000E+00 -0.00000000000E+00 -0.74505805969E-08  0.93827000000E+00  0.93827000000E+00 0.  1.
     999902    2    1    2    0    0 -0.98970532078E-02 -0.10183638982E-01  0.19115154089E-01  0.10201172454E+01  0.10198392751E+01 0.  0.
     999903    2    3    3    0    0  0.11351096214E+00  0.24661297879E-01 -0.50000597474E-01  0.12814151985E+00  0.20670540014E-01 0.  0.
         14    1    1    2    0    0  0.98970532078E-02  0.10183638982E-01 -0.19115154089E-01  0.23812754586E-01  0.00000000000E+00 0. -1.
     999901    1    3    3    0    0 -0.12340801534E+00 -0.34844936861E-01  0.69115751564E-01  0.89197572556E+00  0.88000000000E+00 0.  1.
        -11    1    4    4    0    0  0.24357435323E-01  0.13881385087E-01 -0.14582646601E-01  0.31605256055E-01  0.51100000000E-03 0. -1.
         11    1    4    4    0    0  0.89153526813E-01  0.10779912792E-01 -0.35417950873E-01  0.96536263798E-01  0.51100000000E-03 0.  1.
</event>
<event>
 8    1  0.1042301E+005  0.1043930E+01  0.7957747E-01            NaN
         13   -1    0    0    0    0  0.00000000000E+00  0.00000000000E+00  0.74505805969E-08  0.10566000000E+00  0.10566000000E+00 0. -1.
     999900   -1    0    0    0    0 -0.00000000000E+00 -0.00000000000E+00 -0.74505805969E-08  0.93827000000E+00  0.93827000000E+00 0.  1.
     999902    2    1    2    0    0  0.15585687367E-01  0.16640579567E-01  0.67913917537E-02  0.10201403901E+01  0.10198629662E+01 0.  0.
     999903    2    3    3    0    0  0.41523958011E-01 -0.10651888739E+00 -0.56169836377E-01  0.12895849817E+00  0.20117934074E-01 0.  0.
         14    1    1    2    0    0 -0.15585687367E-01 -0.16640579567E-01 -0.67913917537E-02  0.23789609938E-01  0.00000000000E+00 0. -1.
     999901    1    3    3    0    0 -0.25938270644E-01  0.12315946696E+00  0.62961228131E-01  0.89118189189E+00  0.88000000000E+00 0.  1.
        -11    1    4    4    0    0  0.30075308093E-01 -0.90364504540E-01 -0.52708624756E-01  0.10885186302E+00  0.51100000000E-03 0.  1.
         11    1    4    4    0    0  0.11448649918E-01 -0.16154382855E-01 -0.34612116211E-02  0.20106635155E-01  0.51100000000E-03 0. -1.
</event>
<event>
 8    1  0.1042301E+005  0.1043930E+01  0.7957747E-01            NaN
         13   -1    0    0    0    0  0.00000000000E+00  0.00000000000E+00  0.74505805969E-08  0.10566000000E+00  0.10566000000E+00 0.  1.
     999900   -1    0    0    0    0 -0.00000000000E+00 -0.00000000000E+00 -0.74505805969E-08  0.93827000000E+00  0.93827000000E+00 0. -1.
     999902    2    1    2    0    0 -0.23310668640E-01 -0.21259529235E-01  0.15677789373E-01  0.10087000705E+01  0.10080846612E+01 0.  0.
     999903    2    3    3    0    0 -0.45602711028E-01  0.93826946414E-01  0.56159284344E-01  0.12000406874E+00  0.19078998154E-01 0.  0.
         14    1    1    2    0    0  0.23310668640E-01  0.21259529235E-01 -0.15677789373E-01  0.35229929540E-01  0.00000000000E+00 0. -1.
     999901    1    3    3    0    0  0.22292042388E-01 -0.11508647565E+00 -0.40481494971E-01  0.88869600172E+00  0.88000000000E+00 0.  1.
        -11    1    4    4    0    0 -0.39564650820E-01  0.91261813985E-01  0.52501357164E-01  0.11247548138E+00  0.51100000000E-03 0.  1.
         11    1    4    4    0    0 -0.60380602086E-02  0.25651324290E-02  0.36579271798E-02  0.75285873651E-02  0.51100000000E-03 0. -1.
</event>
<event>
 8    1  0.1042301E+005  0.1043930E+01  0.7957747E-01            NaN
         13   -1    0    0    0    0  0.00000000000E+00  0.00000000000E+00  0.74505805969E-08  0.10566000000E+00  0.10566000000E+00 0. -1.
     999900   -1    0    0    0    0 -0.00000000000E+00 -0.00000000000E+00 -0.74505805969E-08  0.93827000000E+00  0.93827000000E+00 0. -1.
     999902    2    1    2    0    0  0.20153108729E-01  0.14998819012E-01 -0.49690768830E-02  0.10183213279E+01  0.10179992744E+01 0.  0.
     999903    2    3    3    0    0  0.32129660046E-01  0.30358342747E-01 -0.12116429821E+00  0.13046960477E+00  0.19687218702E-01 0.  0.
         14    1    1    2    0    0 -0.20153108729E-01 -0.14998819012E-01  0.49690768830E-02  0.25608672130E-01  0.00000000000E+00 0. -1.
     999901    1    3    3    0    0 -0.11976551317E-01 -0.15359523736E-01  0.11619522132E+00  0.88785172310E+00  0.88000000000E+00 0.  1.
        -11    1    4    4    0    0  0.21322243245E-01  0.30273045773E-01 -0.84882254584E-01  0.92608604469E-01  0.51100000000E-03 0.  1.
         11    1    4    4    0    0  0.10807416801E-01  0.85296974680E-04 -0.36282043622E-01  0.37861000302E-01  0.51100000000E-03 0. -1.
</event>
<event>
 8    1  0.1042301E+005  0.1043930E+01  0.7957747E-01            NaN
         13   -1    0    0    0    0  0.00000000000E+00  0.00000000000E+00  0.74505805969E-08  0.10566000000E+00  0.10566000000E+00 0.  1.
     999900   -1    0    0    0    0 -0.00000000000E+00 -0.00000000000E+00 -0.74505805969E-08  0.93827000000E+00  0.93827000000E+00 0.  1.
     999902    2    1    2    0    0 -0.97055687502E-02  0.38843354142E-02 -0.20509430388E-01  0.10209099465E+01  0.10206503790E+01 0.  0.
     999903    2    3    3    0    0  0.42741869144E-01  0.11996815830E+00  0.11785603206E-01  0.13115202617E+00  0.29029763033E-01 0.  0.
         14    1    1    2    0    0  0.97055687502E-02 -0.38843354142E-02  0.20509430388E-01  0.23020053458E-01  0.00000000000E+00 0.  1.
     999901    1    3    3    0    0 -0.52447437895E-01 -0.11608382288E+00 -0.32295033594E-01  0.88975792038E+00  0.88000000000E+00 0.  1.
        -11    1    4    4    0    0  0.23035788735E-01  0.77845778543E-01  0.20738771433E-01  0.83791232007E-01  0.51100000000E-03 0.  1.
         11    1    4    4    0    0  0.19706080409E-01  0.42122379752E-01 -0.89531682272E-02  0.47360794159E-01  0.51100000000E-03 0. -1.
</event>
<event>
 8    1  0.1042301E+005  0.1043930E+01  0.7957747E-01            NaN
         13   -1    0    0    0    0  0.00000000000E+00  0.00000000000E+00  0.74505805969E-08  0.10566000000E+00  0.10566000000E+00 0. -1.
     999900   -1    0    0    0    0 -0.00000000000E+00 -0.00000000000E+00 -0.74505805969E-08  0.93827000000E+00  0.93827000000E+00 0. -1.
     999902    2    1    2    0    0 -0.75237891338E-02 -0.18657890314E-01  0.14448451574E-01  0.10191614307E+01  0.10188604123E+01 0.  0.
     999903    2    3    3    0    0 -0.43133509481E-01 -0.56687347917E-01  0.11008840679E+00  0.13244767028E+00  0.18680819034E-01 0.  0.
         14    1    1    2    0    0  0.75237891338E-02  0.18657890314E-01 -0.14448451574E-01  0.24768569333E-01  0.00000000000E+00 0.  1.
     999901    1    3    3    0    0  0.35609720348E-01  0.38029457603E-01 -0.95639955212E-01  0.88671376039E+00  0.88000000000E+00 0. -1.
        -11    1    4    4    0    0 -0.30688000360E-01 -0.38276640347E-01  0.89915991088E-01  0.10243046977E+00  0.51100000000E-03 0.  1.
         11    1    4    4    0    0 -0.12445509121E-01 -0.18410707570E-01  0.20172415697E-01  0.30017200512E-01  0.51100000000E-03 0. -1.
</event>
<event>
 8    1  0.1042301E+005  0.1043930E+01  0.7957747E-01            NaN
         13   -1    0    0    0    0  0.00000000000E+00  0.00000000000E+00  0.74505805969E-08  0.10566000000E+00  0.10566000000E+00 0.  1.
     999900   -1    0    0    0    0 -0.00000000000E+00 -0.00000000000E+00 -0.74505805969E-08  0.93827000000E+00  0.93827000000E+00 0. -1.
     999902    2    1    2    0    0  0.11482596586E-01 -0.13775848898E-02  0.20967763993E-01  0.10199843346E+01  0.10197032156E+01 0.  0.
     999903    2    3    3    0    0 -0.66452102343E-01  0.35885146542E-01  0.10600145555E+00  0.13167523460E+00  0.19960791042E-01 0.  0.
         14    1    1    2    0    0 -0.11482596586E-01  0.13775848898E-02 -0.20967763993E-01  0.23945665398E-01  0.00000000000E+00 0. -1.
     999901    1    3    3    0    0  0.77934698929E-01 -0.37262731432E-01 -0.85033691559E-01  0.88830910000E+00  0.88000000000E+00 0. -1.
        -11    1    4    4    0    0 -0.16924683561E-01  0.89653252154E-02  0.43350524950E-01  0.47395686558E-01  0.51100000000E-03 0.  1.
         11    1    4    4    0    0 -0.49527418782E-01  0.26919821327E-01  0.62650930602E-01  0.84279548040E-01  0.51100000000E-03 0. -1.
</event>
<event>
 7    1  0.1042301E+005  0.1043930E+01  0.7957747E-01            NaN
         13   -1    0    0    0    0  0.00000000000E+00  0.00000000000E+00  0.74505805969E-08  0.10566000000E+00  0.10566000000E+00 0.  1.
     999900   -1    0    0    0    0 -0.00000000000E+00 -0.00000000000E+00 -0.74505805969E-08  0.93827000000E+00  0.93827000000E+00 0. -1.
     999903    2    1    2    0    0 -0.47854751365E-01 -0.31217108111E-01  0.99897522787E-01  0.11702936528E+00  0.21254933835E-01 0.  0.
         14    1    1    2    0    0  0.36859989430E-01 -0.11246784549E-01  0.75835506276E-02  0.39276700772E-01  0.00000000000E+00 0.  1.
     999901    1    1    2    0    0  0.10994761935E-01  0.42463892660E-01 -0.10748107342E+00  0.88762393395E+00  0.88000000000E+00 0. -1.
        -11    1    3    3    0    0 -0.15706809612E-01 -0.19409367182E-01  0.28858190937E-01  0.38163905824E-01  0.51100000000E-03 0. -1.
         11    1    3    3    0    0 -0.32147941753E-01 -0.11807740929E-01  0.71039331850E-01  0.78865459458E-01  0.51100000000E-03 0.  1.
</event>
<event>
 8    1  0.1042301E+005  0.1043930E+01  0.7957747E-01            NaN
         13   -1    0    0    0    0  0.00000000000E+00  0.00000000000E+00  0.74505805969E-08  0.10566000000E+00  0.10566000000E+00 0. -1.
     999900   -1    0    0    0    0 -0.00000000000E+00 -0.00000000000E+00 -0.74505805969E-08  0.93827000000E+00  0.93827000000E+00 0.  1.
     999902    2    1    2    0    0 -0.95621478929E-02  0.13417835848E-01 -0.16488173219E-01  0.10206204988E+01  0.10203542864E+01 0.  0.
     999903    2    3    3    0    0  0.10952881117E+00  0.12468422846E-02  0.64512455074E-01  0.12882910422E+00  0.20903735132E-01 0.  0.
         14    1    1    2    0    0  0.95621478929E-02 -0.13417835848E-01  0.16488173219E-01  0.23309501223E-01  0.00000000000E+00 0. -1.
     999901    1    3    3    0    0 -0.11909095907E+00  0.12170993563E-01 -0.81000628294E-01  0.89179139455E+00  0.88000000000E+00 0.  1.
        -11    1    4    4    0    0  0.46482247216E-01  0.73625097184E-02  0.18650376204E-01  0.50625127250E-01  0.51100000000E-03 0.  1.
         11    1    4    4    0    0  0.63046563958E-01 -0.61156674338E-02  0.45862078871E-01  0.78203976973E-01  0.51100000000E-03 0. -1.
</event>
<event>
 8    1  0.1345396E+005  0.1043930E+01  0.7957747E-01            NaN
         13   -1    0    0    0    0  0.00000000000E+00  0.00000000000E+00  0.74505805969E-08  0.10566000000E+00  0.10566000000E+00 0.  1.
     999900   -1    0    0    0    0 -0.00000000000E+00 -0.00000000000E+00 -0.74505805969E-08  0.93827000000E+00  0.93827000000E+00 0. -1.
     999902    2    1    2    0    0  0.21828342608E-01  0.42575654457E-02  0.96389256107E-02  0.10196913472E+01  0.10194032231E+01 0.  0.
     999903    2    3    3    0    0  0.58970459097E-01  0.11617109892E+00  0.53353812767E-02  0.13181596385E+00  0.19332427718E-01 0.  0.
         14    1    1    2    0    0 -0.21828342608E-01 -0.42575654457E-02 -0.96389256107E-02  0.24238652839E-01  0.00000000000E+00 0. -1.
     999901    1    3    3    0    0 -0.37142116489E-01 -0.11191353348E+00  0.43035443339E-02  0.88787538331E+00  0.88000000000E+00 0.  1.
        -11    1    4    4    0    0  0.32767440322E-01  0.48716493573E-01  0.87839826092E-02  0.59366837231E-01  0.51100000000E-03 0. -1.
         11    1    4    4    0    0  0.26203018774E-01  0.67454605351E-01 -0.34486013324E-02  0.72449126620E-01  0.51100000000E-03 0.  1.
</event>
<event>
 8    1  0.1042301E+005  0.1043930E+01  0.7957747E-01            NaN
         13   -1    0    0    0    0  0.00000000000E+00  0.00000000000E+00  0.74505805969E-08  0.10566000000E+00  0.10566000000E+00 0.  1.
     999900   -1    0    0    0    0 -0.00000000000E+00 -0.00000000000E+00 -0.74505805969E-08  0.93827000000E+00  0.93827000000E+00 0. -1.
     999902    2    1    2    0    0 -0.12146068700E-01  0.16060194013E-01  0.12946122560E-01  0.10199913512E+01  0.10197103989E+01 0.  0.
     999903    2    3    3    0    0 -0.10732067525E+00 -0.15761122292E-02  0.75187156263E-01  0.13249870825E+00  0.19559850596E-01 0.  0.
         14    1    1    2    0    0  0.12146068700E-01 -0.16060194013E-01 -0.12946122560E-01  0.23938648791E-01  0.00000000000E+00 0. -1.
     999901    1    3    3    0    0  0.95174606549E-01  0.17636306242E-01 -0.62241033703E-01  0.88749264296E+00  0.88000000000E+00 0. -1.
        -11    1    4    4    0    0 -0.65688991841E-01 -0.22851736614E-02  0.34307196848E-01  0.74145199065E-01  0.51100000000E-03 0. -1.
         11    1    4    4    0    0 -0.41631683408E-01  0.70906143223E-03  0.40879959415E-01  0.58353509185E-01  0.51100000000E-03 0.  1.
</event>
<event>
 8    1  0.1042301E+005  0.1043930E+01  0.7957747E-01            NaN
         13   -1    0    0    0    0  0.00000000000E+00  0.00000000000E+00  0.74505805969E-08  0.10566000000E+00  0.10566000000E+00 0.  1.
     999900   -1    0    0    0    0 -0.00000000000E+00 -0.00000000000E+00 -0.74505805969E-08  0.93827000000E+00  0.93827000000E+00 0.  1.
     999902    2    1    2    0    0 -0.95186150859E-02 -0.11903948656E-01 -0.17316699468E-01  0.10208610575E+01  0.10206003736E+01 0.  0.
     999903    2    3    3    0    0 -0.90877090449E-01 -0.75472839485E-01  0.54996731102E-01  0.13187880931E+00  0.20312184618E-01 0.  0.
         14    1    1    2    0    0  0.95186150859E-02  0.11903948656E-01  0.17316699468E-01  0.23068942481E-01  0.00000000000E+00 0.  1.
     999901    1    3    3    0    0  0.81358475363E-01  0.63568890829E-01 -0.72313430570E-01  0.88898224821E+00  0.88000000000E+00 0.  1.
        -11    1    4    4    0    0 -0.56245746154E-01 -0.52691766724E-01  0.26206908923E-01  0.81406814440E-01  0.51100000000E-03 0.  1.
         11    1    4    4    0    0 -0.34631344294E-01 -0.22781072761E-01  0.28789822179E-01  0.50471994867E-01  0.51100000000E-03 0. -1.
</event>
<event>
 8    1  0.1042301E+005  0.1043930E+01  0.7957747E-01            NaN
         13   -1    0    0    0    0  0.00000000000E+00  0.00000000000E+00  0.74505805969E-08  0.10566000000E+00  0.10566000000E+00 0. -1.
     999900   -1    0    0    0    0 -0.00000000000E+00 -0.00000000000E+00 -0.74505805969E-08  0.93827000000E+00  0.93827000000E+00 0. -1.
     999902    2    1    2    0    0  0.48743771511E-02  0.11591943211E-01 -0.20634365701E-01  0.10197657755E+01  0.10194794392E+01 0.  0.
     999903    2    3    3    0    0  0.39821656206E-02  0.19427832871E-01  0.12468844546E+00  0.12781234805E+00  0.19886919062E-01 0.  0.
         14    1    1    2    0    0 -0.48743771511E-02 -0.11591943211E-01  0.20634365701E-01  0.24164224546E-01  0.00000000000E+00 0. -1.
     999901    1    3    3    0    0  0.89221153050E-03 -0.78358896608E-02 -0.14532281116E+00  0.89195342740E+00  0.88000000000E+00 0. -1.
        -11    1    4    4    0    0 -0.68781351581E-02  0.61231879652E-02  0.24852852891E-01  0.26509009637E-01  0.51100000000E-03 0. -1.
         11    1    4    4    0    0  0.10860300779E-01  0.13304644906E-01  0.99835592572E-01  0.10130333842E+00  0.51100000000E-03 0.  1.
</event>
<event>
 8    1  0.1042301E+005  0.1043930E+01  0.7957747E-01            NaN
         13   -1    0    0    0    0  0.00000000000E+00  0.00000000000E+00  0.74505805969E-08  0.10566000000E+00  0.10566000000E+00 0.  1.
     999900   -1    0    0    0    0 -0.00000000000E+00 -0.00000000000E+00 -0.74505805969E-08  0.93827000000E+00  0.93827000000E+00 0.  1.
     999902    2    1    2    0    0 -0.39955330968E-02 -0.16252123023E-01 -0.16918011278E-01  0.10201326284E+01  0.10198550214E+01 0.  0.
     999903    2    3    3    0    0  0.11373580538E+00  0.57193803001E-01  0.47425081545E-02  0.12899619096E+00  0.20262314026E-01 0.  0.
         14    1    1    2    0    0  0.39955330968E-02  0.16252123023E-01  0.16918011278E-01  0.23797371558E-01  0.00000000000E+00 0.  1.
     999901    1    3    3    0    0 -0.11773133848E+00 -0.73445926024E-01 -0.21660519432E-01  0.89113643748E+00  0.88000000000E+00 0. -1.
        -11    1    4    4    0    0  0.38887847186E-01  0.23268816216E-01 -0.74135167605E-02  0.45923020574E-01  0.51100000000E-03 0. -1.
         11    1    4    4    0    0  0.74847958198E-01  0.33924986785E-01  0.12156024915E-01  0.83073170383E-01  0.51100000000E-03 0.  1.
</event>
<event>
 8    1  0.1042301E+005  0.1043930E+01  0.7957747E-01            NaN
         13   -1    0    0    0    0  0.00000000000E+00  0.00000000000E+00  0.74505805969E-08  0.10566000000E+00  0.10566000000E+00 0. -1.
     999900   -1    0    0    0    0 -0.00000000000E+00 -0.00000000000E+00 -0.74505805969E-08  0.93827000000E+00  0.93827000000E+00 0.  1.
     999902    2    1    2    0    0 -0.25619997845E-01 -0.24458042040E-01 -0.82811162272E-02  0.10075547750E+01  0.10068979430E+01 0.  0.
     999903    2    3    3    0    0  0.28568945666E-01  0.10265619737E+00 -0.41477723720E-01  0.11615335798E+00  0.20413757406E-01 0.  0.
         14    1    1    2    0    0  0.25619997845E-01  0.24458042040E-01  0.82811162272E-02  0.36375225029E-01  0.00000000000E+00 0.  1.
     999901    1    3    3    0    0 -0.54188943511E-01 -0.12711423941E+00  0.33196607492E-01  0.89140141699E+00  0.88000000000E+00 0.  1.
        -11    1    4    4    0    0  0.23596373764E-01  0.73086822424E-01 -0.38793413172E-01  0.86044537848E-01  0.51100000000E-03 0. -1.
         11    1    4    4    0    0  0.49725719027E-02  0.29569374942E-01 -0.26843105473E-02  0.30108820135E-01  0.51100000000E-03 0.  1.
</event>
<event>
 8    1  0.1042301E+005  0.1043930E+01  0.7957747E-01            NaN
         13   -1    0    0    0    0  0.00000000000E+00  0.00000000000E+00  0.74505805969E-08  0.10566000000E+00  0.10566000000E+00 0.  1.
     999900   -1    0    0    0    0 -0.00000000000E+00 -0.00000000000E+00 -0.74505805969E-08  0.93827000000E+00  0.93827000000E+00 0. -1.
     999902    2    1    2    0    0  0.20627841236E-01  0.83800636884E-02  0.78963823509E-02  0.10203061528E+01  0.10200326266E+01 0.  0.
     999903    2    3    3    0    0 -0.10705466849E-01 -0.12416182480E+00 -0.22444965805E-01  0.12931247955E+00  0.26214025207E-01 0.  0.
         14    1    1    2    0    0 -0.20627841236E-01 -0.83800636884E-02 -0.78963823509E-02  0.23623847183E-01  0.00000000000E+00 0. -1.
     999901    1    3    3    0    0  0.31333308084E-01  0.13254188849E+00  0.30341348155E-01  0.89099367327E+00  0.88000000000E+00 0. -1.
        -11    1    4    4    0    0  0.74050925112E-02 -0.27159007206E-01 -0.98662166432E-02  0.29833712799E-01  0.51100000000E-03 0. -1.
         11    1    4    4    0    0 -0.18110559360E-01 -0.97002817598E-01 -0.12578749161E-01  0.99478766748E-01  0.51100000000E-03 0.  1.
</event>
<event>
 8    1  0.1042301E+005  0.1043930E+01  0.7957747E-01            NaN
         13   -1    0    0    0    0  0.00000000000E+00  0.00000000000E+00  0.74505805969E-08  0.10566000000E+00  0.10566000000E+00 0.  1.
     999900   -1    0    0    0    0 -0.00000000000E+00 -0.00000000000E+00 -0.74505805969E-08  0.93827000000E+00  0.93827000000E+00 0. -1.
     999902    2    1    2    0    0 -0.10063294424E-01  0.23238590809E-01 -0.12677036176E-02  0.10185743484E+01  0.10182587068E+01 0.  0.
     999903    2    3    3    0    0 -0.11987771111E-01 -0.27654529254E-01 -0.12222506270E+00  0.12884152555E+00  0.27435253040E-01 0.  0.
         14    1    1    2    0    0  0.10063294424E-01 -0.23238590809E-01  0.12677036176E-02  0.25355651637E-01  0.00000000000E+00 0. -1.
     999901    1    3    3    0    0  0.19244766864E-02  0.50893120063E-01  0.12095735908E+00  0.88973282282E+00  0.88000000000E+00 0.  1.
        -11    1    4    4    0    0  0.39781846034E-02 -0.19332339712E-01 -0.39276482784E-01  0.43959851369E-01  0.51100000000E-03 0. -1.
         11    1    4    4    0    0 -0.15965955714E-01 -0.83221895422E-02 -0.82948579914E-01  0.84881674179E-01  0.51100000000E-03 0.  1.
</event>
<event>
 8    1  0.1042301E+005  0.1043930E+01  0.7957747E-01            NaN
         13   -1    0    0    0    0  0.00000000000E+00  0.00000000000E+00  0.74505805969E-08  0.10566000000E+00  0.10566000000E+00 0.  1.
     999900   -1    0    0    0    0 -0.00000000000E+00 -0.00000000000E+00 -0.74505805969E-08  0.93827000000E+00  0.93827000000E+00 0.  1.
     999902    2    1    2    0    0  0.19563884262E-01  0.13488357877E-01  0.43394166932E-02  0.10197740090E+01  0.10194878702E+01 0.  0.
     999903    2    3    3    0    0  0.90309869101E-01 -0.55449051826E-01 -0.73692439639E-01  0.13081600578E+00  0.21255161788E-01 0.  0.
         14    1    1    2    0    0 -0.19563884262E-01 -0.13488357877E-01 -0.43394166932E-02  0.24155991035E-01  0.00000000000E+00 0. -1.
     999901    1    3    3    0    0 -0.70745984839E-01  0.68937409702E-01  0.78031856332E-01  0.88895800319E+00  0.88000000000E+00 0. -1.
        -11    1    4    4    0    0  0.45899026305E-01 -0.30330181247E-01 -0.50827793347E-01  0.74902377851E-01  0.51100000000E-03 0.  1.
         11    1    4    4    0    0  0.44410842796E-01 -0.25118870579E-01 -0.22864646292E-01  0.55913627928E-01  0.51100000000E-03 0. -1.
</event>
<event>
 8    1  0.1042301E+005  0.1043930E+01  0.7957747E-01            NaN
         13   -1    0    0    0    0  0.00000000000E+00  0.00000000000E+00  0.74505805969E-08  0.10566000000E+00  0.10566000000E+00 0.  1.
     999900   -1    0    0    0    0 -0.00000000000E+00 -0.00000000000E+00 -0.74505805969E-08  0.93827000000E+00  0.93827000000E+00 0. -1.
     999902    2    1    2    0    0 -0.10523570450E-01 -0.49539231619E-02  0.20199038446E-01  0.10206214599E+01  0.10203552696E+01 0.  0.
     999903    2    3    3    0    0  0.39699448460E-01  0.12182301468E+00  0.11289161983E-01  0.13007436424E+00  0.19364966845E-01 0.  0.
         14    1    1    2    0    0  0.10523570450E-01  0.49539231619E-02 -0.20199038446E-01  0.23308540148E-01  0.00000000000E+00 0. -1.
     999901    1    3    3    0    0 -0.50223018910E-01 -0.12677693784E+00  0.89098764628E-02  0.89054709561E+00  0.88000000000E+00 0.  1.
        -11    1    4    4    0    0  0.12826946894E-01  0.66731862364E-01  0.12992474930E-02  0.67967795214E-01  0.51100000000E-03 0.  1.
         11    1    4    4    0    0  0.26872501566E-01  0.55091152317E-01  0.99899144903E-02  0.62106569029E-01  0.51100000000E-03 0. -1.
</event>
<event>
 8    1  0.1042301E+005  0.1043930E+01  0.7957747E-01            NaN
         13   -1    0    0    0    0  0.00000000000E+00  0.00000000000E+00  0.74505805969E-08  0.10566000000E+00  0.10566000000E+00 0. -1.
     999900   -1    0    0    0    0 -0.00000000000E+00 -0.00000000000E+00 -0.74505805969E-08  0.93827000000E+00  0.93827000000E+00 0. -1.
     999902    2    1    2    0    0  0.12979951569E-01 -0.15851726623E-01 -0.24654625868E-02  0.10232942329E+01  0.10230861411E+01 0.  0.
     999903    2    3    3    0    0  0.43686788722E-01 -0.12064617675E+00 -0.39710556275E-01  0.13576283419E+00  0.19763182793E-01 0.  0.
         14    1    1    2    0    0 -0.12979951569E-01  0.15851726623E-01  0.24654625868E-02  0.20635767140E-01  0.00000000000E+00 0.  1.
     999901    1    3    3    0    0 -0.30706837153E-01  0.10479445013E+00  0.37245093688E-01  0.88753139867E+00  0.88000000000E+00 0.  1.
        -11    1    4    4    0    0  0.10341298110E-01 -0.57300545972E-01 -0.18597815714E-01  0.61126384529E-01  0.51100000000E-03 0. -1.
         11    1    4    4    0    0  0.33345490611E-01 -0.63345630778E-01 -0.21112740561E-01  0.74636449659E-01  0.51100000000E-03 0.  1.
</event>
<event>
 8    1  0.1042301E+005  0.1043930E+01  0.7957747E-01            NaN
         13   -1    0    0    0    0  0.00000000000E+00  0.00000000000E+00  0.74505805969E-08  0.10566000000E+00  0.10566000000E+00 0. -1.
     999900   -1    0    0    0    0 -0.00000000000E+00 -0.00000000000E+00 -0.74505805969E-08  0.93827000000E+00  0.93827000000E+00 0.  1.
     999902    2    1    2    0    0 -0.71009011373E-02 -0.24153188082E-01  0.34459752092E-02  0.10185198832E+01  0.10182028670E+01 0.  0.
     999903    2    3    3    0    0  0.50683371254E-01 -0.73367464406E-01  0.93588394851E-01  0.13066475821E+00  0.19049998195E-01 0.  0.
         14    1    1    2    0    0  0.71009011373E-02  0.24153188082E-01 -0.34459752092E-02  0.25410116816E-01  0.00000000000E+00 0.  1.
     999901    1    3    3    0    0 -0.57784272391E-01  0.49214276324E-01 -0.90142419642E-01  0.88785512498E+00  0.88000000000E+00 0.  1.
        -11    1    4    4    0    0  0.21713753222E-01 -0.37201701149E-01  0.57936613577E-01  0.72196717108E-01  0.51100000000E-03 0.  1.
         11    1    4    4    0    0  0.28969618032E-01 -0.36165763256E-01  0.35651781274E-01  0.58468041098E-01  0.51100000000E-03 0. -1.
</event>
<event>
 8    1  0.1042301E+005  0.1043930E+01  0.7957747E-01            NaN
         13   -1    0    0    0    0  0.00000000000E+00  0.00000000000E+00  0.74505805969E-08  0.10566000000E+00  0.10566000000E+00 0. -1.
     999900   -1    0    0    0    0 -0.00000000000E+00 -0.00000000000E+00 -0.74505805969E-08  0.93827000000E+00  0.93827000000E+00 0.  1.
     999902    2    1    2    0    0 -0.99216609950E-02  0.68099605369E-02 -0.20765850874E-01  0.10199292608E+01  0.10196468318E+01 0.  0.
     999903    2    3    3    0    0  0.11332831589E+00 -0.38706306798E-01 -0.45839556635E-01  0.12982197619E+00  0.20273016112E-01 0.  0.
         14    1    1    2    0    0  0.99216609950E-02 -0.68099605369E-02  0.20765850874E-01  0.24000739196E-01  0.00000000000E+00 0. -1.
     999901    1    3    3    0    0 -0.12324997688E+00  0.45516267335E-01  0.25073705761E-01  0.89010728461E+00  0.88000000000E+00 0.  1.
        -11    1    4    4    0    0  0.33775401356E-01 -0.11652856861E-01 -0.23858883369E-01  0.42965966141E-01  0.51100000000E-03 0.  1.
         11    1    4    4    0    0  0.79552914534E-01 -0.27053449936E-01 -0.21980673266E-01  0.86856010054E-01  0.51100000000E-03 0. -1.
</event>
<event>
 8    1  0.1042301E+005  0.1043930E+01  0.7957747E-01            NaN
         13   -1    0    0    0    0  0.00000000000E+00  0.00000000000E+00  0.74505805969E-08  0.10566000000E+00  0.10566000000E+00 0.  1.
     999900   -1    0    0    0    0 -0.00000000000E+00 -0.00000000000E+00 -0.74505805969E-08  0.93827000000E+00  0.93827000000E+00 0.  1.
     999902    2    1    2    0    0 -0.57610046650E-02 -0.79739558785E-02 -0.22826976832E-01  0.10190735317E+01  0.10187703465E+01 0.  0.
     999903    2    3    3    0    0 -0.13528130083E-01  0.11854909003E+00  0.40832008328E-01  0.12771452667E+00  0.20170532150E-01 0.  0.
         14    1    1    2    0    0  0.57610046650E-02  0.79739558785E-02  0.22826976832E-01  0.24856468341E-01  0.00000000000E+00 0.  1.
     999901    1    3    3    0    0  0.77671254184E-02 -0.12652304591E+00 -0.63658985161E-01  0.89135900499E+00  0.88000000000E+00 0.  1.
        -11    1    4    4    0    0 -0.56526261928E-02  0.13770305739E-01 -0.24257696260E-03  0.14896089003E-01  0.51100000000E-03 0.  1.
         11    1    4    4    0    0 -0.78755038906E-02  0.10477878429E+00  0.41074585291E-01  0.11281843767E+00  0.51100000000E-03 0. -1.
</event>
<event>
 8    1  0.1042301E+005  0.1043930E+01  0.7957747E-01            NaN
         13   -1    0    0    0    0  0.00000000000E+00  0.00000000000E+00  0.74505805969E-08  0.10566000000E+00  0.10566000000E+00 0. -1.
     999900   -1    0    0    0    0 -0.00000000000E+00 -0.00000000000E+00 -0.74505805969E-08  0.93827000000E+00  0.93827000000E+00 0. -1.
     999902    2    1    2    0    0  0.33220754549E-02 -0.21225853433E-01 -0.10750499747E-01  0.10199061310E+01  0.10196231508E+01 0.  0.
     999903    2    3    3    0    0  0.12808167810E+00  0.16318135904E-01  0.41145341109E-02  0.13018961496E+00  0.16161950017E-01 0.  0.
         14    1    1    2    0    0 -0.33220754549E-02  0.21225853433E-01  0.10750499747E-01  0.24023869049E-01  0.00000000000E+00 0.  1.
     999901    1    3    3    0    0 -0.12475960265E+00 -0.37543989336E-01 -0.14865033858E-01  0.88971651599E+00  0.88000000000E+00 0. -1.
        -11    1    4    4    0    0  0.91766159837E-01  0.15895760797E-01  0.88811528549E-02  0.93556610133E-01  0.51100000000E-03 0.  1.
         11    1    4    4    0    0  0.36315518267E-01  0.42237510619E-03 -0.47666187439E-02  0.36633004831E-01  0.51100000000E-03 0. -1.
</event>
<event>
 8    1  0.1042301E+005  0.1043930E+01  0.7957747E-01            NaN
         13   -1    0    0    0    0  0.00000000000E+00  0.00000000000E+00  0.74505805969E-08  0.10566000000E+00  0.10566000000E+00 0.  1.
     999900   -1    0    0    0    0 -0.00000000000E+00 -0.00000000000E+00 -0.74505805969E-08  0.93827000000E+00  0.93827000000E+00 0.  1.
     999902    2    1    2    0    0 -0.12856461760E-01 -0.76662220073E-02 -0.18630865605E-01  0.10200308636E+01  0.10197508489E+01 0.  0.
     999903    2    3    3    0    0 -0.67192682918E-01  0.44730598764E-01 -0.10279645704E+00  0.13279825679E+00  0.23507069625E-01 0.  0.
         14    1    1    2    0    0  0.12856461760E-01  0.76662220073E-02  0.18630865605E-01  0.23899136429E-01  0.00000000000E+00 0.  1.
     999901    1    3    3    0    0  0.54336221157E-01 -0.52396820771E-01  0.84165591436E-01  0.88723260678E+00  0.88000000000E+00 0. -1.
        -11    1    4    4    0    0 -0.32517969762E-01  0.34035061103E-01 -0.49411005278E-01  0.68245969150E-01  0.51100000000E-03 0.  1.
         11    1    4    4    0    0 -0.34674713156E-01  0.10695537660E-01 -0.53385451763E-01  0.64552287638E-01  0.51100000000E-03 0. -1.
</event>
<event>
 8    1  0.1042301E+005  0.1043930E+01  0.7957747E-01            NaN
         13   -1    0    0    0    0  0.00000000000E+00  0.00000000000E+00  0.74505805969E-08  0.10566000000E+00  0.10566000000E+00 0.  1.
     999900   -1    0    0    0    0 -0.00000000000E+00 -0.00000000000E+00 -0.74505805969E-08  0.93827000000E+00  0.93827000000E+00 0.  1.
     999902    2    1    2    0    0  0.25008515129E-01 -0.24339982171E-02 -0.32816069226E-02  0.10185899305E+01  0.10182746817E+01 0.  0.
     999903    2    3    3    0    0 -0.97767165104E-01 -0.72330430269E-01 -0.29921830756E-01  0.12692346801E+00  0.20594685258E-01 0.  0.
         14    1    1    2    0    0 -0.25008515129E-01  0.24339982171E-02  0.32816069226E-02  0.25340069461E-01  0.00000000000E+00 0.  1.
     999901    1    3    3    0    0  0.12277568023E+00  0.69896432052E-01  0.26640223834E-01  0.89166646253E+00  0.88000000000E+00 0. -1.
        -11    1    4    4    0    0 -0.40942607620E-01 -0.41406874960E-01 -0.89721016681E-02  0.58920167532E-01  0.51100000000E-03 0.  1.
         11    1    4    4    0    0 -0.56824557484E-01 -0.30923555309E-01 -0.20949729088E-01  0.68003300479E-01  0.51100000000E-03 0. -1.
</event>
<event>
 8    1  0.1042301E+005  0.1043930E+01  0.7957747E-01            NaN
         13   -1    0    0    0    0  0.00000000000E+00  0.00000000000E+00  0.74505805969E-08  0.10566000000E+00  0.10566000000E+00 0. -1.
     999900   -1    0    0    0    0 -0.00000000000E+00 -0.00000000000E+00 -0.74505805969E-08  0.93827000000E+00  0.93827000000E+00 0. -1.
     999902    2    1    2    0    0  0.17317326080E-01 -0.16843058507E-01  0.56754598187E-02  0.10191148988E+01  0.10188127344E+01 0.  0.
     999903    2    3    3    0    0 -0.35613743803E-01  0.73669317425E-01 -0.95326729468E-01  0.12715322330E+00  0.19627780490E-01 0.  0.
         14    1    1    2    0    0 -0.17317326080E-01  0.16843058507E-01 -0.56754598187E-02  0.24815101180E-01  0.00000000000E+00 0. -1.
     999901    1    3    3    0    0  0.52931069883E-01 -0.90512375932E-01  0.10100218929E+00  0.89196167552E+00  0.88000000000E+00 0.  1.
        -11    1    4    4    0    0 -0.18573263629E-01  0.54723826813E-01 -0.57360735847E-01  0.81425907921E-01  0.51100000000E-03 0.  1.
         11    1    4    4    0    0 -0.17040480174E-01  0.18945490611E-01 -0.37965993622E-01  0.45727315379E-01  0.51100000000E-03 0. -1.
</event>
<event>
 8    1  0.1042301E+005  0.1043930E+01  0.7957747E-01            NaN
         13   -1    0    0    0    0  0.00000000000E+00  0.00000000000E+00  0.74505805969E-08  0.10566000000E+00  0.10566000000E+00 0.  1.
     999900   -1    0    0    0    0 -0.00000000000E+00 -0.00000000000E+00 -0.74505805969E-08  0.93827000000E+00  0.93827000000E+00 0. -1.
     999902    2    1    2    0    0 -0.12655284778E-01  0.13834256320E-01  0.14226307096E-01  0.10203942677E+01  0.10201228019E+01 0.  0.
     999903    2    3    3    0    0 -0.11930195707E+00 -0.45487286864E-01 -0.23296488712E-01  0.13118084091E+00  0.19069252995E-01 0.  0.
         14    1    1    2    0    0  0.12655284778E-01 -0.13834256320E-01 -0.14226307096E-01  0.23535732288E-01  0.00000000000E+00 0. -1.
     999901    1    3    3    0    0  0.10664667229E+00  0.59321543184E-01  0.37522795808E-01  0.88921342680E+00  0.88000000000E+00 0.  1.
        -11    1    4    4    0    0 -0.21616465632E-01 -0.15884172357E-01 -0.19632362128E-02  0.26901560091E-01  0.51100000000E-03 0.  1.
         11    1    4    4    0    0 -0.97685491435E-01 -0.29603114507E-01 -0.21333252499E-01  0.10427928082E+00  0.51100000000E-03 0. -1.
</event>
<event>
 8    1  0.1042301E+005  0.1043930E+01  0.7957747E-01            NaN
         13   -1    0    0    0    0  0.00000000000E+00  0.00000000000E+00  0.74505805969E-08  0.10566000000E+00  0.10566000000E+00 0.  1.
     999900   -1    0    0    0    0 -0.00000000000E+00 -0.00000000000E+00 -0.74505805969E-08  0.93827000000E+00  0.93827000000E+00 0. -1.
     999902    2    1    2    0    0 -0.95154035583E-02  0.18048451817E-01  0.11845269650E-01  0.10203376298E+01  0.10200648405E+01 0.  0.
     999903    2    3    3    0    0 -0.10375479609E+00 -0.51827842329E-01  0.58660611607E-01  0.13131826229E+00  0.18767943528E-01 0.  0.
         14    1    1    2    0    0  0.95154035583E-02 -0.18048451817E-01 -0.11845269650E-01  0.23592370185E-01  0.00000000000E+00 0. -1.
     999901    1    3    3    0    0  0.94239392535E-01  0.69876294146E-01 -0.46815341957E-01  0.88901936752E+00  0.88000000000E+00 0. -1.
        -11    1    4    4    0    0 -0.97421805092E-02  0.72128989490E-03  0.46607435193E-02  0.10835773684E-01  0.51100000000E-03 0. -1.
         11    1    4    4    0    0 -0.94012615585E-01 -0.52549132224E-01  0.53999868087E-01  0.12048248861E+00  0.51100000000E-03 0.  1.
</event>
<event>
 8    1  0.1042301E+005  0.1043930E+01  0.7957747E-01            NaN
         13   -1    0    0    0    0  0.00000000000E+00  0.00000000000E+00  0.74505805969E-08  0.10566000000E+00  0.10566000000E+00 0.  1.
     999900   -1    0    0    0    0 -0.00000000000E+00 -0.00000000000E+00 -0.74505805969E-08  0.93827000000E+00  0.93827000000E+00 0.  1.
     999902    2    1    2    0    0  0.13302524172E-01 -0.70889415584E-02  0.16282908011E-01  0.10217411890E+01  0.10215002271E+01 0.  0.
     999903    2    3    3    0    0 -0.39219423365E-01  0.96280017784E-01 -0.74602811383E-01  0.12949463632E+00  0.19881558660E-01 0.  0.
         14    1    1    2    0    0 -0.13302524172E-01  0.70889415584E-02 -0.16282908011E-01  0.22188811033E-01  0.00000000000E+00 0.  1.
     999901    1    3    3    0    0  0.52521947537E-01 -0.10336895934E+00  0.90885719394E-01  0.89224655265E+00  0.88000000000E+00 0. -1.
        -11    1    4    4    0    0 -0.33531258280E-01  0.92457521699E-01 -0.65825051729E-01  0.11834668207E+00  0.51100000000E-03 0. -1.
         11    1    4    4    0    0 -0.56881650844E-02  0.38224960850E-02 -0.87777596538E-02  0.11147954247E-01  0.51100000000E-03 0.  1.
</event>
<event>
 8    1  0.1042301E+005  0.1043930E+01  0.7957747E-01            NaN
         13   -1    0    0    0    0  0.00000000000E+00  0.00000000000E+00  0.74505805969E-08  0.10566000000E+00  0.10566000000E+00 0.  1.
     999900   -1    0    0    0    0 -0.00000000000E+00 -0.00000000000E+00 -0.74505805969E-08  0.93827000000E+00  0.93827000000E+00 0. -1.
     999902    2    1    2    0    0 -0.15423147517E-01 -0.14540167173E-01  0.13200201731E-01  0.10189593119E+01  0.10186532992E+01 0.  0.
     999903    2    3    3    0    0 -0.22090393230E-01 -0.12688287387E+00 -0.14885579342E-01  0.13134782758E+00  0.21057592049E-01 0.  0.
         14    1    1    2    0    0  0.15423147517E-01  0.14540167173E-01 -0.13200201731E-01  0.24970688146E-01  0.00000000000E+00 0.  1.
     999901    1    3    3    0    0  0.66672457135E-02  0.11234270670E+00  0.28085781073E-01  0.88761148427E+00  0.88000000000E+00 0. -1.
        -11    1    4    4    0    0  0.21651133048E-02 -0.39662672159E-01 -0.84491750036E-03  0.39733994074E-01  0.51100000000E-03 0. -1.
         11    1    4    4    0    0 -0.24255506535E-01 -0.87220201713E-01 -0.14040661842E-01  0.91613833508E-01  0.51100000000E-03 0.  1.
</event>
<event>
 8    1  0.1274548E+005  0.1043930E+01  0.7957747E-01            NaN
         13   -1    0    0    0    0  0.00000000000E+00  0.00000000000E+00  0.74505805969E-08  0.10566000000E+00  0.10566000000E+00 0.  1.
     999900   -1    0    0    0    0 -0.00000000000E+00 -0.00000000000E+00 -0.74505805969E-08  0.93827000000E+00  0.93827000000E+00 0. -1.
     999902    2    1    2    0    0  0.13161668951E-01 -0.18160525798E-01  0.92320296635E-02  0.10196758334E+01  0.10193873359E+01 0.  0.
     999903    2    3    3    0    0 -0.10178615890E+00 -0.74789964641E-01 -0.23388248093E-01  0.12979720177E+00  0.18610278953E-01 0.  0.
         14    1    1    2    0    0 -0.13161668951E-01  0.18160525798E-01 -0.92320296635E-02  0.24254166622E-01  0.00000000000E+00 0.  1.
     999901    1    3    3    0    0  0.11494782786E+00  0.56629438843E-01  0.32620277756E-01  0.88987863161E+00  0.88000000000E+00 0.  1.
        -11    1    4    4    0    0 -0.58231713251E-01 -0.53907122751E-01 -0.15443842382E-01  0.80843575502E-01  0.51100000000E-03 0.  1.
         11    1    4    4    0    0 -0.43554445654E-01 -0.20882841890E-01 -0.79444057104E-02  0.48953626267E-01  0.51100000000E-03 0. -1.
</event>
<event>
 8    1  0.1042301E+005  0.1043930E+01  0.7957747E-01            NaN
         13   -1    0    0    0    0  0.00000000000E+00  0.00000000000E+00  0.74505805969E-08  0.10566000000E+00  0.10566000000E+00 0. -1.
     999900   -1    0    0    0    0 -0.00000000000E+00 -0.00000000000E+00 -0.74505805969E-08  0.93827000000E+00  0.93827000000E+00 0. -1.
     999902    2    1    2    0    0  0.10906955728E-01 -0.18530471159E-01  0.92733123260E-02  0.10205134596E+01  0.10202447681E+01 0.  0.
     999903    2    3    3    0    0 -0.47547221901E-01  0.10584244398E+00  0.52390000153E-01  0.12880467208E+00  0.19559401181E-01 0.  0.
         14    1    1    2    0    0 -0.10906955728E-01  0.18530471159E-01 -0.92733123260E-02  0.23416540439E-01  0.00000000000E+00 0.  1.
     999901    1    3    3    0    0  0.58454177629E-01 -0.12437291514E+00 -0.43116687827E-01  0.89170878748E+00  0.88000000000E+00 0. -1.
        -11    1    4    4    0    0 -0.10636328987E-01  0.42944142687E-01  0.25549968567E-01  0.51092004269E-01  0.51100000000E-03 0. -1.
         11    1    4    4    0    0 -0.36910892914E-01  0.62898301296E-01  0.26840031586E-01  0.77712667810E-01  0.51100000000E-03 0.  1.
</event>
<event>
 8    1  0.1042301E+005  0.1043930E+01  0.7957747E-01            NaN
         13   -1    0    0    0    0  0.00000000000E+00  0.00000000000E+00  0.74505805969E-08  0.10566000000E+00  0.10566000000E+00 0. -1.
     999900   -1    0    0    0    0 -0.00000000000E+00 -0.00000000000E+00 -0.74505805969E-08  0.93827000000E+00  0.93827000000E+00 0.  1.
     999902    2    1    2    0    0  0.13024843933E-01 -0.40579133745E-02  0.18194366175E-01  0.10211891077E+01  0.10209358675E+01 0.  0.
     999903    2    3    3    0    0 -0.12753747065E+00  0.11280879536E-01 -0.25056878094E-02  0.12966146650E+00  0.20316317639E-01 0.  0.
         14    1    1    2    0    0 -0.13024843933E-01  0.40579133745E-02 -0.18194366175E-01  0.22740892263E-01  0.00000000000E+00 0.  1.
     999901    1    3    3    0    0  0.14056231458E+00 -0.15338792911E-01  0.20700053984E-01  0.89152764123E+00  0.88000000000E+00 0.  1.
        -11    1    4    4    0    0 -0.29259343944E-01 -0.46882871078E-02  0.38729461375E-02  0.29888962458E-01  0.51100000000E-03 0.  1.
         11    1    4    4    0    0 -0.98278126703E-01  0.15969166644E-01 -0.63786339469E-02  0.99772504046E-01  0.51100000000E-03 0. -1.
</event>
<event>
 8    1  0.1042301E+005  0.1043930E+01  0.7957747E-01            NaN
         13   -1    0    0    0    0  0.00000000000E+00  0.00000000000E+00  0.74505805969E-08  0.10566000000E+00  0.10566000000E+00 0. -1.
     999900   -1    0    0    0    0 -0.00000000000E+00 -0.00000000000E+00 -0.74505805969E-08  0.93827000000E+00  0.93827000000E+00 0.  1.
     999902    2    1    2    0    0 -0.14856189126E-01  0.74099376769E-03 -0.18926390587E-01  0.10198579480E+01  0.10195738180E+01 0.  0.
     999903    2    3    3    0    0 -0.94777488904E-01 -0.80013003975E-01  0.36821042633E-01  0.13080429460E+00  0.19212524463E-01 0.  0.
         14    1    1    2    0    0  0.14856189126E-01 -0.74099376769E-03  0.18926390587E-01  0.24072052006E-01  0.00000000000E+00 0. -1.
     999901    1    3    3    0    0  0.79921299778E-01  0.80753997743E-01 -0.55747433220E-01  0.88905365340E+00  0.88000000000E+00 0. -1.
        -11    1    4    4    0    0 -0.41958997571E-01 -0.25314484588E-01  0.89444763720E-02  0.49816115723E-01  0.51100000000E-03 0. -1.
         11    1    4    4    0    0 -0.52818491333E-01 -0.54698519387E-01  0.27876566261E-01  0.80988178873E-01  0.51100000000E-03 0.  1.
</event>
<event>
 8    1  0.1042301E+005  0.1043930E+01  0.7957747E-01            NaN
         13   -1    0    0    0    0  0.00000000000E+00  0.00000000000E+00  0.74505805969E-08  0.10566000000E+00  0.10566000000E+00 0.  1.
     999900   -1    0    0    0    0 -0.00000000000E+00 -0.00000000000E+00 -0.74505805969E-08  0.93827000000E+00  0.93827000000E+00 0.  1.
     999902    2    1    2    0    0 -0.13025113451E-01 -0.16378653233E-01 -0.92040174394E-02  0.10210689458E+01  0.10208129918E+01 0.  0.
     999903    2    3    3    0    0  0.49233921282E-01 -0.68734796667E-01 -0.99999034798E-01  0.13266527160E+00  0.21255965032E-01 0.  0.
         14    1    1    2    0    0  0.13025113451E-01  0.16378653233E-01  0.92040174394E-02  0.22861054201E-01  0.00000000000E+00 0. -1.
     999901    1    3    3    0    0 -0.62259034733E-01  0.52356143434E-01  0.90795017358E-01  0.88840367420E+00  0.88000000000E+00 0. -1.
        -11    1    4    4    0    0  0.22092992712E-01 -0.48278755856E-01 -0.63935257224E-01  0.83107862632E-01  0.51100000000E-03 0.  1.
         11    1    4    4    0    0  0.27140928570E-01 -0.20456040811E-01 -0.36063777574E-01  0.49557408964E-01  0.51100000000E-03 0. -1.
</event>
<event>
 8    1  0.1042301E+005  0.1043930E+01  0.7957747E-01            NaN
         13   -1    0    0    0    0  0.00000000000E+00  0.00000000000E+00  0.74505805969E-08  0.10566000000E+00  0.10566000000E+00 0.  1.
     999900   -1    0    0    0    0 -0.00000000000E+00 -0.00000000000E+00 -0.74505805969E-08  0.93827000000E+00  0.93827000000E+00 0.  1.
     999902    2    1    2    0    0  0.11814498552E-01  0.13271965119E-01 -0.47203671870E-02  0.10255449708E+01  0.10253801625E+01 0.  0.
     999903    2    3    3    0    0  0.92844654705E-01  0.63870313791E-01 -0.76269727069E-01  0.13748788362E+00  0.19654515645E-01 0.  0.
         14    1    1    2    0    0 -0.11814498552E-01 -0.13271965119E-01  0.47203671870E-02  0.18385029250E-01  0.00000000000E+00 0.  1.
     999901    1    3    3    0    0 -0.81030156154E-01 -0.50598348672E-01  0.71549359882E-01  0.88805708713E+00  0.88000000000E+00 0. -1.
        -11    1    4    4    0    0  0.12718698105E-01  0.25027782931E-02 -0.13016313302E-01  0.18377015907E-01  0.51100000000E-03 0.  1.
         11    1    4    4    0    0  0.80125956601E-01  0.61367535498E-01 -0.63253413767E-01  0.11911086772E+00  0.51100000000E-03 0. -1.
</event>
<event>
 8    1  0.1042301E+005  0.1043930E+01  0.7957747E-01            NaN
         13   -1    0    0    0    0  0.00000000000E+00  0.00000000000E+00  0.74505805969E-08  0.10566000000E+00  0.10566000000E+00 0.  1.
     999900   -1    0    0    0    0 -0.00000000000E+00 -0.00000000000E+00 -0.74505805969E-08  0.93827000000E+00  0.93827000000E+00 0. -1.
     999902    2    1    2    0    0 -0.97373284080E-02  0.10015069228E-01 -0.24368434025E-01  0.10158419642E+01  0.10154535728E+01 0.  0.
     999903    2    3    3    0    0  0.25427657602E-02 -0.35016835019E-01  0.11701881457E+00  0.12333480618E+00  0.16894586736E-01 0.  0.
         14    1    1    2    0    0  0.97373284080E-02 -0.10015069228E-01  0.24368434025E-01  0.28088035763E-01  0.00000000000E+00 0.  1.
     999901    1    3    3    0    0 -0.12280094168E-01  0.45031904247E-01 -0.14138724859E+00  0.89250715805E+00  0.88000000000E+00 0. -1.
        -11    1    4    4    0    0  0.77364204951E-02 -0.73025098217E-02  0.28090218231E-01  0.30041643314E-01  0.51100000000E-03 0. -1.
         11    1    4    4    0    0 -0.51936547350E-02 -0.27714325197E-01  0.88928596337E-01  0.93293162869E-01  0.51100000000E-03 0.  1.
</event>
<event>
 8    1  0.1042301E+005  0.1043930E+01  0.7957747E-01            NaN
         13   -1    0    0    0    0  0.00000000000E+00  0.00000000000E+00  0.74505805969E-08  0.10566000000E+00  0.10566000000E+00 0. -1.
     999900   -1    0    0    0    0 -0.00000000000E+00 -0.00000000000E+00 -0.74505805969E-08  0.93827000000E+00  0.93827000000E+00 0. -1.
     999902    2    1    2    0    0 -0.97724257107E-03 -0.23477131248E-01  0.28507934350E-02  0.10202602362E+01  0.10199856332E+01 0.  0.
     999903    2    3    3    0    0 -0.42361748174E-01 -0.10380856175E+00 -0.68194206561E-01  0.13278448552E+00  0.20261653120E-01 0.  0.
         14    1    1    2    0    0  0.97724257107E-03  0.23477131248E-01 -0.28507934350E-02  0.23669763790E-01  0.00000000000E+00 0. -1.
     999901    1    3    3    0    0  0.41384505603E-01  0.80331430500E-01  0.71044999995E-01  0.88747575069E+00  0.88000000000E+00 0.  1.
        -11    1    4    4    0    0 -0.12845201290E-01 -0.41722247573E-01 -0.16111089968E-01  0.46535722619E-01  0.51100000000E-03 0.  1.
         11    1    4    4    0    0 -0.29516546884E-01 -0.62086314175E-01 -0.52083116593E-01  0.86248762906E-01  0.51100000000E-03 0. -1.
</event>
<event>
 8    1  0.1042301E+005  0.1043930E+01  0.7957747E-01            NaN
         13   -1    0    0    0    0  0.00000000000E+00  0.00000000000E+00  0.74505805969E-08  0.10566000000E+00  0.10566000000E+00 0. -1.
     999900   -1    0    0    0    0 -0.00000000000E+00 -0.00000000000E+00 -0.74505805969E-08  0.93827000000E+00  0.93827000000E+00 0. -1.
     999902    2    1    2    0    0 -0.20481889343E-01 -0.47526603481E-02 -0.11089204689E-01  0.10201588824E+01  0.10198818948E+01 0.  0.
     999903    2    3    3    0    0 -0.37588536770E-01 -0.89093687726E-01 -0.88417142384E-01  0.13258598047E+00  0.20269875699E-01 0.  0.
         14    1    1    2    0    0  0.20481889343E-01  0.47526603481E-02  0.11089204689E-01  0.23771117603E-01  0.00000000000E+00 0. -1.
     999901    1    3    3    0    0  0.17106647427E-01  0.84341027378E-01  0.77327937695E-01  0.88757290193E+00  0.88000000000E+00 0.  1.
        -11    1    4    4    0    0 -0.15521494643E-01 -0.15769870748E-01 -0.17471886042E-01  0.28198112388E-01  0.51100000000E-03 0. -1.
         11    1    4    4    0    0 -0.22067042127E-01 -0.73323816978E-01 -0.70945256342E-01  0.10438786808E+00  0.51100000000E-03 0.  1.
</event>
<event>
 8    1  0.1042301E+005  0.1043930E+01  0.7957747E-01            NaN
         13   -1    0    0    0    0  0.00000000000E+00  0.00000000000E+00  0.74505805969E-08  0.10566000000E+00  0.10566000000E+00 0. -1.
     999900   -1    0    0    0    0 -0.00000000000E+00 -0.00000000000E+00 -0.74505805969E-08  0.93827000000E+00  0.93827000000E+00 0.  1.
     999902    2    1    2    0    0  0.15655525639E-01 -0.19150270460E-01 -0.12607778153E-02  0.10191627252E+01  0.10188617386E+01 0.  0.
     999903    2    3    3    0    0  0.53789915112E-01 -0.41290612522E-01  0.11038374276E+00  0.13101356800E+00  0.19537519939E-01 0.  0.
         14    1    1    2    0    0 -0.15655525639E-01  0.19150270460E-01  0.12607778153E-02  0.24767274828E-01  0.00000000000E+00 0. -1.
     999901    1    3    3    0    0 -0.38134389473E-01  0.22140342061E-01 -0.11164452057E+00  0.88814915717E+00  0.88000000000E+00 0.  1.
        -11    1    4    4    0    0 -0.20239365387E-03 -0.81219241625E-03  0.10046148239E-01  0.10093900889E-01  0.51100000000E-03 0. -1.
         11    1    4    4    0    0  0.53992308766E-01 -0.40478420106E-01  0.10033759452E+00  0.12091966711E+00  0.51100000000E-03 0.  1.
</event>
<event>
 8    1  0.1042301E+005  0.1043930E+01  0.7957747E-01            NaN
         13   -1    0    0    0    0  0.00000000000E+00  0.00000000000E+00  0.74505805969E-08  0.10566000000E+00  0.10566000000E+00 0.  1.
     999900   -1    0    0    0    0 -0.00000000000E+00 -0.00000000000E+00 -0.74505805969E-08  0.93827000000E+00  0.93827000000E+00 0.  1.
     999902    2    1    2    0    0  0.95514467107E-02  0.16424056974E-01 -0.68757545583E-02  0.10237246596E+01  0.10235252429E+01 0.  0.
     999903    2    3    3    0    0 -0.28609170718E-01  0.12905717556E+00  0.21664728200E-01  0.13526700087E+00  0.18803240760E-01 0.  0.
         14    1    1    2    0    0 -0.95514467107E-02 -0.16424056974E-01  0.68757545583E-02  0.20205340445E-01  0.00000000000E+00 0.  1.
     999901    1    3    3    0    0  0.38160617428E-01 -0.11263311859E+00 -0.28540482759E-01  0.88845765869E+00  0.88000000000E+00 0.  1.
        -11    1    4    4    0    0 -0.21698436755E-01  0.55334419858E-01  0.81262603835E-02  0.59991811170E-01  0.51100000000E-03 0. -1.
         11    1    4    4    0    0 -0.69107339626E-02  0.73722755702E-01  0.13538467817E-01  0.75275189698E-01  0.51100000000E-03 0.  1.
</event>
<event>
 8    1  0.1042301E+005  0.1043930E+01  0.7957747E-01            NaN
         13   -1    0    0    0    0  0.00000000000E+00  0.00000000000E+00  0.74505805969E-08  0.10566000000E+00  0.10566000000E+00 0. -1.
     999900   -1    0    0    0    0 -0.00000000000E+00 -0.00000000000E+00 -0.74505805969E-08  0.93827000000E+00  0.93827000000E+00 0. -1.
     999902    2    1    2    0    0  0.90235163619E-02  0.79272147261E-02  0.20648347729E-01  0.10200423705E+01  0.10197626286E+01 0.  0.
     999903    2    3    3    0    0 -0.12479642645E+00  0.16862377568E-01  0.23618754872E-01  0.12987584810E+00  0.21246235080E-01 0.  0.
         14    1    1    2    0    0 -0.90235163619E-02 -0.79272147261E-02 -0.20648347729E-01  0.23887629535E-01  0.00000000000E+00 0.  1.
     999901    1    3    3    0    0  0.13381994281E+00 -0.89351628418E-02 -0.29704071430E-02  0.89016652237E+00  0.88000000000E+00 0.  1.
        -11    1    4    4    0    0 -0.85576106584E-01  0.67194201400E-02  0.24777408332E-01  0.89345406764E-01  0.51100000000E-03 0.  1.
         11    1    4    4    0    0 -0.39220319865E-01  0.10142957428E-01 -0.11586534601E-02  0.40530441332E-01  0.51100000000E-03 0. -1.
</event>
<event>
 8    1  0.1042301E+005  0.1043930E+01  0.7957747E-01            NaN
         13   -1    0    0    0    0  0.00000000000E+00  0.00000000000E+00  0.74505805969E-08  0.10566000000E+00  0.10566000000E+00 0. -1.
     999900   -1    0    0    0    0 -0.00000000000E+00 -0.00000000000E+00 -0.74505805969E-08  0.93827000000E+00  0.93827000000E+00 0.  1.
     999902    2    1    2    0    0 -0.14166049255E-01  0.20365585728E-02  0.17621776495E-01  0.10212286448E+01  0.10209762942E+01 0.  0.
     999903    2    3    3    0    0 -0.92972533728E-02 -0.12941105919E+00 -0.11552495806E-02  0.13125406193E+00  0.19814969360E-01 0.  0.
         14    1    1    2    0    0  0.14166049255E-01 -0.20365585728E-02 -0.17621776495E-01  0.22701355228E-01  0.00000000000E+00 0.  1.
     999901    1    3    3    0    0 -0.48687958821E-02  0.13144761777E+00  0.18777026076E-01  0.88997458284E+00  0.88000000000E+00 0. -1.
        -11    1    4    4    0    0 -0.66108846627E-02 -0.11789392837E-01  0.11799175079E-02  0.13577441063E-01  0.51100000000E-03 0. -1.
         11    1    4    4    0    0 -0.26863687101E-02 -0.11762166636E+00 -0.23351670885E-02  0.11767662087E+00  0.51100000000E-03 0.  1.
</event>
<event>
 8    1  0.1042301E+005  0.1043930E+01  0.7957747E-01            NaN
         13   -1    0    0    0    0  0.00000000000E+00  0.00000000000E+00  0.74505805969E-08  0.10566000000E+00  0.10566000000E+00 0.  1.
     999900   -1    0    0    0    0 -0.00000000000E+00 -0.00000000000E+00 -0.74505805969E-08  0.93827000000E+00  0.93827000000E+00 0.  1.
     999902    2    1    2    0    0  0.21159121749E-01  0.10858132145E-01 -0.25428232210E-01  0.10091133020E+01  0.10085124956E+01 0.  0.
     999903    2    3    3    0    0  0.34707635463E-01  0.27619187147E-02  0.11128560841E+00  0.11841706583E+00  0.20636537663E-01 0.  0.
         14    1    1    2    0    0 -0.21159121749E-01 -0.10858132145E-01  0.25428232210E-01  0.34816698008E-01  0.00000000000E+00 0.  1.
     999901    1    3    3    0    0 -0.13548513714E-01  0.80962134302E-02 -0.13671384062E+00  0.89069623616E+00  0.88000000000E+00 0.  1.
        -11    1    4    4    0    0  0.23946045810E-02  0.10668405612E-02  0.40463579357E-01  0.40551629502E-01  0.51100000000E-03 0. -1.
         11    1    4    4    0    0  0.32313030882E-01  0.16950781535E-02  0.70822029051E-01  0.77865436329E-01  0.51100000000E-03 0.  1.
</event>
<event>
 8    1  0.1042301E+005  0.1043930E+01  0.7957747E-01            NaN
         13   -1    0    0    0    0  0.00000000000E+00  0.00000000000E+00  0.74505805969E-08  0.10566000000E+00  0.10566000000E+00 0. -1.
     999900   -1    0    0    0    0 -0.00000000000E+00 -0.00000000000E+00 -0.74505805969E-08  0.93827000000E+00  0.93827000000E+00 0. -1.
     999902    2    1    2    0    0  0.11554517810E-02 -0.15829981346E-01  0.17304624493E-01  0.10204486583E+01  0.10201784603E+01 0.  0.
     999903    2    3    3    0    0 -0.12779059021E+00 -0.13159491353E-01  0.15985279963E-01  0.13104663790E+00  0.20349077895E-01 0.  0.
         14    1    1    2    0    0 -0.11554517810E-02  0.15829981346E-01 -0.17304624493E-01  0.23481341680E-01  0.00000000000E+00 0.  1.
     999901    1    3    3    0    0  0.12894604199E+00 -0.26704899929E-02  0.13193445299E-02  0.88940202042E+00  0.88000000000E+00 0. -1.
        -11    1    4    4    0    0 -0.41493956081E-01 -0.44853131664E-02 -0.43403022644E-02  0.41963862670E-01  0.51100000000E-03 0. -1.
         11    1    4    4    0    0 -0.86296634124E-01 -0.86741781864E-02  0.20325582228E-01  0.89082775228E-01  0.51100000000E-03 0.  1.
</event>
<event>
 8    1  0.1042301E+005  0.1043930E+01  0.7957747E-01            NaN
         13   -1    0    0    0    0  0.00000000000E+00  0.00000000000E+00  0.74505805969E-08  0.10566000000E+00  0.10566000000E+00 0.  1.
     999900   -1    0    0    0    0 -0.00000000000E+00 -0.00000000000E+00 -0.74505805969E-08  0.93827000000E+00  0.93827000000E+00 0. -1.
     999902    2    1    2    0    0  0.22376171456E-01 -0.43953284845E-02  0.60527418040E-02  0.10203366186E+01  0.10200638057E+01 0.  0.
     999903    2    3    3    0    0  0.13145065960E+00 -0.21516413501E-02 -0.12975198929E-01  0.13339561685E+00  0.18496738599E-01 0.  0.
         14    1    1    2    0    0 -0.22376171456E-01  0.43953284845E-02 -0.60527418040E-02  0.23593381379E-01  0.00000000000E+00 0. -1.
     999901    1    3    3    0    0 -0.10907448814E+00 -0.22436871344E-02  0.19027940733E-01  0.88694100177E+00  0.88000000000E+00 0.  1.
        -11    1    4    4    0    0  0.76425135930E-01 -0.54185313288E-02 -0.15671296318E-01  0.78204939313E-01  0.51100000000E-03 0. -1.
         11    1    4    4    0    0  0.55025523666E-01  0.32668899786E-02  0.26960973887E-02  0.55190677536E-01  0.51100000000E-03 0.  1.
</event>
<event>
 8    1  0.1042301E+005  0.1043930E+01  0.7957747E-01            NaN
         13   -1    0    0    0    0  0.00000000000E+00  0.00000000000E+00  0.74505805969E-08  0.10566000000E+00  0.10566000000E+00 0. -1.
     999900   -1    0    0    0    0 -0.00000000000E+00 -0.00000000000E+00 -0.74505805969E-08  0.93827000000E+00  0.93827000000E+00 0.  1.
     999902    2    1    2    0    0 -0.11989292554E-01 -0.56520089512E-02  0.18631103884E-01  0.10210650405E+01  0.10208089981E+01 0.  0.
     999903    2    3    3    0    0  0.17718838006E-01 -0.97927773958E-01 -0.81383540145E-01  0.13011031726E+00  0.20040157671E-01 0.  0.
         14    1    1    2    0    0  0.11989292554E-01  0.56520089512E-02 -0.18631103884E-01  0.22864959503E-01  0.00000000000E+00 0.  1.
     999901    1    3    3    0    0 -0.29708130561E-01  0.92275765006E-01  0.10001464403E+00  0.89095472323E+00  0.88000000000E+00 0. -1.
        -11    1    4    4    0    0 -0.54105065613E-03 -0.51205069687E-01 -0.37713570374E-01  0.63598949746E-01  0.51100000000E-03 0.  1.
         11    1    4    4    0    0  0.18259888662E-01 -0.46722704271E-01 -0.43669969772E-01  0.66511367519E-01  0.51100000000E-03 0. -1.
</event>
<event>
 8    1  0.1042301E+005  0.1043930E+01  0.7957747E-01            NaN
         13   -1    0    0    0    0  0.00000000000E+00  0.00000000000E+00  0.74505805969E-08  0.10566000000E+00  0.10566000000E+00 0.  1.
     999900   -1    0    0    0    0 -0.00000000000E+00 -0.00000000000E+00 -0.74505805969E-08  0.93827000000E+00  0.93827000000E+00 0.  1.
     999902    2    1    2    0    0 -0.23111787219E-01 -0.61968195178E-02 -0.21528350687E-02  0.10199052216E+01  0.10196222197E+01 0.  0.
     999903    2    3    3    0    0 -0.45018027853E-01  0.15786644900E-01  0.12024952292E+00  0.13089144588E+00  0.19919383848E-01 0.  0.
         14    1    1    2    0    0  0.23111787219E-01  0.61968195178E-02  0.21528350687E-02  0.24024778447E-01  0.00000000000E+00 0. -1.
     999901    1    3    3    0    0  0.21906240634E-01 -0.21983464418E-01 -0.12240235799E+00  0.88901377567E+00  0.88000000000E+00 0.  1.
        -11    1    4    4    0    0 -0.16868887545E-01  0.30090165646E-02  0.68472905668E-01  0.70586213096E-01  0.51100000000E-03 0.  1.
         11    1    4    4    0    0 -0.28149140308E-01  0.12777628336E-01  0.51776617257E-01  0.60305232788E-01  0.51100000000E-03 0. -1.
</event>
<event>
 8    1  0.1042301E+005  0.1043930E+01  0.7957747E-01            NaN
         13   -1    0    0    0    0  0.00000000000E+00  0.00000000000E+00  0.74505805969E-08  0.10566000000E+00  0.10566000000E+00 0. -1.
     999900   -1    0    0    0    0 -0.00000000000E+00 -0.00000000000E+00 -0.74505805969E-08  0.93827000000E+00  0.93827000000E+00 0.  1.
     999902    2    1    2    0    0  0.84397619584E-02  0.12668334321E-01 -0.18598437939E-01  0.10198963118E+01  0.10196130975E+01 0.  0.
     999903    2    3    3    0    0  0.11750942178E+00 -0.28359285034E-01  0.43990671480E-01  0.13001044669E+00  0.18836767680E-01 0.  0.
         14    1    1    2    0    0 -0.84397619584E-02 -0.12668334321E-01  0.18598437939E-01  0.24033688234E-01  0.00000000000E+00 0. -1.
     999901    1    3    3    0    0 -0.10906965982E+00  0.41027619355E-01 -0.62589109418E-01  0.88988586508E+00  0.88000000000E+00 0. -1.
        -11    1    4    4    0    0  0.86292241172E-01 -0.12129127443E-01  0.30512707696E-01  0.92329589358E-01  0.51100000000E-03 0.  1.
         11    1    4    4    0    0  0.31217180608E-01 -0.16230157592E-01  0.13477963783E-01  0.37680857333E-01  0.51100000000E-03 0. -1.
</event>
<event>
 8    1  0.1042301E+005  0.1043930E+01  0.7957747E-01            NaN
         13   -1    0    0    0    0  0.00000000000E+00  0.00000000000E+00  0.74505805969E-08  0.10566000000E+00  0.10566000000E+00 0. -1.
     999900   -1    0    0    0    0 -0.00000000000E+00 -0.00000000000E+00 -0.74505805969E-08  0.93827000000E+00  0.93827000000E+00 0. -1.
     999902    2    1    2    0    0 -0.22587532926E-01  0.55630360389E-02 -0.55395301674E-02  0.10200170243E+01  0.10197366814E+01 0.  0.
     999903    2    3    3    0    0 -0.10796222939E+00  0.74664286222E-01 -0.11472846938E-01  0.13316922120E+00  0.19282547664E-01 0.  0.
         14    1    1    2    0    0  0.22587532926E-01 -0.55630360389E-02  0.55395301674E-02  0.23912975727E-01  0.00000000000E+00 0. -1.
     999901    1    3    3    0    0  0.85374696468E-01 -0.69101250183E-01  0.59333167709E-02  0.88684780308E+00  0.88000000000E+00 0. -1.
        -11    1    4    4    0    0 -0.86617988071E-01  0.65976674954E-01 -0.14779334153E-01  0.10988306209E+00  0.51100000000E-03 0. -1.
         11    1    4    4    0    0 -0.21344241322E-01  0.86876112683E-02  0.33064872145E-02  0.23286159105E-01  0.51100000000E-03 0.  1.
</event>
<event>
 8    1  0.1042301E+005  0.1043930E+01  0.7957747E-01            NaN
         13   -1    0    0    0    0  0.00000000000E+00  0.00000000000E+00  0.74505805969E-08  0.10566000000E+00  0.10566000000E+00 0.  1.
     999900   -1    0    0    0    0 -0.00000000000E+00 -0.00000000000E+00 -0.74505805969E-08  0.93827000000E+00  0.93827000000E+00 0.  1.
     999902    2    1    2    0    0 -0.19121510306E-01  0.42319351374E-02 -0.15028781742E-01  0.10192438559E+01  0.10189448621E+01 0.  0.
     999903    2    3    3    0    0  0.54595930211E-01 -0.11186197181E+00 -0.18469102161E-01  0.12855654145E+00  0.26303237090E-01 0.  0.
         14    1    1    2    0    0  0.19121510306E-01 -0.42319351374E-02  0.15028781742E-01  0.24686144131E-01  0.00000000000E+00 0.  1.
     999901    1    3    3    0    0 -0.73717440517E-01  0.11609390695E+00  0.34403204186E-02  0.89068731442E+00  0.88000000000E+00 0.  1.
        -11    1    4    4    0    0  0.22249082543E-01 -0.43800912234E-01 -0.20341259802E-01  0.53174895937E-01  0.51100000000E-03 0.  1.
         11    1    4    4    0    0  0.32346847668E-01 -0.68061059576E-01  0.18721576412E-02  0.75381645511E-01  0.51100000000E-03 0. -1.
</event>
<event>
 8    1  0.1042301E+005  0.1043930E+01  0.7957747E-01            NaN
         13   -1    0    0    0    0  0.00000000000E+00  0.00000000000E+00  0.74505805969E-08  0.10566000000E+00  0.10566000000E+00 0.  1.
     999900   -1    0    0    0    0 -0.00000000000E+00 -0.00000000000E+00 -0.74505805969E-08  0.93827000000E+00  0.93827000000E+00 0.  1.
     999902    2    1    2    0    0  0.22618083529E-01 -0.61646348673E-02 -0.91303293438E-02  0.10187716348E+01  0.10184609470E+01 0.  0.
     999903    2    3    3    0    0  0.44898280014E-01  0.85441261512E-01  0.82379813945E-01  0.12901764985E+00  0.23303551463E-01 0.  0.
         14    1    1    2    0    0 -0.22618083529E-01  0.61646348673E-02  0.91303293438E-02  0.25158365199E-01  0.00000000000E+00 0.  1.
     999901    1    3    3    0    0 -0.22280196486E-01 -0.91605896379E-01 -0.91510143289E-01  0.88975398495E+00  0.88000000000E+00 0.  1.
        -11    1    4    4    0    0  0.63681381780E-02  0.21084838356E-01  0.81591015087E-02  0.23493736416E-01  0.51100000000E-03 0. -1.
         11    1    4    4    0    0  0.38530141836E-01  0.64356423156E-01  0.74220712437E-01  0.10552391344E+00  0.51100000000E-03 0.  1.
</event>
<event>
 8    1  0.1042301E+005  0.1043930E+01  0.7957747E-01            NaN
         13   -1    0    0    0    0  0.00000000000E+00  0.00000000000E+00  0.74505805969E-08  0.10566000000E+00  0.10566000000E+00 0. -1.
     999900   -1    0    0    0    0 -0.00000000000E+00 -0.00000000000E+00 -0.74505805969E-08  0.93827000000E+00  0.93827000000E+00 0.  1.
     999902    2    1    2    0    0  0.16583368835E-01  0.16361641897E-01  0.38077630200E-02  0.10203246933E+01  0.10200516012E+01 0.  0.
     999903    2    3    3    0    0  0.22674860038E-01  0.68408307895E-01 -0.10833298404E+00  0.13166192884E+00  0.20124169735E-01 0.  0.
         14    1    1    2    0    0 -0.16583368835E-01 -0.16361641897E-01 -0.38077630200E-02  0.23605306749E-01  0.00000000000E+00 0. -1.
     999901    1    3    3    0    0 -0.60914912032E-02 -0.52046665997E-01  0.11214074706E+00  0.88866276441E+00  0.88000000000E+00 0. -1.
        -11    1    4    4    0    0  0.10852264705E-01  0.56077040623E-01 -0.90020613375E-01  0.10661321723E+00  0.51100000000E-03 0. -1.
         11    1    4    4    0    0  0.11822595333E-01  0.12331267272E-01 -0.18312370663E-01  0.25048711609E-01  0.51100000000E-03 0.  1.
</event>
<event>
 8    1  0.1042301E+005  0.1043930E+01  0.7957747E-01            NaN
         13   -1    0    0    0    0  0.00000000000E+00  0.00000000000E+00  0.74505805969E-08  0.10566000000E+00  0.10566000000E+00 0.  1.
     999900   -1    0    0    0    0 -0.00000000000E+00 -0.00000000000E+00 -0.74505805969E-08  0.93827000000E+00  0.93827000000E+00 0.  1.
     999902    2    1    2    0    0  0.40676094169E-02 -0.17043062843E-01 -0.15978414570E-01  0.10202166879E+01  0.10199410616E+01 0.  0.
     999903    2    3    3    0    0  0.12202392079E+00 -0.36301915964E-01  0.24782644134E-01  0.13120259427E+00  0.19805932044E-01 0.  0.
         14    1    1    2    0    0 -0.40676094169E-02  0.17043062843E-01  0.15978414570E-01  0.23713312076E-01  0.00000000000E+00 0.  1.
     999901    1    3    3    0    0 -0.11795631137E+00  0.19258853121E-01 -0.40761058704E-01  0.88901409366E+00  0.88000000000E+00 0. -1.
        -11    1    4    4    0    0  0.88545059180E-01 -0.31466421457E-01  0.10774953447E-01  0.94587123476E-01  0.51100000000E-03 0.  1.
         11    1    4    4    0    0  0.33478861610E-01 -0.48354945064E-02  0.14007690687E-01  0.36615470790E-01  0.51100000000E-03 0. -1.
</event>
<event>
 8    1  0.1042301E+005  0.1043930E+01  0.7957747E-01            NaN
         13   -1    0    0    0    0  0.00000000000E+00  0.00000000000E+00  0.74505805969E-08  0.10566000000E+00  0.10566000000E+00 0. -1.
     999900   -1    0    0    0    0 -0.00000000000E+00 -0.00000000000E+00 -0.74505805969E-08  0.93827000000E+00  0.93827000000E+00 0.  1.
     999902    2    1    2    0    0 -0.13452433494E-01  0.14050052882E-01  0.13170053172E-01  0.10204391028E+01  0.10201686822E+01 0.  0.
     999903    2    3    3    0    0 -0.71242320978E-01 -0.62176253068E-01  0.89968887227E-01  0.13193013728E+00  0.19230333070E-01 0.  0.
         14    1    1    2    0    0  0.13452433494E-01 -0.14050052882E-01 -0.13170053172E-01  0.23490897247E-01  0.00000000000E+00 0.  1.
     999901    1    3    3    0    0  0.57789887483E-01  0.76226305950E-01 -0.76798834055E-01  0.88850896547E+00  0.88000000000E+00 0.  1.
        -11    1    4    4    0    0 -0.59529805017E-01 -0.41002045512E-01  0.66787931522E-01  0.98416738107E-01  0.51100000000E-03 0. -1.
         11    1    4    4    0    0 -0.11712515960E-01 -0.21174207556E-01  0.23180955705E-01  0.33513399173E-01  0.51100000000E-03 0.  1.
</event>
<event>
 8    1  0.1042301E+005  0.1043930E+01  0.7957747E-01            NaN
         13   -1    0    0    0    0  0.00000000000E+00  0.00000000000E+00  0.74505805969E-08  0.10566000000E+00  0.10566000000E+00 0. -1.
     999900   -1    0    0    0    0 -0.00000000000E+00 -0.00000000000E+00 -0.74505805969E-08  0.93827000000E+00  0.93827000000E+00 0.  1.
     999902    2    1    2    0    0  0.94670775771E-02 -0.14665633948E-01 -0.16358362523E-01  0.10200071573E+01  0.10197265803E+01 0.  0.
     999903    2    3    3    0    0 -0.21172510550E-01 -0.11986815575E+00  0.44505562428E-01  0.13112540349E+00  0.19911714844E-01 0.  0.
         14    1    1    2    0    0 -0.94670775771E-02  0.14665633948E-01  0.16358362523E-01  0.23922842669E-01  0.00000000000E+00 0.  1.
     999901    1    3    3    0    0  0.30639588127E-01  0.10520252180E+00 -0.60863924951E-01  0.88888175384E+00  0.88000000000E+00 0.  1.
        -11    1    4    4    0    0 -0.20662403302E-01 -0.69093134779E-01  0.20620730436E-01  0.75008478378E-01  0.51100000000E-03 0.  1.
         11    1    4    4    0    0 -0.51010724770E-03 -0.50775020967E-01  0.23884831992E-01  0.56116925111E-01  0.51100000000E-03 0. -1.
</event>
<event>
 8    1  0.1042301E+005  0.1043930E+01  0.7957747E-01            NaN
         13   -1    0    0    0    0  0.00000000000E+00  0.00000000000E+00  0.74505805969E-08  0.10566000000E+00  0.10566000000E+00 0. -1.
     999900   -1    0    0    0    0 -0.00000000000E+00 -0.00000000000E+00 -0.74505805969E-08  0.93827000000E+00  0.93827000000E+00 0. -1.
     999902    2    1    2    0    0 -0.17112523127E-01  0.60935798221E-02  0.16168042741E-01  0.10196117811E+01  0.10193217394E+01 0.  0.
     999903    2    3    3    0    0  0.11091464748E+00  0.65282855092E-02 -0.58332626034E-01  0.12723210015E+00  0.20991296079E-01 0.  0.
         14    1    1    2    0    0  0.17112523127E-01 -0.60935798221E-02 -0.16168042741E-01  0.24318218868E-01  0.00000000000E+00 0.  1.
     999901    1    3    3    0    0 -0.12802717061E+00 -0.43470568709E-03  0.74500668776E-01  0.89237968098E+00  0.88000000000E+00 0.  1.
        -11    1    4    4    0    0  0.35293484362E-01 -0.39603304037E-02 -0.10103478808E-01  0.36927708571E-01  0.51100000000E-03 0. -1.
         11    1    4    4    0    0  0.75621163118E-01  0.10488615913E-01 -0.48229147226E-01  0.90304391578E-01  0.51100000000E-03 0.  1.
</event>
<event>
 8    1  0.1042301E+005  0.1043930E+01  0.7957747E-01            NaN
         13   -1    0    0    0    0  0.00000000000E+00  0.00000000000E+00  0.74505805969E-08  0.10566000000E+00  0.10566000000E+00 0.  1.
     999900   -1    0    0    0    0 -0.00000000000E+00 -0.00000000000E+00 -0.74505805969E-08  0.93827000000E+00  0.93827000000E+00 0.  1.
     999902    2    1    2    0    0  0.18280762020E-01 -0.11690792695E-01  0.93283795567E-02  0.10203105259E+01  0.10200371021E+01 0.  0.
     999903    2    3    3    0    0 -0.70843585090E-01  0.66655144077E-01  0.82980649261E-01  0.12929655745E+00  0.19237719095E-01 0.  0.
         14    1    1    2    0    0 -0.18280762020E-01  0.11690792695E-01 -0.93283795567E-02  0.23619474148E-01  0.00000000000E+00 0. -1.
     999901    1    3    3    0    0  0.89124347110E-01 -0.78345936772E-01 -0.73652269704E-01  0.89101396840E+00  0.88000000000E+00 0. -1.
        -11    1    4    4    0    0 -0.65919070694E-01  0.63621669462E-01  0.70735765326E-01  0.11574476370E+00  0.51100000000E-03 0.  1.
         11    1    4    4    0    0 -0.49245143967E-02  0.30334746152E-02  0.12244883935E-01  0.13551793751E-01  0.51100000000E-03 0. -1.
</event>
<event>
 8    1  0.1042301E+005  0.1043930E+01  0.7957747E-01            NaN
         13   -1    0    0    0    0  0.00000000000E+00  0.00000000000E+00  0.74505805969E-08  0.10566000000E+00  0.10566000000E+00 0.  1.
     999900   -1    0    0    0    0 -0.00000000000E+00 -0.00000000000E+00 -0.74505805969E-08  0.93827000000E+00  0.93827000000E+00 0. -1.
     999902    2    1    2    0    0  0.14735787650E-01  0.11639041797E-01 -0.14406751984E-01  0.10202621899E+01  0.10199876327E+01 0.  0.
     999903    2    3    3    0    0  0.10589587012E+00 -0.74766478748E-01 -0.43600971217E-02  0.13128693160E+00  0.20329444380E-01 0.  0.
         14    1    1    2    0    0 -0.14735787650E-01 -0.11639041797E-01  0.14406751984E-01  0.23667810088E-01  0.00000000000E+00 0.  1.
     999901    1    3    3    0    0 -0.91160082472E-01  0.86405520545E-01 -0.10046654862E-01  0.88897525831E+00  0.88000000000E+00 0.  1.
        -11    1    4    4    0    0  0.61229733509E-01 -0.55134203875E-01 -0.14887076862E-02  0.82409575136E-01  0.51100000000E-03 0. -1.
         11    1    4    4    0    0  0.44666136613E-01 -0.19632274873E-01 -0.28713894355E-02  0.48877356464E-01  0.51100000000E-03 0.  1.
</event>
<event>
 7    1  0.1042301E+005  0.1043930E+01  0.7957747E-01            NaN
         13   -1    0    0    0    0  0.00000000000E+00  0.00000000000E+00  0.74505805969E-08  0.10566000000E+00  0.10566000000E+00 0. -1.
     999900   -1    0    0    0    0 -0.00000000000E+00 -0.00000000000E+00 -0.74505805969E-08  0.93827000000E+00  0.93827000000E+00 0.  1.
     999903    2    1    2    0    0  0.33263932300E-01 -0.78584645017E-01 -0.60152207235E-01  0.10630337782E+00  0.20002111806E-01 0.  0.
         14    1    1    2    0    0 -0.15176167843E-01  0.49830205705E-01 -0.13754751866E-01  0.53875399487E-01  0.00000000000E+00 0.  1.
     999901    1    1    2    0    0 -0.18087764457E-01  0.28754439312E-01  0.73906959101E-01  0.88375122269E+00  0.88000000000E+00 0. -1.
        -11    1    3    3    0    0  0.15103584937E-01 -0.28457090502E-01 -0.34258686236E-01  0.47030234758E-01  0.51100000000E-03 0.  1.
         11    1    3    3    0    0  0.18160347363E-01 -0.50127554514E-01 -0.25893520999E-01  0.59273143064E-01  0.51100000000E-03 0. -1.
</event>
<event>
 8    1  0.1042301E+005  0.1043930E+01  0.7957747E-01            NaN
         13   -1    0    0    0    0  0.00000000000E+00  0.00000000000E+00  0.74505805969E-08  0.10566000000E+00  0.10566000000E+00 0. -1.
     999900   -1    0    0    0    0 -0.00000000000E+00 -0.00000000000E+00 -0.74505805969E-08  0.93827000000E+00  0.93827000000E+00 0.  1.
     999902    2    1    2    0    0  0.85529480006E-02  0.14009820602E-01 -0.15024323890E-01  0.10216778473E+01  0.10214354925E+01 0.  0.
     999903    2    3    3    0    0  0.96523168413E-01 -0.63236797346E-01  0.58744637492E-01  0.13086492677E+00  0.18949460298E-01 0.  0.
         14    1    1    2    0    0 -0.85529480006E-02 -0.14009820602E-01  0.15024323890E-01  0.22252152731E-01  0.00000000000E+00 0. -1.
     999901    1    3    3    0    0 -0.87970220412E-01  0.77246617948E-01 -0.73768961383E-01  0.89081292050E+00  0.88000000000E+00 0.  1.
        -11    1    4    4    0    0  0.36117710187E-01 -0.16412950550E-01  0.27609104936E-01  0.48336298279E-01  0.51100000000E-03 0.  1.
         11    1    4    4    0    0  0.60405458225E-01 -0.46823846796E-01  0.31135532557E-01  0.82528628492E-01  0.51100000000E-03 0. -1.
</event>
<event>
 8    1  0.1042301E+005  0.1043930E+01  0.7957747E-01            NaN
         13   -1    0    0    0    0  0.00000000000E+00  0.00000000000E+00  0.74505805969E-08  0.10566000000E+00  0.10566000000E+00 0.  1.
     999900   -1    0    0    0    0 -0.00000000000E+00 -0.00000000000E+00 -0.74505805969E-08  0.93827000000E+00  0.93827000000E+00 0.  1.
     999902    2    1    2    0    0  0.10169877174E-01  0.12925208299E-01  0.17256268702E-01  0.10200916649E+01  0.10198130900E+01 0.  0.
     999903    2    3    3    0    0  0.87800579809E-01 -0.77874727529E-01  0.55390048958E-01  0.13120171696E+00  0.19298134794E-01 0.  0.
         14    1    1    2    0    0 -0.10169877174E-01 -0.12925208299E-01 -0.17256268702E-01  0.23838335110E-01  0.00000000000E+00 0. -1.
     999901    1    3    3    0    0 -0.77630702635E-01  0.90799935829E-01 -0.38133780256E-01  0.88888994793E+00  0.88000000000E+00 0. -1.
        -11    1    4    4    0    0  0.35751968198E-01 -0.25816344349E-01  0.29964655073E-01  0.53318182079E-01  0.51100000000E-03 0.  1.
         11    1    4    4    0    0  0.52048611611E-01 -0.52058383180E-01  0.25425393885E-01  0.77883534879E-01  0.51100000000E-03 0. -1.
</event>
<event>
 8    1  0.1042301E+005  0.1043930E+01  0.7957747E-01            NaN
         13   -1    0    0    0    0  0.00000000000E+00  0.00000000000E+00  0.74505805969E-08  0.10566000000E+00  0.10566000000E+00 0.  1.
     999900   -1    0    0    0    0 -0.00000000000E+00 -0.00000000000E+00 -0.74505805969E-08  0.93827000000E+00  0.93827000000E+00 0. -1.
     999902    2    1    2    0    0  0.22321126800E-01 -0.18628235559E-03  0.80159665143E-02  0.10202124301E+01  0.10199367036E+01 0.  0.
     999903    2    3    3    0    0 -0.10231344325E-01 -0.12537970050E+00 -0.26037833580E-01  0.13010416892E+00  0.20600395337E-01 0.  0.
         14    1    1    2    0    0 -0.22321126800E-01  0.18628235559E-03 -0.80159665143E-02  0.23717569898E-01  0.00000000000E+00 0. -1.
     999901    1    3    3    0    0  0.32552471125E-01  0.12519341815E+00  0.34053800094E-01  0.89010826118E+00  0.88000000000E+00 0. -1.
        -11    1    4    4    0    0 -0.53371885519E-02 -0.26882259289E-01  0.22588794406E-02  0.27504637853E-01  0.51100000000E-03 0.  1.
         11    1    4    4    0    0 -0.48941557734E-02 -0.98497441213E-01 -0.28296713021E-01  0.10259953107E+00  0.51100000000E-03 0. -1.
</event>
<event>
 8    1  0.1042301E+005  0.1043930E+01  0.7957747E-01            NaN
         13   -1    0    0    0    0  0.00000000000E+00  0.00000000000E+00  0.74505805969E-08  0.10566000000E+00  0.10566000000E+00 0. -1.
     999900   -1    0    0    0    0 -0.00000000000E+00 -0.00000000000E+00 -0.74505805969E-08  0.93827000000E+00  0.93827000000E+00 0. -1.
     999902    2    1    2    0    0 -0.18069225023E-01 -0.11075170289E-01 -0.12179169310E-01  0.10194864230E+01  0.10191933469E+01 0.  0.
     999903    2    3    3    0    0  0.10900081670E-01 -0.95490293133E-01  0.84986802378E-01  0.12965140476E+00  0.18695515882E-01 0.  0.
         14    1    1    2    0    0  0.18069225023E-01  0.11075170289E-01  0.12179169310E-01  0.24443576967E-01  0.00000000000E+00 0.  1.
     999901    1    3    3    0    0 -0.28969306693E-01  0.84415122843E-01 -0.97165971689E-01  0.88983501828E+00  0.88000000000E+00 0. -1.
        -11    1    4    4    0    0  0.42412755891E-02 -0.20368653890E-01  0.29132807488E-01  0.35802961792E-01  0.51100000000E-03 0.  1.
         11    1    4    4    0    0  0.66588060811E-02 -0.75121639242E-01  0.55853994891E-01  0.93848442966E-01  0.51100000000E-03 0. -1.
</event>
<event>
 8    1  0.1042301E+005  0.1043930E+01  0.7957747E-01            NaN
         13   -1    0    0    0    0  0.00000000000E+00  0.00000000000E+00  0.74505805969E-08  0.10566000000E+00  0.10566000000E+00 0. -1.
     999900   -1    0    0    0    0 -0.00000000000E+00 -0.00000000000E+00 -0.74505805969E-08  0.93827000000E+00  0.93827000000E+00 0. -1.
     999902    2    1    2    0    0  0.37721886245E-02 -0.87606803810E-02  0.22390682692E-01  0.10195923420E+01  0.10193018308E+01 0.  0.
     999903    2    3    3    0    0 -0.56414953644E-01  0.62333308478E-01  0.98892758552E-01  0.13137535554E+00  0.20288371256E-01 0.  0.
         14    1    1    2    0    0 -0.37721886245E-02  0.87606803810E-02 -0.22390682692E-01  0.24337658046E-01  0.00000000000E+00 0. -1.
     999901    1    3    3    0    0  0.60187142269E-01 -0.71093988859E-01 -0.76502075860E-01  0.88821698642E+00  0.88000000000E+00 0. -1.
        -11    1    4    4    0    0 -0.33165593964E-01  0.47850872355E-01  0.58229476528E-01  0.82344372399E-01  0.51100000000E-03 0. -1.
         11    1    4    4    0    0 -0.23249359680E-01  0.14482436124E-01  0.40663282024E-01  0.49030983139E-01  0.51100000000E-03 0.  1.
</event>
<event>
 7    1  0.1042301E+005  0.1043930E+01  0.7957747E-01            NaN
         13   -1    0    0    0    0  0.00000000000E+00  0.00000000000E+00  0.74505805969E-08  0.10566000000E+00  0.10566000000E+00 0. -1.
     999900   -1    0    0    0    0 -0.00000000000E+00 -0.00000000000E+00 -0.74505805969E-08  0.93827000000E+00  0.93827000000E+00 0.  1.
     999903    2    1    2    0    0 -0.40648039397E-01  0.11003032987E+00  0.42266568781E-03  0.11898177170E+00  0.19938574483E-01 0.  0.
         14    1    1    2    0    0  0.40581584359E-02 -0.34635315321E-01  0.21000094608E-01  0.40707219148E-01  0.00000000000E+00 0. -1.
     999901    1    1    2    0    0  0.36589880962E-01 -0.75395014549E-01 -0.21422760296E-01  0.88424100915E+00  0.88000000000E+00 0. -1.
        -11    1    3    3    0    0 -0.29220734850E-01  0.66115451698E-01  0.88476947426E-02  0.72826143120E-01  0.51100000000E-03 0.  1.
         11    1    3    3    0    0 -0.11427304547E-01  0.43914878171E-01 -0.84250290548E-02  0.46155628580E-01  0.51100000000E-03 0. -1.
</event>
<event>
 8    1  0.1042301E+005  0.1043930E+01  0.7957747E-01            NaN
         13   -1    0    0    0    0  0.00000000000E+00  0.00000000000E+00  0.74505805969E-08  0.10566000000E+00  0.10566000000E+00 0.  1.
     999900   -1    0    0    0    0 -0.00000000000E+00 -0.00000000000E+00 -0.74505805969E-08  0.93827000000E+00  0.93827000000E+00 0. -1.
     999902    2    1    2    0    0 -0.20042600331E-01 -0.11776123925E-01 -0.42578097052E-02  0.10202971443E+01  0.10200234070E+01 0.  0.
     999903    2    3    3    0    0  0.70195807516E-01 -0.10743633973E+00 -0.29218805783E-02  0.13052434647E+00  0.23623063879E-01 0.  0.
         14    1    1    2    0    0  0.20042600331E-01  0.11776123925E-01  0.42578097052E-02  0.23632855651E-01  0.00000000000E+00 0.  1.
     999901    1    3    3    0    0 -0.90238407847E-01  0.95660215809E-01 -0.13359291269E-02  0.88977279788E+00  0.88000000000E+00 0.  1.
        -11    1    4    4    0    0  0.49134127312E-02 -0.92702744537E-02  0.63388568471E-02  0.12268734256E-01  0.51100000000E-03 0. -1.
         11    1    4    4    0    0  0.65282394785E-01 -0.98166065280E-01 -0.92607374254E-02  0.11825561221E+00  0.51100000000E-03 0.  1.
</event>
<event>
 8    1  0.1042301E+005  0.1043930E+01  0.7957747E-01            NaN
         13   -1    0    0    0    0  0.00000000000E+00  0.00000000000E+00  0.74505805969E-08  0.10566000000E+00  0.10566000000E+00 0.  1.
     999900   -1    0    0    0    0 -0.00000000000E+00 -0.00000000000E+00 -0.74505805969E-08  0.93827000000E+00  0.93827000000E+00 0. -1.
     999902    2    1    2    0    0 -0.16071329290E-01  0.53991280928E-02  0.16637619990E-01  0.10201760823E+01  0.10198995000E+01 0.  0.
     999903    2    3    3    0    0  0.43201611084E-01  0.67019029361E-01 -0.98699786130E-01  0.12854106110E+00  0.20572484315E-01 0.  0.
         14    1    1    2    0    0  0.16071329290E-01 -0.53991280928E-02 -0.16637619990E-01  0.23753917745E-01  0.00000000000E+00 0. -1.
     999901    1    3    3    0    0 -0.59272940374E-01 -0.61619901268E-01  0.11533740612E+00  0.89163502115E+00  0.88000000000E+00 0.  1.
        -11    1    4    4    0    0  0.21785934688E-01  0.19267835340E-01 -0.26367508029E-01  0.39260451214E-01  0.51100000000E-03 0.  1.
         11    1    4    4    0    0  0.21415676396E-01  0.47751194021E-01 -0.72332278101E-01  0.89280609890E-01  0.51100000000E-03 0. -1.
</event>
<event>
 8    1  0.1042301E+005  0.1043930E+01  0.7957747E-01            NaN
         13   -1    0    0    0    0  0.00000000000E+00  0.00000000000E+00  0.74505805969E-08  0.10566000000E+00  0.10566000000E+00 0.  1.
     999900   -1    0    0    0    0 -0.00000000000E+00 -0.00000000000E+00 -0.74505805969E-08  0.93827000000E+00  0.93827000000E+00 0. -1.
     999902    2    1    2    0    0  0.12640050203E-01 -0.68480179816E-02 -0.18542800671E-01  0.10204672279E+01  0.10201974620E+01 0.  0.
     999903    2    3    3    0    0  0.73922910978E-01 -0.10043400023E+00  0.37025168248E-01  0.13164681616E+00  0.20209798418E-01 0.  0.
         14    1    1    2    0    0 -0.12640050203E-01  0.68480179816E-02  0.18542800671E-01  0.23462772132E-01  0.00000000000E+00 0.  1.
     999901    1    3    3    0    0 -0.61282860776E-01  0.93585982246E-01 -0.55567968919E-01  0.88882041171E+00  0.88000000000E+00 0. -1.
        -11    1    4    4    0    0  0.52487095156E-01 -0.68574669495E-01  0.15873740133E-01  0.87804425862E-01  0.51100000000E-03 0.  1.
         11    1    4    4    0    0  0.21435815822E-01 -0.31859330733E-01  0.21151428115E-01  0.43842390298E-01  0.51100000000E-03 0. -1.
</event>
<event>
 8    1  0.1042301E+005  0.1043930E+01  0.7957747E-01            NaN
         13   -1    0    0    0    0  0.00000000000E+00  0.00000000000E+00  0.74505805969E-08  0.10566000000E+00  0.10566000000E+00 0. -1.
     999900   -1    0    0    0    0 -0.00000000000E+00 -0.00000000000E+00 -0.74505805969E-08  0.93827000000E+00  0.93827000000E+00 0.  1.
     999902    2    1    2    0    0  0.19348330108E-01 -0.12605125852E-01 -0.56062990052E-02  0.10201670527E+01  0.10198902577E+01 0.  0.
     999903    2    3    3    0    0 -0.97837937482E-01  0.60025877274E-01 -0.53566644787E-01  0.12814234526E+00  0.19383169523E-01 0.  0.
         14    1    1    2    0    0 -0.19348330108E-01  0.12605125852E-01  0.56062990052E-02  0.23762947297E-01  0.00000000000E+00 0. -1.
     999901    1    3    3    0    0  0.11718626759E+00 -0.72631003126E-01  0.47960345782E-01  0.89202470745E+00  0.88000000000E+00 0. -1.
        -11    1    4    4    0    0 -0.67431645840E-01  0.33207663207E-01 -0.41379607391E-01  0.85803897261E-01  0.51100000000E-03 0.  1.
         11    1    4    4    0    0 -0.30406291642E-01  0.26818214067E-01 -0.12187037397E-01  0.42338447996E-01  0.51100000000E-03 0. -1.
</event>
<event>
 8    1  0.1042301E+005  0.1043930E+01  0.7957747E-01            NaN
         13   -1    0    0    0    0  0.00000000000E+00  0.00000000000E+00  0.74505805969E-08  0.10566000000E+00  0.10566000000E+00 0.  1.
     999900   -1    0    0    0    0 -0.00000000000E+00 -0.00000000000E+00 -0.74505805969E-08  0.93827000000E+00  0.93827000000E+00 0. -1.
     999902    2    1    2    0    0 -0.75305610261E-02 -0.17057365123E-01  0.19711906083E-01  0.10167965834E+01  0.10164344887E+01 0.  0.
     999903    2    3    3    0    0 -0.58615883682E-02 -0.12790050179E+00  0.52575511461E-02  0.12972391740E+00  0.20192977071E-01 0.  0.
         14    1    1    2    0    0  0.75305610261E-02  0.17057365123E-01 -0.19711906083E-01  0.27133416588E-01  0.00000000000E+00 0. -1.
     999901    1    3    3    0    0 -0.16689726579E-02  0.11084313667E+00  0.14454354936E-01  0.88707266602E+00  0.88000000000E+00 0.  1.
        -11    1    4    4    0    0 -0.59331216211E-02 -0.95934543917E-01  0.12543144551E-01  0.96934154171E-01  0.51100000000E-03 0.  1.
         11    1    4    4    0    0  0.71533252913E-04 -0.31965957878E-01 -0.72855934052E-02  0.32789763225E-01  0.51100000000E-03 0. -1.
</event>
<event>
 8    1  0.1042301E+005  0.1043930E+01  0.7957747E-01            NaN
         13   -1    0    0    0    0  0.00000000000E+00  0.00000000000E+00  0.74505805969E-08  0.10566000000E+00  0.10566000000E+00 0. -1.
     999900   -1    0    0    0    0 -0.00000000000E+00 -0.00000000000E+00 -0.74505805969E-08  0.93827000000E+00  0.93827000000E+00 0.  1.
     999902    2    1    2    0    0 -0.13692782057E-01  0.22046183981E-01 -0.43231977854E-02  0.10176199915E+01  0.10172798192E+01 0.  0.
     999903    2    3    3    0    0 -0.88763743634E-01 -0.70841529673E-01  0.54717012041E-01  0.12759217002E+00  0.19704972299E-01 0.  0.
         14    1    1    2    0    0  0.13692782057E-01 -0.22046183981E-01  0.43231977854E-02  0.26310008507E-01  0.00000000000E+00 0.  1.
     999901    1    3    3    0    0  0.75070961577E-01  0.92887713653E-01 -0.59040209826E-01  0.89002782147E+00  0.88000000000E+00 0.  1.
        -11    1    4    4    0    0 -0.60677007569E-01 -0.43549810986E-01  0.26228141403E-01  0.79160986647E-01  0.51100000000E-03 0. -1.
         11    1    4    4    0    0 -0.28086736065E-01 -0.27291718686E-01  0.28488870638E-01  0.48431183372E-01  0.51100000000E-03 0.  1.
</event>
<event>
 8    1  0.1042301E+005  0.1043930E+01  0.7957747E-01            NaN
         13   -1    0    0    0    0  0.00000000000E+00  0.00000000000E+00  0.74505805969E-08  0.10566000000E+00  0.10566000000E+00 0. -1.
     999900   -1    0    0    0    0 -0.00000000000E+00 -0.00000000000E+00 -0.74505805969E-08  0.93827000000E+00  0.93827000000E+00 0.  1.
     999902    2    1    2    0    0 -0.46459708935E-02 -0.10860234374E-01  0.20465349549E-01  0.10203003519E+01  0.10200266898E+01 0.  0.
     999903    2    3    3    0    0 -0.71235670553E-01  0.10457164868E+00  0.23354579862E-01  0.13026268116E+00  0.20326810734E-01 0.  0.
         14    1    1    2    0    0  0.46459708935E-02  0.10860234374E-01 -0.20465349549E-01  0.23629648079E-01  0.00000000000E+00 0.  1.
     999901    1    3    3    0    0  0.66589699660E-01 -0.11543188306E+00 -0.28892303132E-02  0.89003767076E+00  0.88000000000E+00 0. -1.
        -11    1    4    4    0    0 -0.54625251597E-01  0.66622582318E-01  0.21476877106E-01  0.88791913810E-01  0.51100000000E-03 0. -1.
         11    1    4    4    0    0 -0.16610418956E-01  0.37949066363E-01  0.18777027554E-02  0.41470767347E-01  0.51100000000E-03 0.  1.
</event>
<event>
 8    1  0.1042301E+005  0.1043930E+01  0.7957747E-01            NaN
         13   -1    0    0    0    0  0.00000000000E+00  0.00000000000E+00  0.74505805969E-08  0.10566000000E+00  0.10566000000E+00 0.  1.
     999900   -1    0    0    0    0 -0.00000000000E+00 -0.00000000000E+00 -0.74505805969E-08  0.93827000000E+00  0.93827000000E+00 0. -1.
     999902    2    1    2    0    0 -0.21841114313E-01 -0.79950163119E-02 -0.45551147937E-02  0.10202297124E+01  0.10199543924E+01 0.  0.
     999903    2    3    3    0    0  0.53339577723E-01 -0.10793421985E+00 -0.46022320683E-01  0.13042101949E+00  0.19916876236E-01 0.  0.
         14    1    1    2    0    0  0.21841114313E-01  0.79950163119E-02  0.45551147937E-02  0.23700287573E-01  0.00000000000E+00 0.  1.
     999901    1    3    3    0    0 -0.75180692036E-01  0.99939203533E-01  0.41467205890E-01  0.88980869293E+00  0.88000000000E+00 0.  1.
        -11    1    4    4    0    0  0.20406610525E-01 -0.47175687067E-01 -0.29853774004E-01  0.59443116899E-01  0.51100000000E-03 0.  1.
         11    1    4    4    0    0  0.32932967197E-01 -0.60758532779E-01 -0.16168546679E-01  0.70977902593E-01  0.51100000000E-03 0. -1.
</event>
<event>
 8    1  0.1042301E+005  0.1043930E+01  0.7957747E-01            NaN
         13   -1    0    0    0    0  0.00000000000E+00  0.00000000000E+00  0.74505805969E-08  0.10566000000E+00  0.10566000000E+00 0.  1.
     999900   -1    0    0    0    0 -0.00000000000E+00 -0.00000000000E+00 -0.74505805969E-08  0.93827000000E+00  0.93827000000E+00 0. -1.
     999902    2    1    2    0    0  0.58435689358E-02 -0.19885855133E-01  0.11777273016E-01  0.10200909838E+01  0.10198123928E+01 0.  0.
     999903    2    3    3    0    0 -0.73311764656E-01  0.38934003584E-01 -0.95481302295E-01  0.12811018550E+00  0.20126327740E-01 0.  0.
         14    1    1    2    0    0 -0.58435689358E-02  0.19885855133E-01 -0.11777273016E-01  0.23839016170E-01  0.00000000000E+00 0. -1.
     999901    1    3    3    0    0  0.79155333592E-01 -0.58819858717E-01  0.10725857531E+00  0.89198079833E+00  0.88000000000E+00 0.  1.
        -11    1    4    4    0    0 -0.41340951178E-01  0.14027694518E-01 -0.60264131099E-01  0.74416913911E-01  0.51100000000E-03 0. -1.
         11    1    4    4    0    0 -0.31970813478E-01  0.24906309066E-01 -0.35217171196E-01  0.53693271587E-01  0.51100000000E-03 0.  1.
</event>
<event>
 8    1  0.1042301E+005  0.1043930E+01  0.7957747E-01            NaN
         13   -1    0    0    0    0  0.00000000000E+00  0.00000000000E+00  0.74505805969E-08  0.10566000000E+00  0.10566000000E+00 0. -1.
     999900   -1    0    0    0    0 -0.00000000000E+00 -0.00000000000E+00 -0.74505805969E-08  0.93827000000E+00  0.93827000000E+00 0.  1.
     999902    2    1    2    0    0  0.45746023461E-02 -0.10006773454E-01  0.65912150164E-02  0.10311039867E+01  0.10310242115E+01 0.  0.
     999903    2    3    3    0    0 -0.44880510791E-01  0.46819768948E-01 -0.12069346832E+00  0.13876074851E+00  0.21938117970E-01 0.  0.
         14    1    1    2    0    0 -0.45746023461E-02  0.10006773454E-01 -0.65912150164E-02  0.12826013293E-01  0.00000000000E+00 0.  1.
     999901    1    3    3    0    0  0.49455113137E-01 -0.56826542402E-01  0.12728468334E+00  0.89234323819E+00  0.88000000000E+00 0. -1.
        -11    1    4    4    0    0 -0.10270090021E-01  0.19876742882E-01 -0.25374083849E-01  0.33832896844E-01  0.51100000000E-03 0.  1.
         11    1    4    4    0    0 -0.34610420770E-01  0.26943026066E-01 -0.95319384470E-01  0.10492785167E+00  0.51100000000E-03 0. -1.
</event>
<event>
 8    1  0.1042301E+005  0.1043930E+01  0.7957747E-01            NaN
         13   -1    0    0    0    0  0.00000000000E+00  0.00000000000E+00  0.74505805969E-08  0.10566000000E+00  0.10566000000E+00 0. -1.
     999900   -1    0    0    0    0 -0.00000000000E+00 -0.00000000000E+00 -0.74505805969E-08  0.93827000000E+00  0.93827000000E+00 0.  1.
     999902    2    1    2    0    0  0.72141032765E-02 -0.17675507065E-01 -0.75569062521E-02  0.10233977408E+01  0.10231917524E+01 0.  0.
     999903    2    3    3    0    0 -0.54065167552E-01  0.74677861580E-01  0.90965988011E-01  0.13099029213E+00  0.19591332388E-01 0.  0.
         14    1    1    2    0    0 -0.72141032765E-02  0.17675507065E-01  0.75569062521E-02  0.20532259208E-01  0.00000000000E+00 0.  1.
     999901    1    3    3    0    0  0.61279270829E-01 -0.92353368645E-01 -0.98522894263E-01  0.89240744866E+00  0.88000000000E+00 0.  1.
        -11    1    4    4    0    0 -0.25765342548E-01  0.42862550723E-01  0.36818222725E-01  0.62103895020E-01  0.51100000000E-03 0.  1.
         11    1    4    4    0    0 -0.28299825005E-01  0.31815310858E-01  0.54147765286E-01  0.68886397110E-01  0.51100000000E-03 0. -1.
</event>
<event>
 8    1  0.1042301E+005  0.1043930E+01  0.7957747E-01            NaN
         13   -1    0    0    0    0  0.00000000000E+00  0.00000000000E+00  0.74505805969E-08  0.10566000000E+00  0.10566000000E+00 0.  1.
     999900   -1    0    0    0    0 -0.00000000000E+00 -0.00000000000E+00 -0.74505805969E-08  0.93827000000E+00  0.93827000000E+00 0. -1.
     999902    2    1    2    0    0  0.59001668135E-02  0.18118246261E-01  0.12977333301E-01  0.10208758465E+01  0.10206155005E+01 0.  0.
     999903    2    3    3    0    0  0.18358390518E-01 -0.12593108800E+00  0.12023301100E-01  0.12907635766E+00  0.17901868882E-01 0.  0.
         14    1    1    2    0    0 -0.59001668135E-02 -0.18118246261E-01 -0.12977333301E-01  0.23054153543E-01  0.00000000000E+00 0. -1.
     999901    1    3    3    0    0 -0.12458223704E-01  0.14404933426E+00  0.95403220137E-03  0.89179948880E+00  0.88000000000E+00 0.  1.
        -11    1    4    4    0    0  0.69952120476E-02 -0.75524508194E-01  0.14992783657E-01  0.77317068053E-01  0.51100000000E-03 0. -1.
         11    1    4    4    0    0  0.11363178470E-01 -0.50406579809E-01 -0.29694825571E-02  0.51759289607E-01  0.51100000000E-03 0.  1.
</event>
<event>
 8    1  0.1042301E+005  0.1043930E+01  0.7957747E-01            NaN
         13   -1    0    0    0    0  0.00000000000E+00  0.00000000000E+00  0.74505805969E-08  0.10566000000E+00  0.10566000000E+00 0. -1.
     999900   -1    0    0    0    0 -0.00000000000E+00 -0.00000000000E+00 -0.74505805969E-08  0.93827000000E+00  0.93827000000E+00 0. -1.
     999902    2    1    2    0    0  0.11823480012E-01  0.19690556015E-01  0.82721318009E-02  0.10195181004E+01  0.10192257926E+01 0.  0.
     999903    2    3    3    0    0  0.11522017375E+00  0.52836907710E-01 -0.30965935748E-01  0.13197701246E+00  0.19789274512E-01 0.  0.
         14    1    1    2    0    0 -0.11823480012E-01 -0.19690556015E-01 -0.82721318009E-02  0.24411899564E-01  0.00000000000E+00 0.  1.
     999901    1    3    3    0    0 -0.10339669374E+00 -0.33146351695E-01  0.39238067548E-01  0.88754108798E+00  0.88000000000E+00 0.  1.
        -11    1    4    4    0    0  0.76001552195E-01  0.26564346582E-01 -0.13469170187E-01  0.81630754694E-01  0.51100000000E-03 0. -1.
         11    1    4    4    0    0  0.39218621552E-01  0.26272561128E-01 -0.17496765561E-01  0.50346257763E-01  0.51100000000E-03 0.  1.
</event>
<event>
 8    1  0.1042301E+005  0.1043930E+01  0.7957747E-01            NaN
         13   -1    0    0    0    0  0.00000000000E+00  0.00000000000E+00  0.74505805969E-08  0.10566000000E+00  0.10566000000E+00 0.  1.
     999900   -1    0    0    0    0 -0.00000000000E+00 -0.00000000000E+00 -0.74505805969E-08  0.93827000000E+00  0.93827000000E+00 0.  1.
     999902    2    1    2    0    0  0.23516925055E-01 -0.50608461638E-03  0.50567165447E-03  0.10204021954E+01  0.10201309145E+01 0.  0.
     999903    2    3    3    0    0  0.12333925582E+00 -0.42403660726E-01 -0.20709552381E-01  0.13351438381E+00  0.19661196714E-01 0.  0.
         14    1    1    2    0    0 -0.23516925055E-01  0.50608461638E-03 -0.50567165447E-03  0.23527804604E-01  0.00000000000E+00 0. -1.
     999901    1    3    3    0    0 -0.99822330764E-01  0.41897576110E-01  0.21215224035E-01  0.88688781158E+00  0.88000000000E+00 0.  1.
        -11    1    4    4    0    0  0.11545860320E+00 -0.43747143796E-01 -0.21958045077E-01  0.12540701140E+00  0.51100000000E-03 0. -1.
         11    1    4    4    0    0  0.78806526218E-02  0.13434830699E-02  0.12484926963E-02  0.81073724176E-02  0.51100000000E-03 0.  1.
</event>
<event>
 8    1  0.1042301E+005  0.1043930E+01  0.7957747E-01            NaN
         13   -1    0    0    0    0  0.00000000000E+00  0.00000000000E+00  0.74505805969E-08  0.10566000000E+00  0.10566000000E+00 0. -1.
     999900   -1    0    0    0    0 -0.00000000000E+00 -0.00000000000E+00 -0.74505805969E-08  0.93827000000E+00  0.93827000000E+00 0.  1.
     999902    2    1    2    0    0 -0.19520296351E-01 -0.14145021327E-01 -0.66502565510E-02  0.10189230108E+01  0.10186160967E+01 0.  0.
     999903    2    3    3    0    0 -0.59863573188E-01  0.62959116760E-02 -0.11500054141E+00  0.13112506306E+00  0.18584179830E-01 0.  0.
         14    1    1    2    0    0  0.19520296351E-01  0.14145021327E-01  0.66502565510E-02  0.25006989227E-01  0.00000000000E+00 0.  1.
     999901    1    3    3    0    0  0.40343276836E-01 -0.20440933003E-01  0.10835028486E+00  0.88779794771E+00  0.88000000000E+00 0. -1.
        -11    1    4    4    0    0 -0.34837868640E-01 -0.38342876247E-02 -0.53532736305E-01  0.63987450569E-01  0.51100000000E-03 0.  1.
         11    1    4    4    0    0 -0.25025704548E-01  0.10130199301E-01 -0.61467805106E-01  0.67137612495E-01  0.51100000000E-03 0. -1.
</event>
<event>
 8    1  0.1042301E+005  0.1043930E+01  0.7957747E-01            NaN
         13   -1    0    0    0    0  0.00000000000E+00  0.00000000000E+00  0.74505805969E-08  0.10566000000E+00  0.10566000000E+00 0. -1.
     999900   -1    0    0    0    0 -0.00000000000E+00 -0.00000000000E+00 -0.74505805969E-08  0.93827000000E+00  0.93827000000E+00 0. -1.
     999902    2    1    2    0    0 -0.18702621819E-01  0.69055923627E-02 -0.74501678116E-02  0.10226466669E+01  0.10224251684E+01 0.  0.
     999903    2    3    3    0    0 -0.35580466766E-01  0.16441175485E-01  0.12506771139E+00  0.13251365585E+00  0.19535984443E-01 0.  0.
         14    1    1    2    0    0  0.18702621819E-01 -0.69055923627E-02  0.74501678116E-02  0.21283333132E-01  0.00000000000E+00 0.  1.
     999901    1    3    3    0    0  0.16877844948E-01 -0.95355831225E-02 -0.13251787920E+00  0.89013301102E+00  0.88000000000E+00 0. -1.
        -11    1    4    4    0    0 -0.18555853784E-02 -0.90486055671E-04  0.33304389110E-01  0.33360078534E-01  0.51100000000E-03 0. -1.
         11    1    4    4    0    0 -0.33724881388E-01  0.16531661541E-01  0.91763322279E-01  0.99153577317E-01  0.51100000000E-03 0.  1.
</event>
<event>
 8    1  0.1042301E+005  0.1043930E+01  0.7957747E-01            NaN
         13   -1    0    0    0    0  0.00000000000E+00  0.00000000000E+00  0.74505805969E-08  0.10566000000E+00  0.10566000000E+00 0. -1.
     999900   -1    0    0    0    0 -0.00000000000E+00 -0.00000000000E+00 -0.74505805969E-08  0.93827000000E+00  0.93827000000E+00 0.  1.
     999902    2    1    2    0    0 -0.13415573314E-01 -0.32704771107E-02  0.19483389324E-01  0.10200495459E+01  0.10197699741E+01 0.  0.
     999903    2    3    3    0    0  0.77412004621E-01  0.83409695011E-01  0.60078389865E-01  0.13021188925E+00  0.19897926801E-01 0.  0.
         14    1    1    2    0    0  0.13415573314E-01  0.32704771107E-02 -0.19483389324E-01  0.23880454087E-01  0.00000000000E+00 0.  1.
     999901    1    3    3    0    0 -0.90827577935E-01 -0.86680172121E-01 -0.40595000541E-01  0.88983765667E+00  0.88000000000E+00 0.  1.
        -11    1    4    4    0    0  0.34593820045E-01  0.51107979699E-01  0.28633306331E-01  0.68035912036E-01  0.51100000000E-03 0. -1.
         11    1    4    4    0    0  0.42818184576E-01  0.32301715312E-01  0.31445083534E-01  0.62175977210E-01  0.51100000000E-03 0.  1.
</event>
<event>
 8    1  0.1042301E+005  0.1043930E+01  0.7957747E-01            NaN
         13   -1    0    0    0    0  0.00000000000E+00  0.00000000000E+00  0.74505805969E-08  0.10566000000E+00  0.10566000000E+00 0.  1.
     999900   -1    0    0    0    0 -0.00000000000E+00 -0.00000000000E+00 -0.74505805969E-08  0.93827000000E+00  0.93827000000E+00 0. -1.
     999902    2    1    2    0    0 -0.20224747716E-01  0.12729056809E-01 -0.16792673324E-02  0.10199740144E+01  0.10196926502E+01 0.  0.
     999903    2    3    3    0    0 -0.59489201832E-01 -0.58852848220E-01 -0.98611970258E-01  0.13089493165E+00  0.20162826566E-01 0.  0.
         14    1    1    2    0    0  0.20224747716E-01 -0.12729056809E-01  0.16792673324E-02  0.23955985602E-01  0.00000000000E+00 0. -1.
     999901    1    3    3    0    0  0.39264454115E-01  0.71581905028E-01  0.96932702926E-01  0.88907908275E+00  0.88000000000E+00 0.  1.
        -11    1    4    4    0    0 -0.20054655375E-01 -0.31829403477E-01 -0.35578331055E-01  0.51782032497E-01  0.51100000000E-03 0.  1.
         11    1    4    4    0    0 -0.39434546457E-01 -0.27023444743E-01 -0.63033639203E-01  0.79112899152E-01  0.51100000000E-03 0. -1.
</event>
<event>
 8    1  0.1042301E+005  0.1043930E+01  0.7957747E-01            NaN
         13   -1    0    0    0    0  0.00000000000E+00  0.00000000000E+00  0.74505805969E-08  0.10566000000E+00  0.10566000000E+00 0. -1.
     999900   -1    0    0    0    0 -0.00000000000E+00 -0.00000000000E+00 -0.74505805969E-08  0.93827000000E+00  0.93827000000E+00 0.  1.
     999902    2    1    2    0    0  0.19720062852E-01  0.85909856844E-02 -0.68153267573E-02  0.10213659890E+01  0.10211167166E+01 0.  0.
     999903    2    3    3    0    0 -0.47682691545E-01  0.42016673571E-01  0.11185381789E+00  0.13021910222E+00  0.20166756676E-01 0.  0.
         14    1    1    2    0    0 -0.19720062852E-01 -0.85909856844E-02  0.68153267573E-02  0.22564011007E-01  0.00000000000E+00 0.  1.
     999901    1    3    3    0    0  0.67402754397E-01 -0.33425687887E-01 -0.11866914465E+00  0.89114688677E+00  0.88000000000E+00 0.  1.
        -11    1    4    4    0    0 -0.22594985239E-01  0.21400165830E-01  0.35303977021E-01  0.47065192765E-01  0.51100000000E-03 0.  1.
         11    1    4    4    0    0 -0.25087706306E-01  0.20616507741E-01  0.76549840873E-01  0.83153909456E-01  0.51100000000E-03 0. -1.
</event>
<event>
 8    1  0.1042301E+005  0.1043930E+01  0.7957747E-01            NaN
         13   -1    0    0    0    0  0.00000000000E+00  0.00000000000E+00  0.74505805969E-08  0.10566000000E+00  0.10566000000E+00 0.  1.
     999900   -1    0    0    0    0 -0.00000000000E+00 -0.00000000000E+00 -0.74505805969E-08  0.93827000000E+00  0.93827000000E+00 0.  1.
     999902    2    1    2    0    0  0.16781804622E-02 -0.20750256924E-01  0.11016291900E-01  0.10203769081E+01  0.10201050369E+01 0.  0.
     999903    2    3    3    0    0  0.11282683766E+00 -0.62815106695E-01 -0.17795642517E-01  0.13192116739E+00  0.20270090948E-01 0.  0.
         14    1    1    2    0    0 -0.16781804622E-02  0.20750256924E-01 -0.11016291900E-01  0.23553091927E-01  0.00000000000E+00 0. -1.
     999901    1    3    3    0    0 -0.11114865720E+00  0.42064849770E-01  0.28811934417E-01  0.88845574068E+00  0.88000000000E+00 0.  1.
        -11    1    4    4    0    0  0.90745916438E-01 -0.45732070364E-01 -0.21153082925E-01  0.10379767651E+00  0.51100000000E-03 0.  1.
         11    1    4    4    0    0  0.22080921227E-01 -0.17083036330E-01  0.33574404084E-02  0.28123490885E-01  0.51100000000E-03 0. -1.
</event>
<event>
 8    1  0.1042301E+005  0.1043930E+01  0.7957747E-01            NaN
         13   -1    0    0    0    0  0.00000000000E+00  0.00000000000E+00  0.74505805969E-08  0.10566000000E+00  0.10566000000E+00 0.  1.
     999900   -1    0    0    0    0 -0.00000000000E+00 -0.00000000000E+00 -0.74505805969E-08  0.93827000000E+00  0.93827000000E+00 0.  1.
     999902    2    1    2    0    0  0.11221698657E-02  0.27147499002E-01  0.43015157641E-02  0.10164209287E+01  0.10160485989E+01 0.  0.
     999903    2    3    3    0    0 -0.70736904094E-01  0.88277390059E-01 -0.58917728062E-01  0.12912319799E+00  0.20121987538E-01 0.  0.
         14    1    1    2    0    0 -0.11221698657E-02 -0.27147499002E-01 -0.43015157641E-02  0.27509071325E-01  0.00000000000E+00 0. -1.
     999901    1    3    3    0    0  0.71859073959E-01 -0.61129891056E-01  0.63219243827E-01  0.88729773069E+00  0.88000000000E+00 0. -1.
        -11    1    4    4    0    0 -0.64311286491E-01  0.86890045256E-01 -0.53645957028E-01  0.12068128008E+00  0.51100000000E-03 0.  1.
         11    1    4    4    0    0 -0.64256176030E-02  0.13873448027E-02 -0.52717710345E-02  0.84419179113E-02  0.51100000000E-03 0. -1.
</event>
<event>
 8    1  0.1042301E+005  0.1043930E+01  0.7957747E-01            NaN
         13   -1    0    0    0    0  0.00000000000E+00  0.00000000000E+00  0.74505805969E-08  0.10566000000E+00  0.10566000000E+00 0.  1.
     999900   -1    0    0    0    0 -0.00000000000E+00 -0.00000000000E+00 -0.74505805969E-08  0.93827000000E+00  0.93827000000E+00 0. -1.
     999902    2    1    2    0    0 -0.16829818063E-02 -0.13052343312E-01 -0.19196143923E-01  0.10206558075E+01  0.10203904103E+01 0.  0.
     999903    2    3    3    0    0 -0.12080475656E+00 -0.44570181224E-01 -0.22164570080E-01  0.13206581047E+00  0.19230701117E-01 0.  0.
         14    1    1    2    0    0  0.16829818063E-02  0.13052343312E-01  0.19196143923E-01  0.23274192472E-01  0.00000000000E+00 0.  1.
     999901    1    3    3    0    0  0.11912177475E+00  0.31517837912E-01  0.29684261572E-02  0.88858999706E+00  0.88000000000E+00 0. -1.
        -11    1    4    4    0    0 -0.17640229398E-01 -0.12080755400E-01 -0.86278195093E-02  0.23061282158E-01  0.51100000000E-03 0. -1.
         11    1    4    4    0    0 -0.10316452716E+00 -0.32489425824E-01 -0.13536750571E-01  0.10900452831E+00  0.51100000000E-03 0.  1.
</event>
<event>
 8    1  0.1042301E+005  0.1043930E+01  0.7957747E-01            NaN
         13   -1    0    0    0    0  0.00000000000E+00  0.00000000000E+00  0.74505805969E-08  0.10566000000E+00  0.10566000000E+00 0. -1.
     999900   -1    0    0    0    0 -0.00000000000E+00 -0.00000000000E+00 -0.74505805969E-08  0.93827000000E+00  0.93827000000E+00 0.  1.
     999902    2    1    2    0    0 -0.14405208622E-01  0.15470803260E-01 -0.11707824993E-01  0.10197653780E+01  0.10194790323E+01 0.  0.
     999903    2    3    3    0    0  0.95724860913E-01 -0.41379825238E-01 -0.73057638408E-01  0.12896549827E+00  0.20472964618E-01 0.  0.
         14    1    1    2    0    0  0.14405208622E-01 -0.15470803260E-01  0.11707824993E-01  0.24164621971E-01  0.00000000000E+00 0. -1.
     999901    1    3    3    0    0 -0.11013006953E+00  0.56850628498E-01  0.61349813414E-01  0.89079987976E+00  0.88000000000E+00 0.  1.
        -11    1    4    4    0    0  0.73872883568E-01 -0.22046030358E-01 -0.53219772037E-01  0.93679430175E-01  0.51100000000E-03 0. -1.
         11    1    4    4    0    0  0.21851977345E-01 -0.19333794879E-01 -0.19837866370E-01  0.35286068093E-01  0.51100000000E-03 0.  1.
</event>
<event>
 8    1  0.1042301E+005  0.1043930E+01  0.7957747E-01            NaN
         13   -1    0    0    0    0  0.00000000000E+00  0.00000000000E+00  0.74505805969E-08  0.10566000000E+00  0.10566000000E+00 0. -1.
     999900   -1    0    0    0    0 -0.00000000000E+00 -0.00000000000E+00 -0.74505805969E-08  0.93827000000E+00  0.93827000000E+00 0. -1.
     999902    2    1    2    0    0  0.18126933472E-02 -0.21678702504E-01 -0.87286244087E-02  0.10204898446E+01  0.10202206046E+01 0.  0.
     999903    2    3    3    0    0 -0.38109031850E-01 -0.35729773316E-01 -0.12036817213E+00  0.13242759155E+00  0.17878901901E-01 0.  0.
         14    1    1    2    0    0 -0.18126933472E-02  0.21678702504E-01  0.87286244087E-02  0.23440155364E-01  0.00000000000E+00 0.  1.
     999901    1    3    3    0    0  0.39921725197E-01  0.14051070812E-01  0.11163954772E+00  0.88806225308E+00  0.88000000000E+00 0.  1.
        -11    1    4    4    0    0 -0.23714728370E-01 -0.14738867923E-01 -0.79675756764E-01  0.84428134566E-01  0.51100000000E-03 0.  1.
         11    1    4    4    0    0 -0.14394303480E-01 -0.20990905392E-01 -0.40692415366E-01  0.47999456988E-01  0.51100000000E-03 0. -1.
</event>
<event>
 8    1  0.1042301E+005  0.1043930E+01  0.7957747E-01            NaN
         13   -1    0    0    0    0  0.00000000000E+00  0.00000000000E+00  0.74505805969E-08  0.10566000000E+00  0.10566000000E+00 0. -1.
     999900   -1    0    0    0    0 -0.00000000000E+00 -0.00000000000E+00 -0.74505805969E-08  0.93827000000E+00  0.93827000000E+00 0.  1.
     999902    2    1    2    0    0  0.72247136781E-02  0.82407389920E-02  0.21020191614E-01  0.10202244158E+01  0.10199489712E+01 0.  0.
     999903    2    3    3    0    0  0.46973476315E-03 -0.11339872844E+00  0.62203375017E-01  0.13087755187E+00  0.20004535972E-01 0.  0.
         14    1    1    2    0    0 -0.72247136781E-02 -0.82407389920E-02 -0.21020191614E-01  0.23705584202E-01  0.00000000000E+00 0.  1.
     999901    1    3    3    0    0  0.67549789150E-02  0.12163946743E+00 -0.41183183403E-01  0.88934686392E+00  0.88000000000E+00 0.  1.
        -11    1    4    4    0    0  0.20105217355E-02 -0.20688519910E-01  0.20526675420E-01  0.29217504659E-01  0.51100000000E-03 0. -1.
         11    1    4    4    0    0 -0.15407869724E-02 -0.92710208526E-01  0.41676699597E-01  0.10166004721E+00  0.51100000000E-03 0.  1.
</event>
<event>
 8    1  0.1392212E+005  0.1043930E+01  0.7957747E-01            NaN
         13   -1    0    0    0    0  0.00000000000E+00  0.00000000000E+00  0.74505805969E-08  0.10566000000E+00  0.10566000000E+00 0.  1.
     999900   -1    0    0    0    0 -0.00000000000E+00 -0.00000000000E+00 -0.74505805969E-08  0.93827000000E+00  0.93827000000E+00 0.  1.
     999902    2    1    2    0    0  0.46033552335E-02  0.84138409864E-02 -0.23306925558E-01  0.10187268974E+01  0.10184150898E+01 0.  0.
     999903    2    3    3    0    0  0.72415338374E-01 -0.10208058588E+00 -0.25635185348E-01  0.12922540547E+00  0.19432329902E-01 0.  0.
         14    1    1    2    0    0 -0.46033552335E-02 -0.84138409864E-02  0.23306925558E-01  0.25203102558E-01  0.00000000000E+00 0.  1.
     999901    1    3    3    0    0 -0.67811983141E-01  0.11049442687E+00  0.23282597900E-02  0.88950149197E+00  0.88000000000E+00 0. -1.
        -11    1    4    4    0    0  0.42870670700E-01 -0.43831320354E-01 -0.13774019489E-01  0.62841576875E-01  0.51100000000E-03 0.  1.
         11    1    4    4    0    0  0.29544667674E-01 -0.58249265527E-01 -0.11861165860E-01  0.66383828595E-01  0.51100000000E-03 0. -1.
</event>
<event>
 8    1  0.1042301E+005  0.1043930E+01  0.7957747E-01            NaN
         13   -1    0    0    0    0  0.00000000000E+00  0.00000000000E+00  0.74505805969E-08  0.10566000000E+00  0.10566000000E+00 0. -1.
     999900   -1    0    0    0    0 -0.00000000000E+00 -0.00000000000E+00 -0.74505805969E-08  0.93827000000E+00  0.93827000000E+00 0. -1.
     999902    2    1    2    0    0  0.92596933832E-02 -0.20349081903E-01 -0.78085325481E-02  0.10202487788E+01  0.10199739068E+01 0.  0.
     999903    2    3    3    0    0 -0.11872994459E+00  0.41422358880E-01  0.16908264618E-01  0.12850443296E+00  0.20368807535E-01 0.  0.
         14    1    1    2    0    0 -0.92596933832E-02  0.20349081903E-01  0.78085325481E-02  0.23681221176E-01  0.00000000000E+00 0. -1.
     999901    1    3    3    0    0  0.12798963797E+00 -0.61771440783E-01 -0.24716797166E-01  0.89174434587E+00  0.88000000000E+00 0. -1.
        -11    1    4    4    0    0 -0.21313910519E-01  0.26044080200E-02 -0.32352824454E-02  0.21720817117E-01  0.51100000000E-03 0.  1.
         11    1    4    4    0    0 -0.97416034068E-01  0.38817950860E-01  0.20143547063E-01  0.10678361584E+00  0.51100000000E-03 0. -1.
</event>
<event>
 8    1  0.1042301E+005  0.1043930E+01  0.7957747E-01            NaN
         13   -1    0    0    0    0  0.00000000000E+00  0.00000000000E+00  0.74505805969E-08  0.10566000000E+00  0.10566000000E+00 0.  1.
     999900   -1    0    0    0    0 -0.00000000000E+00 -0.00000000000E+00 -0.74505805969E-08  0.93827000000E+00  0.93827000000E+00 0.  1.
     999902    2    1    2    0    0  0.12448508333E-01 -0.19387457404E-01  0.71017594110E-02  0.10198203785E+01  0.10195353503E+01 0.  0.
     999903    2    3    3    0    0  0.56102900050E-01  0.10486557621E+00 -0.43988576287E-01  0.12855456812E+00  0.21141373450E-01 0.  0.
         14    1    1    2    0    0 -0.12448508333E-01  0.19387457404E-01 -0.71017594110E-02  0.24109621545E-01  0.00000000000E+00 0.  1.
     999901    1    3    3    0    0 -0.43654391717E-01 -0.12425303362E+00  0.51090335698E-01  0.89126581034E+00  0.88000000000E+00 0. -1.
        -11    1    4    4    0    0  0.51257933655E-01  0.77097224712E-01 -0.34677624317E-01  0.98864334166E-01  0.51100000000E-03 0.  1.
         11    1    4    4    0    0  0.48449663954E-02  0.27768351499E-01 -0.93109519698E-02  0.29690233949E-01  0.51100000000E-03 0. -1.
</event>
<event>
 8    1  0.1042301E+005  0.1043930E+01  0.7957747E-01            NaN
         13   -1    0    0    0    0  0.00000000000E+00  0.00000000000E+00  0.74505805969E-08  0.10566000000E+00  0.10566000000E+00 0.  1.
     999900   -1    0    0    0    0 -0.00000000000E+00 -0.00000000000E+00 -0.74505805969E-08  0.93827000000E+00  0.93827000000E+00 0. -1.
     999902    2    1    2    0    0 -0.60548261794E-02  0.23259119184E-01 -0.44823609020E-02  0.10194812965E+01  0.10191880959E+01 0.  0.
     999903    2    3    3    0    0 -0.86739460249E-01 -0.47028554980E-01  0.80552893212E-01  0.12893014029E+00  0.19969815317E-01 0.  0.
         14    1    1    2    0    0  0.60548261794E-02 -0.23259119184E-01  0.44823609020E-02  0.24448703535E-01  0.00000000000E+00 0. -1.
     999901    1    3    3    0    0  0.80684634069E-01  0.70287674164E-01 -0.85035254114E-01  0.89055115617E+00  0.88000000000E+00 0. -1.
        -11    1    4    4    0    0 -0.23771659634E-01 -0.99295988939E-02  0.32444538020E-01  0.41431846498E-01  0.51100000000E-03 0.  1.
         11    1    4    4    0    0 -0.62967800615E-01 -0.37098956086E-01  0.48108355192E-01  0.87498293796E-01  0.51100000000E-03 0. -1.
</event>
<event>
 8    1  0.1042301E+005  0.1043930E+01  0.7957747E-01            NaN
         13   -1    0    0    0    0  0.00000000000E+00  0.00000000000E+00  0.74505805969E-08  0.10566000000E+00  0.10566000000E+00 0. -1.
     999900   -1    0    0    0    0 -0.00000000000E+00 -0.00000000000E+00 -0.74505805969E-08  0.93827000000E+00  0.93827000000E+00 0.  1.
     999902    2    1    2    0    0  0.20348848594E-01 -0.10219800160E-01  0.91520594333E-02  0.10193886034E+01  0.10190931482E+01 0.  0.
     999903    2    3    3    0    0 -0.31901407598E-01  0.11245973156E+00  0.49819194460E-01  0.12841488178E+00  0.18534796943E-01 0.  0.
         14    1    1    2    0    0 -0.20348848594E-01  0.10219800160E-01 -0.91520594333E-02  0.24541396584E-01  0.00000000000E+00 0.  1.
     999901    1    3    3    0    0  0.52250256192E-01 -0.12267953172E+00 -0.40667135027E-01  0.89097372164E+00  0.88000000000E+00 0. -1.
        -11    1    4    4    0    0 -0.15569689611E-01  0.26074277080E-01  0.14687746511E-01  0.33738319140E-01  0.51100000000E-03 0. -1.
         11    1    4    4    0    0 -0.16331717987E-01  0.86385454476E-01  0.35131447949E-01  0.94676562640E-01  0.51100000000E-03 0.  1.
</event>
<event>
 8    1  0.1042301E+005  0.1043930E+01  0.7957747E-01            NaN
         13   -1    0    0    0    0  0.00000000000E+00  0.00000000000E+00  0.74505805969E-08  0.10566000000E+00  0.10566000000E+00 0.  1.
     999900   -1    0    0    0    0 -0.00000000000E+00 -0.00000000000E+00 -0.74505805969E-08  0.93827000000E+00  0.93827000000E+00 0. -1.
     999902    2    1    2    0    0 -0.13253769948E-01 -0.83418750794E-02 -0.17559318823E-01  0.10204017409E+01  0.10201304495E+01 0.  0.
     999903    2    3    3    0    0  0.80707615994E-01 -0.63904816222E-01  0.74638699443E-01  0.12887694763E+00  0.20994936567E-01 0.  0.
         14    1    1    2    0    0  0.13253769948E-01  0.83418750794E-02  0.17559318823E-01  0.23528259077E-01  0.00000000000E+00 0.  1.
     999901    1    3    3    0    0 -0.93961385941E-01  0.55562941142E-01 -0.92198018265E-01  0.89152479329E+00  0.88000000000E+00 0. -1.
        -11    1    4    4    0    0  0.72627173637E-01 -0.58676243960E-01  0.58817190039E-01  0.11035094436E+00  0.51100000000E-03 0. -1.
         11    1    4    4    0    0  0.80804423563E-02 -0.52285722617E-02  0.15821509404E-01  0.18526003276E-01  0.51100000000E-03 0.  1.
</event>
<event>
 8    1  0.1042301E+005  0.1043930E+01  0.7957747E-01            NaN
         13   -1    0    0    0    0  0.00000000000E+00  0.00000000000E+00  0.74505805969E-08  0.10566000000E+00  0.10566000000E+00 0. -1.
     999900   -1    0    0    0    0 -0.00000000000E+00 -0.00000000000E+00 -0.74505805969E-08  0.93827000000E+00  0.93827000000E+00 0. -1.
     999902    2    1    2    0    0 -0.77402309199E-03  0.65341986906E-02  0.22177296673E-01  0.10207971802E+01  0.10205350341E+01 0.  0.
     999903    2    3    3    0    0 -0.46892500793E-01 -0.73700506810E-01 -0.92169907858E-01  0.12858655196E+00  0.20212325357E-01 0.  0.
         14    1    1    2    0    0  0.77402309199E-03 -0.65341986906E-02 -0.22177296673E-01  0.23132819803E-01  0.00000000000E+00 0.  1.
     999901    1    3    3    0    0  0.46118477701E-01  0.80234705501E-01  0.11434720453E+00  0.89221062824E+00  0.88000000000E+00 0.  1.
        -11    1    4    4    0    0 -0.24014178698E-01 -0.54445233330E-01 -0.65751833233E-01  0.88682179187E-01  0.51100000000E-03 0.  1.
         11    1    4    4    0    0 -0.22878322095E-01 -0.19255273480E-01 -0.26418074624E-01  0.39904372775E-01  0.51100000000E-03 0. -1.
</event>
<event>
 8    1  0.1042301E+005  0.1043930E+01  0.7957747E-01            NaN
         13   -1    0    0    0    0  0.00000000000E+00  0.00000000000E+00  0.74505805969E-08  0.10566000000E+00  0.10566000000E+00 0. -1.
     999900   -1    0    0    0    0 -0.00000000000E+00 -0.00000000000E+00 -0.74505805969E-08  0.93827000000E+00  0.93827000000E+00 0. -1.
     999902    2    1    2    0    0  0.44059680517E-02  0.21333776009E-01 -0.77377787938E-02  0.10208125656E+01  0.10205507720E+01 0.  0.
     999903    2    3    3    0    0  0.64895952319E-01  0.59659829944E-01  0.95847136145E-01  0.13184813479E+00  0.20651324541E-01 0.  0.
         14    1    1    2    0    0 -0.44059680517E-02 -0.21333776009E-01  0.77377787938E-02  0.23117434415E-01  0.00000000000E+00 0.  1.
     999901    1    3    3    0    0 -0.60489984268E-01 -0.38326053935E-01 -0.10358491494E+00  0.88896443079E+00  0.88000000000E+00 0.  1.
        -11    1    4    4    0    0  0.30865435655E-01  0.39845042799E-01  0.62127464820E-01  0.80002409712E-01  0.51100000000E-03 0.  1.
         11    1    4    4    0    0  0.34030516665E-01  0.19814787145E-01  0.33719671325E-01  0.51845725083E-01  0.51100000000E-03 0. -1.
</event>
<event>
 8    1  0.1042301E+005  0.1043930E+01  0.7957747E-01            NaN
         13   -1    0    0    0    0  0.00000000000E+00  0.00000000000E+00  0.74505805969E-08  0.10566000000E+00  0.10566000000E+00 0. -1.
     999900   -1    0    0    0    0 -0.00000000000E+00 -0.00000000000E+00 -0.74505805969E-08  0.93827000000E+00  0.93827000000E+00 0. -1.
     999902    2    1    2    0    0 -0.20371309374E-01  0.24890641644E-01 -0.66316244058E-02  0.10110892824E+01  0.10105557997E+01 0.  0.
     999903    2    3    3    0    0 -0.28127370490E-01 -0.61428207017E-01 -0.99566874399E-01  0.12196158588E+00  0.19912116009E-01 0.  0.
         14    1    1    2    0    0  0.20371309374E-01 -0.24890641644E-01  0.66316244058E-02  0.32840717552E-01  0.00000000000E+00 0.  1.
     999901    1    3    3    0    0  0.77560611160E-02  0.86318848661E-01  0.92935249994E-01  0.88912769657E+00  0.88000000000E+00 0. -1.
        -11    1    4    4    0    0 -0.29147294831E-01 -0.44135321908E-01 -0.78911660631E-01  0.94998961786E-01  0.51100000000E-03 0. -1.
         11    1    4    4    0    0  0.10199243412E-02 -0.17292885108E-01 -0.20655213769E-01  0.26962624091E-01  0.51100000000E-03 0.  1.
</event>
<event>
 8    1  0.1042301E+005  0.1043930E+01  0.7957747E-01            NaN
         13   -1    0    0    0    0  0.00000000000E+00  0.00000000000E+00  0.74505805969E-08  0.10566000000E+00  0.10566000000E+00 0.  1.
     999900   -1    0    0    0    0 -0.00000000000E+00 -0.00000000000E+00 -0.74505805969E-08  0.93827000000E+00  0.93827000000E+00 0. -1.
     999902    2    1    2    0    0 -0.31490992532E-03  0.99919660228E-02 -0.20425532116E-01  0.10211892675E+01  0.10209360309E+01 0.  0.
     999903    2    3    3    0    0 -0.79369181981E-01 -0.84097229533E-01  0.53925531440E-01  0.12954447537E+00  0.22405291649E-01 0.  0.
         14    1    1    2    0    0  0.31490992532E-03 -0.99919660228E-02  0.20425532116E-01  0.22740732519E-01  0.00000000000E+00 0.  1.
     999901    1    3    3    0    0  0.79054272056E-01  0.94089195555E-01 -0.74351063556E-01  0.89164479211E+00  0.88000000000E+00 0. -1.
        -11    1    4    4    0    0 -0.42151205508E-01 -0.50797106792E-01  0.19305035270E-01  0.68775109538E-01  0.51100000000E-03 0. -1.
         11    1    4    4    0    0 -0.37217976473E-01 -0.33300122740E-01  0.34620496170E-01  0.60769365829E-01  0.51100000000E-03 0.  1.
</event>
<event>
 8    1  0.1042301E+005  0.1043930E+01  0.7957747E-01            NaN
         13   -1    0    0    0    0  0.00000000000E+00  0.00000000000E+00  0.74505805969E-08  0.10566000000E+00  0.10566000000E+00 0.  1.
     999900   -1    0    0    0    0 -0.00000000000E+00 -0.00000000000E+00 -0.74505805969E-08  0.93827000000E+00  0.93827000000E+00 0. -1.
     999902    2    1    2    0    0  0.13920459778E-01 -0.22115669867E-01  0.16192778661E-01  0.10131877142E+01  0.10127212134E+01 0.  0.
     999903    2    3    3    0    0 -0.33295712560E-01 -0.67900799141E-01 -0.95921748906E-01  0.12363990084E+00  0.19149939130E-01 0.  0.
         14    1    1    2    0    0 -0.13920459778E-01  0.22115669867E-01 -0.16192778661E-01  0.30742285778E-01  0.00000000000E+00 0. -1.
     999901    1    3    3    0    0  0.47216172338E-01  0.45785129274E-01  0.11211452757E+00  0.88954781338E+00  0.88000000000E+00 0.  1.
        -11    1    4    4    0    0 -0.19361948003E-01 -0.19222290183E-01 -0.30827764411E-01  0.41170300581E-01  0.51100000000E-03 0. -1.
         11    1    4    4    0    0 -0.13933764557E-01 -0.48678508958E-01 -0.65093984495E-01  0.82469600263E-01  0.51100000000E-03 0.  1.
</event>
<event>
 8    1  0.1042301E+005  0.1043930E+01  0.7957747E-01            NaN
         13   -1    0    0    0    0  0.00000000000E+00  0.00000000000E+00  0.74505805969E-08  0.10566000000E+00  0.10566000000E+00 0.  1.
     999900   -1    0    0    0    0 -0.00000000000E+00 -0.00000000000E+00 -0.74505805969E-08  0.93827000000E+00  0.93827000000E+00 0. -1.
     999902    2    1    2    0    0 -0.20418882291E-01 -0.68693748408E-02  0.49965166619E-02  0.10218147509E+01  0.10215754015E+01 0.  0.
     999903    2    3    3    0    0  0.11544164838E+00  0.38308261114E-01  0.39653577161E-01  0.12957026957E+00  0.20536589906E-01 0.  0.
         14    1    1    2    0    0  0.20418882291E-01  0.68693748408E-02 -0.49965166619E-02  0.22115249116E-01  0.00000000000E+00 0. -1.
     999901    1    3    3    0    0 -0.13586053067E+00 -0.45177635955E-01 -0.34657060499E-01  0.89224448131E+00  0.88000000000E+00 0. -1.
        -11    1    4    4    0    0  0.35104904525E-01  0.21467652760E-01  0.10592441857E-01  0.42493239253E-01  0.51100000000E-03 0. -1.
         11    1    4    4    0    0  0.80336743857E-01  0.16840608354E-01  0.29061135303E-01  0.87077030321E-01  0.51100000000E-03 0.  1.
</event>
<event>
 8    1  0.1042301E+005  0.1043930E+01  0.7957747E-01            NaN
         13   -1    0    0    0    0  0.00000000000E+00  0.00000000000E+00  0.74505805969E-08  0.10566000000E+00  0.10566000000E+00 0.  1.
     999900   -1    0    0    0    0 -0.00000000000E+00 -0.00000000000E+00 -0.74505805969E-08  0.93827000000E+00  0.93827000000E+00 0.  1.
     999902    2    1    2    0    0 -0.98888049241E-02  0.18426020929E-01  0.10991793086E-01  0.10203053048E+01  0.10200317587E+01 0.  0.
     999903    2    3    3    0    0  0.57454769524E-01 -0.10726376862E+00  0.36225066455E-01  0.12847023127E+00  0.19641239319E-01 0.  0.
         14    1    1    2    0    0  0.98888049241E-02 -0.18426020929E-01 -0.10991793086E-01  0.23624695244E-01  0.00000000000E+00 0.  1.
     999901    1    3    3    0    0 -0.67343574448E-01  0.12568978955E+00 -0.25233273369E-01  0.89183507349E+00  0.88000000000E+00 0.  1.
        -11    1    4    4    0    0  0.24843975153E-01 -0.32582898500E-01  0.19045774131E-01  0.45187066837E-01  0.51100000000E-03 0.  1.
         11    1    4    4    0    0  0.32610794371E-01 -0.74680870125E-01  0.17179292324E-01  0.83283164432E-01  0.51100000000E-03 0. -1.
</event>
<event>
 8    1  0.1042301E+005  0.1043930E+01  0.7957747E-01            NaN
         13   -1    0    0    0    0  0.00000000000E+00  0.00000000000E+00  0.74505805969E-08  0.10566000000E+00  0.10566000000E+00 0. -1.
     999900   -1    0    0    0    0 -0.00000000000E+00 -0.00000000000E+00 -0.74505805969E-08  0.93827000000E+00  0.93827000000E+00 0. -1.
     999902    2    1    2    0    0 -0.57798875240E-02  0.20669960962E-01 -0.97234529673E-02  0.10203673193E+01  0.10200952241E+01 0.  0.
     999903    2    3    3    0    0  0.11144983176E+00  0.59029999063E-01  0.29069970307E-01  0.13091848470E+00  0.19722592993E-01 0.  0.
         14    1    1    2    0    0  0.57798875240E-02 -0.20669960962E-01  0.97234529673E-02  0.23562680738E-01  0.00000000000E+00 0. -1.
     999901    1    3    3    0    0 -0.11722971929E+00 -0.38360038101E-01 -0.38793423274E-01  0.88944883456E+00  0.88000000000E+00 0. -1.
        -11    1    4    4    0    0  0.93902596309E-01  0.40943721638E-01  0.23719079262E-01  0.10515199369E+00  0.51100000000E-03 0. -1.
         11    1    4    4    0    0  0.17547235452E-01  0.18086277425E-01  0.53508910447E-02  0.25766491013E-01  0.51100000000E-03 0.  1.
</event>
<event>
 8    1  0.1042301E+005  0.1043930E+01  0.7957747E-01            NaN
         13   -1    0    0    0    0  0.00000000000E+00  0.00000000000E+00  0.74505805969E-08  0.10566000000E+00  0.10566000000E+00 0.  1.
     999900   -1    0    0    0    0 -0.00000000000E+00 -0.00000000000E+00 -0.74505805969E-08  0.93827000000E+00  0.93827000000E+00 0. -1.
     999902    2    1    2    0    0  0.19326631187E-01 -0.14144301799E-01  0.19269783659E-03  0.10199796956E+01  0.10196984664E+01 0.  0.
     999903    2    3    3    0    0  0.10866943814E+00 -0.17463947106E-01 -0.66277664645E-01  0.13295575781E+00  0.34212109980E-01 0.  0.
         14    1    1    2    0    0 -0.19326631187E-01  0.14144301799E-01 -0.19269783659E-03  0.23950304359E-01  0.00000000000E+00 0. -1.
     999901    1    3    3    0    0 -0.89342806955E-01  0.33196453072E-02  0.66470362482E-01  0.88702393783E+00  0.88000000000E+00 0.  1.
        -11    1    4    4    0    0  0.90032005033E-01 -0.12078404482E-01 -0.37567184899E-01  0.98301598601E-01  0.51100000000E-03 0. -1.
         11    1    4    4    0    0  0.18637433108E-01 -0.53855426236E-02 -0.28710479746E-01  0.34654159208E-01  0.51100000000E-03 0.  1.
</event>
<event>
 7    1  0.1042301E+005  0.1043930E+01  0.7957747E-01            NaN
         13   -1    0    0    0    0  0.00000000000E+00  0.00000000000E+00  0.74505805969E-08  0.10566000000E+00  0.10566000000E+00 0. -1.
     999900   -1    0    0    0    0 -0.00000000000E+00 -0.00000000000E+00 -0.74505805969E-08  0.93827000000E+00  0.93827000000E+00 0.  1.
     999903    2    1    2    0    0  0.61375967791E-01 -0.77239121656E-01  0.57643335283E-01  0.11529566954E+00  0.15409282090E-01 0.  0.
         14    1    1    2    0    0  0.28676904219E-01  0.22246955051E-01 -0.20207372421E-01  0.41540699859E-01  0.00000000000E+00 0. -1.
     999901    1    1    2    0    0 -0.90052872010E-01  0.54992166605E-01 -0.37435962862E-01  0.88709363061E+00  0.88000000000E+00 0. -1.
        -11    1    3    3    0    0  0.17229030162E-01 -0.18208737267E-01  0.22261995721E-01  0.33529914519E-01  0.51100000000E-03 0.  1.
         11    1    3    3    0    0  0.44146937629E-01 -0.59030384389E-01  0.35381339563E-01  0.81765755017E-01  0.51100000000E-03 0. -1.
</event>
<event>
 8    1  0.1042301E+005  0.1043930E+01  0.7957747E-01            NaN
         13   -1    0    0    0    0  0.00000000000E+00  0.00000000000E+00  0.74505805969E-08  0.10566000000E+00  0.10566000000E+00 0.  1.
     999900   -1    0    0    0    0 -0.00000000000E+00 -0.00000000000E+00 -0.74505805969E-08  0.93827000000E+00  0.93827000000E+00 0. -1.
     999902    2    1    2    0    0  0.92132420728E-02 -0.16508591882E-01 -0.14461330148E-01  0.10201277416E+01  0.10198500192E+01 0.  0.
     999903    2    3    3    0    0 -0.41844980991E-01 -0.23933322618E-01 -0.12144250182E+00  0.13214855273E+00  0.19777572510E-01 0.  0.
         14    1    1    2    0    0 -0.92132420728E-02  0.16508591882E-01  0.14461330148E-01  0.23802258403E-01  0.00000000000E+00 0.  1.
     999901    1    3    3    0    0  0.51058223064E-01  0.74247307367E-02  0.10698117167E+00  0.88797918887E+00  0.88000000000E+00 0.  1.
        -11    1    4    4    0    0 -0.15095858593E-01 -0.15710847974E-01 -0.34455847233E-01  0.40769869024E-01  0.51100000000E-03 0. -1.
         11    1    4    4    0    0 -0.26749122398E-01 -0.82224746443E-02 -0.86986654589E-01  0.91378683706E-01  0.51100000000E-03 0.  1.
</event>
<event>
 8    1  0.1042301E+005  0.1043930E+01  0.7957747E-01            NaN
         13   -1    0    0    0    0  0.00000000000E+00  0.00000000000E+00  0.74505805969E-08  0.10566000000E+00  0.10566000000E+00 0.  1.
     999900   -1    0    0    0    0 -0.00000000000E+00 -0.00000000000E+00 -0.74505805969E-08  0.93827000000E+00  0.93827000000E+00 0. -1.
     999902    2    1    2    0    0 -0.83542823582E-02 -0.22266921247E-01  0.18174859367E-02  0.10200781013E+01  0.10197992056E+01 0.  0.
     999903    2    3    3    0    0  0.30720098503E-01 -0.32942047706E-02 -0.12466117203E+00  0.12997494880E+00  0.19962546602E-01 0.  0.
         14    1    1    2    0    0  0.83542823582E-02  0.22266921247E-01 -0.18174859367E-02  0.23851898681E-01  0.00000000000E+00 0. -1.
     999901    1    3    3    0    0 -0.39074380861E-01 -0.18972716477E-01  0.12647865796E+00  0.89010315252E+00  0.88000000000E+00 0.  1.
        -11    1    4    4    0    0  0.15673995756E-01  0.66276809822E-02 -0.80388545810E-01  0.82171647888E-01  0.51100000000E-03 0. -1.
         11    1    4    4    0    0  0.15046102747E-01 -0.99218857528E-02 -0.44272626216E-01  0.47803300909E-01  0.51100000000E-03 0.  1.
</event>
<event>
 8    1  0.1042301E+005  0.1043930E+01  0.7957747E-01            NaN
         13   -1    0    0    0    0  0.00000000000E+00  0.00000000000E+00  0.74505805969E-08  0.10566000000E+00  0.10566000000E+00 0.  1.
     999900   -1    0    0    0    0 -0.00000000000E+00 -0.00000000000E+00 -0.74505805969E-08  0.93827000000E+00  0.93827000000E+00 0. -1.
     999902    2    1    2    0    0 -0.22312726531E-01  0.37202329751E-02 -0.62948793384E-02  0.10204497231E+01  0.10201795498E+01 0.  0.
     999903    2    3    3    0    0  0.48408396904E-01  0.11511153067E+00 -0.31043924109E-01  0.13026883487E+00  0.20302874972E-01 0.  0.
         14    1    1    2    0    0  0.22312726531E-01 -0.37202329751E-02  0.62948793384E-02  0.23480276926E-01  0.00000000000E+00 0.  1.
     999901    1    3    3    0    0 -0.70721123435E-01 -0.11139129769E+00  0.24749044770E-01  0.89018088820E+00  0.88000000000E+00 0. -1.
        -11    1    4    4    0    0  0.13358857507E-01  0.44995608699E-01 -0.30800899339E-02  0.47040535192E-01  0.51100000000E-03 0.  1.
         11    1    4    4    0    0  0.35049539396E-01  0.70115921967E-01 -0.27963834175E-01  0.83228299682E-01  0.51100000000E-03 0. -1.
</event>
<event>
 8    1  0.1042301E+005  0.1043930E+01  0.7957747E-01            NaN
         13   -1    0    0    0    0  0.00000000000E+00  0.00000000000E+00  0.74505805969E-08  0.10566000000E+00  0.10566000000E+00 0.  1.
     999900   -1    0    0    0    0 -0.00000000000E+00 -0.00000000000E+00 -0.74505805969E-08  0.93827000000E+00  0.93827000000E+00 0. -1.
     999902    2    1    2    0    0 -0.54615950854E-02  0.22502347582E-01  0.22219990053E-02  0.10206679720E+01  0.10204028553E+01 0.  0.
     999903    2    3    3    0    0  0.30172845135E-01  0.12844710866E+00 -0.75882916304E-02  0.13354320763E+00  0.19161049772E-01 0.  0.
         14    1    1    2    0    0  0.54615950854E-02 -0.22502347582E-01 -0.22219990053E-02  0.23262028010E-01  0.00000000000E+00 0. -1.
     999901    1    3    3    0    0 -0.35634440220E-01 -0.10594476108E+00  0.98102906357E-02  0.88712476436E+00  0.88000000000E+00 0.  1.
        -11    1    4    4    0    0  0.22376615525E-01  0.54206593092E-01 -0.47717208135E-02  0.58839596341E-01  0.51100000000E-03 0. -1.
         11    1    4    4    0    0  0.77962296094E-02  0.74240515569E-01 -0.28165708169E-02  0.74703611294E-01  0.51100000000E-03 0.  1.
</event>
<event>
 8    1  0.1042301E+005  0.1043930E+01  0.7957747E-01            NaN
         13   -1    0    0    0    0  0.00000000000E+00  0.00000000000E+00  0.74505805969E-08  0.10566000000E+00  0.10566000000E+00 0. -1.
     999900   -1    0    0    0    0 -0.00000000000E+00 -0.00000000000E+00 -0.74505805969E-08  0.93827000000E+00  0.93827000000E+00 0. -1.
     999902    2    1    2    0    0  0.56152072941E-02 -0.15726019494E-01 -0.22768975026E-01  0.10156941280E+01  0.10153015795E+01 0.  0.
     999903    2    3    3    0    0 -0.47253570865E-01 -0.44527460269E-01  0.10357160457E+00  0.12463488603E+00  0.24314252314E-01 0.  0.
         14    1    1    2    0    0 -0.56152072941E-02  0.15726019494E-01  0.22768975026E-01  0.28235871968E-01  0.00000000000E+00 0. -1.
     999901    1    3    3    0    0  0.52868778159E-01  0.28801440776E-01 -0.12634057960E+00  0.89105924200E+00  0.88000000000E+00 0. -1.
        -11    1    4    4    0    0 -0.32722825333E-01 -0.14155462681E-01  0.52922863806E-01  0.63814191650E-01  0.51100000000E-03 0. -1.
         11    1    4    4    0    0 -0.14530745532E-01 -0.30371997588E-01  0.50648740767E-01  0.60820694385E-01  0.51100000000E-03 0.  1.
</event>
<event>
 8    1  0.1042301E+005  0.1043930E+01  0.7957747E-01            NaN
         13   -1    0    0    0    0  0.00000000000E+00  0.00000000000E+00  0.74505805969E-08  0.10566000000E+00  0.10566000000E+00 0.  1.
     999900   -1    0    0    0    0 -0.00000000000E+00 -0.00000000000E+00 -0.74505805969E-08  0.93827000000E+00  0.93827000000E+00 0.  1.
     999902    2    1    2    0    0  0.39159865033E-02 -0.15945861394E-01 -0.14730555963E-01  0.10218711078E+01  0.10216329900E+01 0.  0.
     999903    2    3    3    0    0  0.46114309367E-01  0.38340937370E-01  0.11328450985E+00  0.12995428879E+00  0.21405139445E-01 0.  0.
         14    1    1    2    0    0 -0.39159865033E-02  0.15945861394E-01  0.14730555963E-01  0.22058892195E-01  0.00000000000E+00 0. -1.
     999901    1    3    3    0    0 -0.42198322863E-01 -0.54286798764E-01 -0.12801506582E+00  0.89191681902E+00  0.88000000000E+00 0.  1.
        -11    1    4    4    0    0  0.37275666540E-01  0.31448794134E-01  0.70522724827E-01  0.85745074532E-01  0.51100000000E-03 0.  1.
         11    1    4    4    0    0  0.88386428264E-02  0.68921432362E-02  0.42761785026E-01  0.44209214254E-01  0.51100000000E-03 0. -1.
</event>
<event>
 8    1  0.1042301E+005  0.1043930E+01  0.7957747E-01            NaN
         13   -1    0    0    0    0  0.00000000000E+00  0.00000000000E+00  0.74505805969E-08  0.10566000000E+00  0.10566000000E+00 0.  1.
     999900   -1    0    0    0    0 -0.00000000000E+00 -0.00000000000E+00 -0.74505805969E-08  0.93827000000E+00  0.93827000000E+00 0. -1.
     999902    2    1    2    0    0 -0.17779862650E-01  0.10599174697E-01  0.11592756070E-01  0.10202053712E+01  0.10199294786E+01 0.  0.
     999903    2    3    3    0    0  0.12491061658E-01 -0.15506708069E-01  0.12854913167E+00  0.13156785239E+00  0.19716386963E-01 0.  0.
         14    1    1    2    0    0  0.17779862650E-01 -0.10599174697E-01 -0.11592756070E-01  0.23724628836E-01  0.00000000000E+00 0.  1.
     999901    1    3    3    0    0 -0.30270924308E-01  0.26105882766E-01 -0.11695637560E+00  0.88863751877E+00  0.88000000000E+00 0. -1.
        -11    1    4    4    0    0  0.14623503187E-01 -0.14942625998E-01  0.72064846438E-01  0.75038204472E-01  0.51100000000E-03 0.  1.
         11    1    4    4    0    0 -0.21324415291E-02 -0.56408207073E-03  0.56484285228E-01  0.56529647922E-01  0.51100000000E-03 0. -1.
</event>
<event>
 8    1  0.1042301E+005  0.1043930E+01  0.7957747E-01            NaN
         13   -1    0    0    0    0  0.00000000000E+00  0.00000000000E+00  0.74505805969E-08  0.10566000000E+00  0.10566000000E+00 0.  1.
     999900   -1    0    0    0    0 -0.00000000000E+00 -0.00000000000E+00 -0.74505805969E-08  0.93827000000E+00  0.93827000000E+00 0. -1.
     999902    2    1    2    0    0 -0.12446126540E-01  0.15176996143E-01 -0.10042460449E-01  0.10218823632E+01  0.10216444909E+01 0.  0.
     999903    2    3    3    0    0 -0.88080959131E-01 -0.74350319243E-01  0.59648279522E-01  0.13138106203E+00  0.20416681345E-01 0.  0.
         14    1    1    2    0    0  0.12446126540E-01 -0.15176996143E-01  0.10042460449E-01  0.22047636827E-01  0.00000000000E+00 0. -1.
     999901    1    3    3    0    0  0.75634832591E-01  0.89527315386E-01 -0.69690739971E-01  0.89050130114E+00  0.88000000000E+00 0. -1.
        -11    1    4    4    0    0 -0.15786553334E-01 -0.24777137376E-01  0.15947062803E-01  0.33431896982E-01  0.51100000000E-03 0.  1.
         11    1    4    4    0    0 -0.72294405797E-01 -0.49573181866E-01  0.43701216719E-01  0.97949165048E-01  0.51100000000E-03 0. -1.
</event>
<event>
 8    1  0.1042301E+005  0.1043930E+01  0.7957747E-01            NaN
         13   -1    0    0    0    0  0.00000000000E+00  0.00000000000E+00  0.74505805969E-08  0.10566000000E+00  0.10566000000E+00 0. -1.
     999900   -1    0    0    0    0 -0.00000000000E+00 -0.00000000000E+00 -0.74505805969E-08  0.93827000000E+00  0.93827000000E+00 0. -1.
     999902    2    1    2    0    0 -0.17344794937E-02  0.21780476279E-01 -0.18395826446E-02  0.10220032668E+01  0.10217680244E+01 0.  0.
     999903    2    3    3    0    0 -0.61784985584E-01 -0.63655234805E-01  0.93429026658E-01  0.13072248501E+00  0.22136207961E-01 0.  0.
         14    1    1    2    0    0  0.17344794937E-02 -0.21780476279E-01  0.18395826446E-02  0.21926733235E-01  0.00000000000E+00 0. -1.
     999901    1    3    3    0    0  0.60050506090E-01  0.85435711084E-01 -0.95268609303E-01  0.89128078176E+00  0.88000000000E+00 0. -1.
        -11    1    4    4    0    0 -0.29807674563E-01 -0.42274010272E-01  0.42822209788E-01  0.67153497150E-01  0.51100000000E-03 0. -1.
         11    1    4    4    0    0 -0.31977311021E-01 -0.21381224532E-01  0.50606816870E-01  0.63568987859E-01  0.51100000000E-03 0.  1.
</event>
<event>
 8    1  0.1042301E+005  0.1043930E+01  0.7957747E-01            NaN
         13   -1    0    0    0    0  0.00000000000E+00  0.00000000000E+00  0.74505805969E-08  0.10566000000E+00  0.10566000000E+00 0. -1.
     999900   -1    0    0    0    0 -0.00000000000E+00 -0.00000000000E+00 -0.74505805969E-08  0.93827000000E+00  0.93827000000E+00 0.  1.
     999902    2    1    2    0    0 -0.23150225766E-01 -0.65655106110E-03  0.14539569637E-02  0.10207248712E+01  0.10204610647E+01 0.  0.
     999903    2    3    3    0    0 -0.64757316376E-01  0.65566306432E-01 -0.92845420865E-01  0.13223796104E+00  0.19343102164E-01 0.  0.
         14    1    1    2    0    0  0.23150225766E-01  0.65655106110E-03 -0.14539569637E-02  0.23205128812E-01  0.00000000000E+00 0. -1.
     999901    1    3    3    0    0  0.41607090610E-01 -0.66222857493E-01  0.94299377829E-01  0.88848691015E+00  0.88000000000E+00 0. -1.
        -11    1    4    4    0    0 -0.18477715195E-01  0.20758677387E-01 -0.16414968726E-01  0.32280969083E-01  0.51100000000E-03 0.  1.
         11    1    4    4    0    0 -0.46279601182E-01  0.44807629046E-01 -0.76430452139E-01  0.99956991958E-01  0.51100000000E-03 0. -1.
</event>
<event>
 8    1  0.1042301E+005  0.1043930E+01  0.7957747E-01            NaN
         13   -1    0    0    0    0  0.00000000000E+00  0.00000000000E+00  0.74505805969E-08  0.10566000000E+00  0.10566000000E+00 0.  1.
     999900   -1    0    0    0    0 -0.00000000000E+00 -0.00000000000E+00 -0.74505805969E-08  0.93827000000E+00  0.93827000000E+00 0.  1.
     999902    2    1    2    0    0 -0.20238301119E-01  0.46276679912E-02 -0.65020832268E-02  0.10221749723E+01  0.10219434391E+01 0.  0.
     999903    2    3    3    0    0 -0.22046439235E-01 -0.12268407675E+00  0.37769952443E-01  0.13191008878E+00  0.20887174140E-01 0.  0.
         14    1    1    2    0    0  0.20238301119E-01 -0.46276679912E-02  0.65020832268E-02  0.21755027684E-01  0.00000000000E+00 0.  1.
     999901    1    3    3    0    0  0.18081381162E-02  0.12731174474E+00 -0.44272035669E-01  0.89026488353E+00  0.88000000000E+00 0.  1.
        -11    1    4    4    0    0 -0.70703577410E-02 -0.91488945260E-01  0.28372653157E-01  0.96049391625E-01  0.51100000000E-03 0. -1.
         11    1    4    4    0    0 -0.14976081494E-01 -0.31195131492E-01  0.93972992855E-02  0.35860697157E-01  0.51100000000E-03 0.  1.
</event>
<event>
 8    1  0.1042301E+005  0.1043930E+01  0.7957747E-01            NaN
         13   -1    0    0    0    0  0.00000000000E+00  0.00000000000E+00  0.74505805969E-08  0.10566000000E+00  0.10566000000E+00 0.  1.
     999900   -1    0    0    0    0 -0.00000000000E+00 -0.00000000000E+00 -0.74505805969E-08  0.93827000000E+00  0.93827000000E+00 0. -1.
     999902    2    1    2    0    0  0.16073568866E-01 -0.16599079215E-01 -0.26771401570E-02  0.10206693868E+01  0.10204043027E+01 0.  0.
     999903    2    3    3    0    0  0.76698682983E-01 -0.92235469913E-01  0.55089183600E-01  0.13346410266E+00  0.19692096546E-01 0.  0.
         14    1    1    2    0    0 -0.16073568866E-01  0.16599079215E-01  0.26771401570E-02  0.23260613197E-01  0.00000000000E+00 0. -1.
     999901    1    3    3    0    0 -0.60625114117E-01  0.75636390699E-01 -0.57766323757E-01  0.88720528415E+00  0.88000000000E+00 0. -1.
        -11    1    4    4    0    0  0.26851887163E-01 -0.18829288835E-01  0.13514830128E-01  0.35475029480E-01  0.51100000000E-03 0.  1.
         11    1    4    4    0    0  0.49846795821E-01 -0.73406181079E-01  0.41574353473E-01  0.97989073176E-01  0.51100000000E-03 0. -1.
</event>
<event>
 8    1  0.1042301E+005  0.1043930E+01  0.7957747E-01            NaN
         13   -1    0    0    0    0  0.00000000000E+00  0.00000000000E+00  0.74505805969E-08  0.10566000000E+00  0.10566000000E+00 0. -1.
     999900   -1    0    0    0    0 -0.00000000000E+00 -0.00000000000E+00 -0.74505805969E-08  0.93827000000E+00  0.93827000000E+00 0. -1.
     999902    2    1    2    0    0  0.17689929944E-01  0.13376698342E-01  0.96667614327E-02  0.10197366960E+01  0.10194496620E+01 0.  0.
     999903    2    3    3    0    0  0.94333135814E-01 -0.78065101825E-01  0.41421018252E-01  0.13111747689E+00  0.21981614052E-01 0.  0.
         14    1    1    2    0    0 -0.17689929944E-01 -0.13376698342E-01 -0.96667614327E-02  0.24193303961E-01  0.00000000000E+00 0. -1.
     999901    1    3    3    0    0 -0.76643205870E-01  0.91441800167E-01 -0.31754256819E-01  0.88861921915E+00  0.88000000000E+00 0. -1.
        -11    1    4    4    0    0  0.19281236081E-01 -0.21583568957E-01  0.12983514338E-02  0.28975219605E-01  0.51100000000E-03 0.  1.
         11    1    4    4    0    0  0.75051899733E-01 -0.56481532867E-01  0.40122666818E-01  0.10214225728E+00  0.51100000000E-03 0. -1.
</event>
<event>
 8    1  0.1042301E+005  0.1043930E+01  0.7957747E-01            NaN
         13   -1    0    0    0    0  0.00000000000E+00  0.00000000000E+00  0.74505805969E-08  0.10566000000E+00  0.10566000000E+00 0. -1.
     999900   -1    0    0    0    0 -0.00000000000E+00 -0.00000000000E+00 -0.74505805969E-08  0.93827000000E+00  0.93827000000E+00 0. -1.
     999902    2    1    2    0    0  0.76770271561E-02 -0.22401349335E-01 -0.17620722298E-02  0.10201842194E+01  0.10199078289E+01 0.  0.
     999903    2    3    3    0    0 -0.80765735858E-02 -0.93092430772E-01 -0.91878929574E-01  0.13262213542E+00  0.20382870163E-01 0.  0.
         14    1    1    2    0    0 -0.76770271561E-02  0.22401349335E-01  0.17620722298E-02  0.23745780604E-01  0.00000000000E+00 0. -1.
     999901    1    3    3    0    0  0.15753600742E-01  0.70691081437E-01  0.90116857344E-01  0.88756208397E+00  0.88000000000E+00 0.  1.
        -11    1    4    4    0    0  0.58847614940E-02 -0.42973091392E-01 -0.37194592175E-01  0.57140316849E-01  0.51100000000E-03 0. -1.
         11    1    4    4    0    0 -0.13961335080E-01 -0.50119339381E-01 -0.54684337399E-01  0.75481818572E-01  0.51100000000E-03 0.  1.
</event>
<event>
 8    1  0.1042301E+005  0.1043930E+01  0.7957747E-01            NaN
         13   -1    0    0    0    0  0.00000000000E+00  0.00000000000E+00  0.74505805969E-08  0.10566000000E+00  0.10566000000E+00 0.  1.
     999900   -1    0    0    0    0 -0.00000000000E+00 -0.00000000000E+00 -0.74505805969E-08  0.93827000000E+00  0.93827000000E+00 0.  1.
     999902    2    1    2    0    0  0.57071794334E-02  0.21914360899E-01 -0.64286351893E-02  0.10203898543E+01  0.10201182854E+01 0.  0.
     999903    2    3    3    0    0  0.54279014198E-01  0.97925586746E-01 -0.69116468976E-01  0.13356027983E+00  0.22926625208E-01 0.  0.
         14    1    1    2    0    0 -0.57071794334E-02 -0.21914360899E-01  0.64286351893E-02  0.23540145732E-01  0.00000000000E+00 0. -1.
     999901    1    3    3    0    0 -0.48571834765E-01 -0.76011225847E-01  0.62687833787E-01  0.88682957443E+00  0.88000000000E+00 0.  1.
        -11    1    4    4    0    0  0.39551518733E-01  0.53338108598E-01 -0.32048784308E-01  0.73733724709E-01  0.51100000000E-03 0. -1.
         11    1    4    4    0    0  0.14727495465E-01  0.44587478148E-01 -0.37067684668E-01  0.59826555124E-01  0.51100000000E-03 0.  1.
</event>
<event>
 8    1  0.1042301E+005  0.1043930E+01  0.7957747E-01            NaN
         13   -1    0    0    0    0  0.00000000000E+00  0.00000000000E+00  0.74505805969E-08  0.10566000000E+00  0.10566000000E+00 0. -1.
     999900   -1    0    0    0    0 -0.00000000000E+00 -0.00000000000E+00 -0.74505805969E-08  0.93827000000E+00  0.93827000000E+00 0. -1.
     999902    2    1    2    0    0 -0.90903717406E-03  0.12421367645E-01 -0.19668872360E-01  0.10206495090E+01  0.10203839664E+01 0.  0.
     999903    2    3    3    0    0 -0.10991008301E+00 -0.17833834928E-01  0.63325849473E-01  0.12953519019E+00  0.19259550133E-01 0.  0.
         14    1    1    2    0    0  0.90903717406E-03 -0.12421367645E-01  0.19668872360E-01  0.23280491031E-01  0.00000000000E+00 0. -1.
     999901    1    3    3    0    0  0.10900104584E+00  0.30255202572E-01 -0.82994721833E-01  0.89111431878E+00  0.88000000000E+00 0. -1.
        -11    1    4    4    0    0 -0.11363881366E-01 -0.73949489460E-02  0.45146966726E-02  0.14299184476E-01  0.51100000000E-03 0. -1.
         11    1    4    4    0    0 -0.98546201643E-01 -0.10438885981E-01  0.58811152800E-01  0.11523600572E+00  0.51100000000E-03 0.  1.
</event>
<event>
 8    1  0.1042301E+005  0.1043930E+01  0.7957747E-01            NaN
         13   -1    0    0    0    0  0.00000000000E+00  0.00000000000E+00  0.74505805969E-08  0.10566000000E+00  0.10566000000E+00 0. -1.
     999900   -1    0    0    0    0 -0.00000000000E+00 -0.00000000000E+00 -0.74505805969E-08  0.93827000000E+00  0.93827000000E+00 0. -1.
     999902    2    1    2    0    0 -0.23139436000E-02 -0.79087450375E-02  0.21505409496E-01  0.10208999062E+01  0.10206401096E+01 0.  0.
     999903    2    3    3    0    0 -0.12218699147E+00 -0.17394018824E-01  0.43626413156E-01  0.13244683663E+00  0.20166502692E-01 0.  0.
         14    1    1    2    0    0  0.23139436000E-02  0.79087450375E-02 -0.21505409496E-01  0.23030093805E-01  0.00000000000E+00 0.  1.
     999901    1    3    3    0    0  0.11987304787E+00  0.94852737862E-02 -0.22121003659E-01  0.88845306957E+00  0.88000000000E+00 0.  1.
        -11    1    4    4    0    0 -0.73873928084E-01 -0.14290910103E-01  0.36075160666E-01  0.83446184455E-01  0.51100000000E-03 0. -1.
         11    1    4    4    0    0 -0.48313063391E-01 -0.31031087207E-02  0.75512524903E-02  0.49000652170E-01  0.51100000000E-03 0.  1.
</event>
<event>
 8    1  0.1042301E+005  0.1043930E+01  0.7957747E-01            NaN
         13   -1    0    0    0    0  0.00000000000E+00  0.00000000000E+00  0.74505805969E-08  0.10566000000E+00  0.10566000000E+00 0.  1.
     999900   -1    0    0    0    0 -0.00000000000E+00 -0.00000000000E+00 -0.74505805969E-08  0.93827000000E+00  0.93827000000E+00 0. -1.
     999902    2    1    2    0    0 -0.40736376942E-02 -0.22615630951E-01 -0.38677612056E-02  0.10206271919E+01  0.10203611341E+01 0.  0.
     999903    2    3    3    0    0 -0.70923738764E-01 -0.51034940096E-01  0.96856068142E-01  0.13190795452E+00  0.19592567409E-01 0.  0.
         14    1    1    2    0    0  0.40736376942E-02  0.22615630951E-01  0.38677612056E-02  0.23302808074E-01  0.00000000000E+00 0.  1.
     999901    1    3    3    0    0  0.66850101070E-01  0.28419309145E-01 -0.10072382935E+00  0.88871923741E+00  0.88000000000E+00 0. -1.
        -11    1    4    4    0    0 -0.54604811616E-01 -0.29690144360E-01  0.60896271828E-01  0.87016131649E-01  0.51100000000E-03 0.  1.
         11    1    4    4    0    0 -0.16318927148E-01 -0.21344795736E-01  0.35959796315E-01  0.44891822867E-01  0.51100000000E-03 0. -1.
</event>
<event>
 8    1  0.1042301E+005  0.1043930E+01  0.7957747E-01            NaN
         13   -1    0    0    0    0  0.00000000000E+00  0.00000000000E+00  0.74505805969E-08  0.10566000000E+00  0.10566000000E+00 0. -1.
     999900   -1    0    0    0    0 -0.00000000000E+00 -0.00000000000E+00 -0.74505805969E-08  0.93827000000E+00  0.93827000000E+00 0.  1.
     999902    2    1    2    0    0 -0.10279855592E-01 -0.20772954569E-01  0.31466146416E-02  0.10205399967E+01  0.10202719209E+01 0.  0.
     999903    2    3    3    0    0 -0.37636872435E-01 -0.94885488516E-01 -0.82741318788E-01  0.13283632360E+00  0.19482631618E-01 0.  0.
         14    1    1    2    0    0  0.10279855592E-01  0.20772954569E-01 -0.31466146416E-02  0.23390003340E-01  0.00000000000E+00 0.  1.
     999901    1    3    3    0    0  0.27357016842E-01  0.74112533948E-01  0.85887933429E-01  0.88770367306E+00  0.88000000000E+00 0. -1.
        -11    1    4    4    0    0 -0.27142018334E-01 -0.57072011576E-01 -0.39922908320E-01  0.74752949068E-01  0.51100000000E-03 0. -1.
         11    1    4    4    0    0 -0.10494854101E-01 -0.37813476940E-01 -0.42818410467E-01  0.58083374531E-01  0.51100000000E-03 0.  1.
</event>
<event>
 8    1  0.1042301E+005  0.1043930E+01  0.7957747E-01            NaN
         13   -1    0    0    0    0  0.00000000000E+00  0.00000000000E+00  0.74505805969E-08  0.10566000000E+00  0.10566000000E+00 0.  1.
     999900   -1    0    0    0    0 -0.00000000000E+00 -0.00000000000E+00 -0.74505805969E-08  0.93827000000E+00  0.93827000000E+00 0. -1.
     999902    2    1    2    0    0  0.20559363341E-01 -0.15470177392E-02  0.96957567580E-02  0.10211464888E+01  0.10208922877E+01 0.  0.
     999903    2    3    3    0    0  0.39671352054E-01 -0.30355361814E-01  0.12202041496E+00  0.13333343545E+00  0.19838325990E-01 0.  0.
         14    1    1    2    0    0 -0.20559363341E-01  0.15470177392E-02 -0.96957567580E-02  0.22783511231E-01  0.00000000000E+00 0. -1.
     999901    1    3    3    0    0 -0.19111988713E-01  0.28808344074E-01 -0.11232465820E+00  0.88781305332E+00  0.88000000000E+00 0. -1.
        -11    1    4    4    0    0  0.32235027401E-01 -0.13546491962E-01  0.87329576506E-01  0.94070826986E-01  0.51100000000E-03 0.  1.
         11    1    4    4    0    0  0.74363246532E-02 -0.16808869852E-01  0.34690838452E-01  0.39262608466E-01  0.51100000000E-03 0. -1.
</event>
<event>
 8    1  0.1042301E+005  0.1043930E+01  0.7957747E-01            NaN
         13   -1    0    0    0    0  0.00000000000E+00  0.00000000000E+00  0.74505805969E-08  0.10566000000E+00  0.10566000000E+00 0. -1.
     999900   -1    0    0    0    0 -0.00000000000E+00 -0.00000000000E+00 -0.74505805969E-08  0.93827000000E+00  0.93827000000E+00 0.  1.
     999902    2    1    2    0    0  0.21288002790E-01  0.47328458691E-03 -0.10368581955E-01  0.10202464497E+01  0.10199715230E+01 0.  0.
     999903    2    3    3    0    0 -0.11120618722E+00 -0.12839685689E-01  0.57858474580E-01  0.12761725640E+00  0.20171451231E-01 0.  0.
         14    1    1    2    0    0 -0.21288002790E-01 -0.47328458691E-03  0.10368581955E-01  0.23683550259E-01  0.00000000000E+00 0.  1.
     999901    1    3    3    0    0  0.13249419001E+00  0.13312970276E-01 -0.68227056534E-01  0.89262919334E+00  0.88000000000E+00 0.  1.
        -11    1    4    4    0    0 -0.50837335511E-02 -0.90677049813E-03  0.85256562249E-02  0.99807071202E-02  0.51100000000E-03 0.  1.
         11    1    4    4    0    0 -0.10612245367E+00 -0.11932915191E-01  0.49332818355E-01  0.11763654928E+00  0.51100000000E-03 0. -1.
</event>
<event>
 8    1  0.1042301E+005  0.1043930E+01  0.7957747E-01            NaN
         13   -1    0    0    0    0  0.00000000000E+00  0.00000000000E+00  0.74505805969E-08  0.10566000000E+00  0.10566000000E+00 0.  1.
     999900   -1    0    0    0    0 -0.00000000000E+00 -0.00000000000E+00 -0.74505805969E-08  0.93827000000E+00  0.93827000000E+00 0.  1.
     999902    2    1    2    0    0  0.87090981453E-02  0.67069055687E-02  0.21804227879E-01  0.10195116600E+01  0.10192191961E+01 0.  0.
     999903    2    3    3    0    0 -0.10043158551E+00  0.57132800034E-01  0.57423679631E-01  0.13062291279E+00  0.20352055304E-01 0.  0.
         14    1    1    2    0    0 -0.87090981453E-02 -0.67069055687E-02 -0.21804227879E-01  0.24418339956E-01  0.00000000000E+00 0. -1.
     999901    1    3    3    0    0  0.10914068365E+00 -0.50425894465E-01 -0.35619451752E-01  0.88888874726E+00  0.88000000000E+00 0.  1.
        -11    1    4    4    0    0 -0.85199990991E-01  0.56033589488E-01  0.51416437592E-01  0.11420469689E+00  0.51100000000E-03 0.  1.
         11    1    4    4    0    0 -0.15231594516E-01  0.10992105454E-02  0.60072420393E-02  0.16418215897E-01  0.51100000000E-03 0. -1.
</event>
<event>
 8    1  0.1042301E+005  0.1043930E+01  0.7957747E-01            NaN
         13   -1    0    0    0    0  0.00000000000E+00  0.00000000000E+00  0.74505805969E-08  0.10566000000E+00  0.10566000000E+00 0. -1.
     999900   -1    0    0    0    0 -0.00000000000E+00 -0.00000000000E+00 -0.74505805969E-08  0.93827000000E+00  0.93827000000E+00 0.  1.
     999902    2    1    2    0    0 -0.23259504712E-01  0.18130627986E-02  0.49544733051E-02  0.10200796633E+01  0.10198008045E+01 0.  0.
     999903    2    3    3    0    0  0.56060979264E-01 -0.10116966367E+00 -0.53937997719E-01  0.12858344664E+00  0.15692702415E-01 0.  0.
         14    1    1    2    0    0  0.23259504712E-01 -0.18130627986E-02 -0.49544733051E-02  0.23850336724E-01  0.00000000000E+00 0.  1.
     999901    1    3    3    0    0 -0.79320483976E-01  0.10298272647E+00  0.58892471024E-01  0.89149621663E+00  0.88000000000E+00 0. -1.
        -11    1    4    4    0    0  0.25238735288E-01 -0.61403934376E-01 -0.31808053924E-01  0.73616916067E-01  0.51100000000E-03 0.  1.
         11    1    4    4    0    0  0.30822243976E-01 -0.39765729295E-01 -0.22129943795E-01  0.54966530575E-01  0.51100000000E-03 0. -1.
</event>
<event>
 8    1  0.1042301E+005  0.1043930E+01  0.7957747E-01            NaN
         13   -1    0    0    0    0  0.00000000000E+00  0.00000000000E+00  0.74505805969E-08  0.10566000000E+00  0.10566000000E+00 0. -1.
     999900   -1    0    0    0    0 -0.00000000000E+00 -0.00000000000E+00 -0.74505805969E-08  0.93827000000E+00  0.93827000000E+00 0.  1.
     999902    2    1    2    0    0 -0.65984220072E-02 -0.13447691468E-01 -0.19430398995E-01  0.10193959424E+01  0.10191006659E+01 0.  0.
     999903    2    3    3    0    0 -0.58497247251E-02  0.88478298690E-01 -0.93621742314E-01  0.13041122740E+00  0.19478936838E-01 0.  0.
         14    1    1    2    0    0  0.65984220072E-02  0.13447691468E-01  0.19430398995E-01  0.24534057632E-01  0.00000000000E+00 0. -1.
     999901    1    3    3    0    0 -0.74869728208E-03 -0.10192599016E+00  0.74191343319E-01  0.88898471496E+00  0.88000000000E+00 0. -1.
        -11    1    4    4    0    0 -0.20084007263E-02  0.35618946272E-02 -0.23118935114E-03  0.41273885605E-02  0.51100000000E-03 0. -1.
         11    1    4    4    0    0 -0.38413239988E-02  0.84916404063E-01 -0.93390552963E-01  0.12628383884E+00  0.51100000000E-03 0.  1.
</event>
<event>
 8    1  0.1042301E+005  0.1043930E+01  0.7957747E-01            NaN
         13   -1    0    0    0    0  0.00000000000E+00  0.00000000000E+00  0.74505805969E-08  0.10566000000E+00  0.10566000000E+00 0. -1.
     999900   -1    0    0    0    0 -0.00000000000E+00 -0.00000000000E+00 -0.74505805969E-08  0.93827000000E+00  0.93827000000E+00 0. -1.
     999902    2    1    2    0    0 -0.54426151475E-02 -0.14039700425E-01 -0.19890243266E-01  0.10189829155E+01  0.10186774882E+01 0.  0.
     999903    2    3    3    0    0  0.41950266442E-01  0.39286237341E-01  0.11084108936E+00  0.12646937376E+00  0.20137579568E-01 0.  0.
         14    1    1    2    0    0  0.54426151475E-02  0.14039700425E-01  0.19890243266E-01  0.24947084496E-01  0.00000000000E+00 0. -1.
     999901    1    3    3    0    0 -0.47392881589E-01 -0.53325937766E-01 -0.13073133262E+00  0.89251354174E+00  0.88000000000E+00 0. -1.
        -11    1    4    4    0    0  0.76235694752E-02  0.17000940182E-01  0.47815366731E-01  0.51319793406E-01  0.51100000000E-03 0. -1.
         11    1    4    4    0    0  0.34326696966E-01  0.22285297160E-01  0.63025722625E-01  0.75149580355E-01  0.51100000000E-03 0.  1.
</event>
<event>
 8    1  0.1042301E+005  0.1043930E+01  0.7957747E-01            NaN
         13   -1    0    0    0    0  0.00000000000E+00  0.00000000000E+00  0.74505805969E-08  0.10566000000E+00  0.10566000000E+00 0.  1.
     999900   -1    0    0    0    0 -0.00000000000E+00 -0.00000000000E+00 -0.74505805969E-08  0.93827000000E+00  0.93827000000E+00 0.  1.
     999902    2    1    2    0    0  0.31462670647E-02 -0.16804792539E-01  0.15783867418E-01  0.10206613404E+01  0.10203960708E+01 0.  0.
     999903    2    3    3    0    0  0.54378806826E-01  0.11149279683E-02  0.11964933057E+00  0.13289226911E+00  0.19649304968E-01 0.  0.
         14    1    1    2    0    0 -0.31462670647E-02  0.16804792539E-01 -0.15783867418E-01  0.23268659596E-01  0.00000000000E+00 0. -1.
     999901    1    3    3    0    0 -0.51232539761E-01 -0.17919720507E-01 -0.10386546316E+00  0.88776907130E+00  0.88000000000E+00 0.  1.
        -11    1    4    4    0    0  0.13759592895E-01  0.29624335249E-02  0.14785421865E-01  0.20419897888E-01  0.51100000000E-03 0. -1.
         11    1    4    4    0    0  0.40619213931E-01 -0.18475055565E-02  0.10486390871E+00  0.11247237122E+00  0.51100000000E-03 0.  1.
</event>
<event>
 8    1  0.1042301E+005  0.1043930E+01  0.7957747E-01            NaN
         13   -1    0    0    0    0  0.00000000000E+00  0.00000000000E+00  0.74505805969E-08  0.10566000000E+00  0.10566000000E+00 0.  1.
     999900   -1    0    0    0    0 -0.00000000000E+00 -0.00000000000E+00 -0.74505805969E-08  0.93827000000E+00  0.93827000000E+00 0. -1.
     999902    2    1    2    0    0  0.59816860679E-02  0.18538905173E-01 -0.94538981472E-02  0.10222771073E+01  0.10220477662E+01 0.  0.
     999903    2    3    3    0    0  0.11530202355E+00 -0.90256426857E-02 -0.63294877737E-01  0.13345226988E+00  0.20669976471E-01 0.  0.
         14    1    1    2    0    0 -0.59816860679E-02 -0.18538905173E-01  0.94538981472E-02  0.21652892726E-01  0.00000000000E+00 0.  1.
     999901    1    3    3    0    0 -0.10932033748E+00  0.27564547858E-01  0.53840979590E-01  0.88882483739E+00  0.88000000000E+00 0.  1.
        -11    1    4    4    0    0  0.10483616462E-01  0.14814368241E-02 -0.12833455222E-01  0.16645106282E-01  0.51100000000E-03 0. -1.
         11    1    4    4    0    0  0.10481840709E+00 -0.10507079510E-01 -0.50461422515E-01  0.11680716360E+00  0.51100000000E-03 0.  1.
</event>
<event>
 8    1  0.1042301E+005  0.1043930E+01  0.7957747E-01            NaN
         13   -1    0    0    0    0  0.00000000000E+00  0.00000000000E+00  0.74505805969E-08  0.10566000000E+00  0.10566000000E+00 0. -1.
     999900   -1    0    0    0    0 -0.00000000000E+00 -0.00000000000E+00 -0.74505805969E-08  0.93827000000E+00  0.93827000000E+00 0. -1.
     999902    2    1    2    0    0 -0.49029295188E-02  0.94500795413E-02 -0.20885924478E-01  0.10204872066E+01  0.10202179053E+01 0.  0.
     999903    2    3    3    0    0  0.47332025798E-01  0.12021328011E+00 -0.17456410063E-01  0.13200043758E+00  0.20684194127E-01 0.  0.
         14    1    1    2    0    0  0.49029295188E-02 -0.94500795413E-02  0.20885924478E-01  0.23442793403E-01  0.00000000000E+00 0. -1.
     999901    1    3    3    0    0 -0.52234955317E-01 -0.11076320057E+00 -0.34295144160E-02  0.88848676902E+00  0.88000000000E+00 0.  1.
        -11    1    4    4    0    0  0.29345265118E-01  0.71947863609E-01 -0.20618525301E-01  0.80392937310E-01  0.51100000000E-03 0.  1.
         11    1    4    4    0    0  0.17986760681E-01  0.48265416502E-01  0.31621152388E-02  0.51607500266E-01  0.51100000000E-03 0. -1.
</event>
<event>
 8    1  0.1042301E+005  0.1043930E+01  0.7957747E-01            NaN
         13   -1    0    0    0    0  0.00000000000E+00  0.00000000000E+00  0.74505805969E-08  0.10566000000E+00  0.10566000000E+00 0.  1.
     999900   -1    0    0    0    0 -0.00000000000E+00 -0.00000000000E+00 -0.74505805969E-08  0.93827000000E+00  0.93827000000E+00 0. -1.
     999902    2    1    2    0    0  0.23428286487E-01 -0.34995283752E-03  0.38911292067E-03  0.10204958693E+01  0.10202267692E+01 0.  0.
     999903    2    3    3    0    0  0.50187703201E-01  0.42211035394E-01 -0.11297811848E+00  0.13180040215E+00  0.17513243269E-01 0.  0.
         14    1    1    2    0    0 -0.23428286487E-01  0.34995283752E-03 -0.38911292067E-03  0.23434130741E-01  0.00000000000E+00 0.  1.
     999901    1    3    3    0    0 -0.26759416714E-01 -0.42560988232E-01  0.11336723140E+00  0.88869546711E+00  0.88000000000E+00 0.  1.
        -11    1    4    4    0    0  0.32015795504E-01  0.15982173501E-01 -0.54953245619E-01  0.65578665407E-01  0.51100000000E-03 0.  1.
         11    1    4    4    0    0  0.18171907697E-01  0.26228861893E-01 -0.58024872864E-01  0.66221736744E-01  0.51100000000E-03 0. -1.
</event>
<event>
 8    1  0.1042301E+005  0.1043930E+01  0.7957747E-01            NaN
         13   -1    0    0    0    0  0.00000000000E+00  0.00000000000E+00  0.74505805969E-08  0.10566000000E+00  0.10566000000E+00 0. -1.
     999900   -1    0    0    0    0 -0.00000000000E+00 -0.00000000000E+00 -0.74505805969E-08  0.93827000000E+00  0.93827000000E+00 0. -1.
     999902    2    1    2    0    0  0.88751035233E-02  0.24639444134E-01  0.15032347484E-03  0.10177404550E+01  0.10174034310E+01 0.  0.
     999903    2    3    3    0    0 -0.43449969582E-01  0.11965171018E+00 -0.22018843411E-01  0.13080375155E+00  0.20502691259E-01 0.  0.
         14    1    1    2    0    0 -0.88751035233E-02 -0.24639444134E-01 -0.15032347484E-03  0.26189544993E-01  0.00000000000E+00 0.  1.
     999901    1    3    3    0    0  0.52325073105E-01 -0.95012266047E-01  0.22169166886E-01  0.88693670345E+00  0.88000000000E+00 0.  1.
        -11    1    4    4    0    0 -0.22203601119E-01  0.69868843207E-01 -0.22444756771E-01  0.76672572548E-01  0.51100000000E-03 0.  1.
         11    1    4    4    0    0 -0.21246368463E-01  0.49782866975E-01  0.42591335998E-03  0.54131179004E-01  0.51100000000E-03 0. -1.
</event>
<event>
 8    1  0.1042301E+005  0.1043930E+01  0.7957747E-01            NaN
         13   -1    0    0    0    0  0.00000000000E+00  0.00000000000E+00  0.74505805969E-08  0.10566000000E+00  0.10566000000E+00 0.  1.
     999900   -1    0    0    0    0 -0.00000000000E+00 -0.00000000000E+00 -0.74505805969E-08  0.93827000000E+00  0.93827000000E+00 0. -1.
     999902    2    1    2    0    0  0.72804719728E-02 -0.44330108321E-02 -0.18829174960E-01  0.10232613114E+01  0.10230525484E+01 0.  0.
     999903    2    3    3    0    0  0.80408236941E-01 -0.10086479044E-01 -0.10715845880E+00  0.13580331576E+00  0.19808676191E-01 0.  0.
         14    1    1    2    0    0 -0.72804719728E-02  0.44330108321E-02  0.18829174960E-01  0.20668688561E-01  0.00000000000E+00 0.  1.
     999901    1    3    3    0    0 -0.73127764968E-01  0.56534682121E-02  0.88329283836E-01  0.88745799568E+00  0.88000000000E+00 0. -1.
        -11    1    4    4    0    0  0.39242718218E-01  0.25445421619E-02 -0.40568675175E-01  0.56502603076E-01  0.51100000000E-03 0. -1.
         11    1    4    4    0    0  0.41165518723E-01 -0.12631021206E-01 -0.66589783621E-01  0.79300712683E-01  0.51100000000E-03 0.  1.
</event>
<event>
 8    1  0.1042301E+005  0.1043930E+01  0.7957747E-01            NaN
         13   -1    0    0    0    0  0.00000000000E+00  0.00000000000E+00  0.74505805969E-08  0.10566000000E+00  0.10566000000E+00 0. -1.
     999900   -1    0    0    0    0 -0.00000000000E+00 -0.00000000000E+00 -0.74505805969E-08  0.93827000000E+00  0.93827000000E+00 0. -1.
     999902    2    1    2    0    0 -0.17531550020E-01  0.14821231901E-01  0.84282612080E-02  0.10194747399E+01  0.10191813801E+01 0.  0.
     999903    2    3    3    0    0  0.48687461579E-01  0.10587619059E+00  0.56561536310E-01  0.13099695445E+00  0.19513022243E-01 0.  0.
         14    1    1    2    0    0  0.17531550020E-01 -0.14821231901E-01 -0.84282612080E-02  0.24455260132E-01  0.00000000000E+00 0. -1.
     999901    1    3    3    0    0 -0.66219011599E-01 -0.91054958693E-01 -0.48133275102E-01  0.88847778541E+00  0.88000000000E+00 0. -1.
        -11    1    4    4    0    0  0.43932098281E-01  0.10297251700E+00  0.56496760995E-01  0.12540141004E+00  0.51100000000E-03 0. -1.
         11    1    4    4    0    0  0.47553632985E-02  0.29036735956E-02  0.64775315082E-04  0.55955444143E-02  0.51100000000E-03 0.  1.
</event>
<event>
 8    1  0.1042301E+005  0.1043930E+01  0.7957747E-01            NaN
         13   -1    0    0    0    0  0.00000000000E+00  0.00000000000E+00  0.74505805969E-08  0.10566000000E+00  0.10566000000E+00 0.  1.
     999900   -1    0    0    0    0 -0.00000000000E+00 -0.00000000000E+00 -0.74505805969E-08  0.93827000000E+00  0.93827000000E+00 0.  1.
     999902    2    1    2    0    0 -0.11092976078E-01  0.19469527097E-01 -0.14310564137E-01  0.10173422425E+01  0.10169947539E+01 0.  0.
     999903    2    3    3    0    0 -0.84813648558E-01  0.39543543571E-01 -0.89215556291E-01  0.13086129992E+00  0.20204393388E-01 0.  0.
         14    1    1    2    0    0  0.11092976078E-01 -0.19469527097E-01  0.14310564137E-01  0.26587757512E-01  0.00000000000E+00 0.  1.
     999901    1    3    3    0    0  0.73720672481E-01 -0.20074016475E-01  0.74904992154E-01  0.88648094257E+00  0.88000000000E+00 0. -1.
        -11    1    4    4    0    0 -0.34407133278E-01  0.53690520807E-02 -0.31710557243E-01  0.47100935259E-01  0.51100000000E-03 0.  1.
         11    1    4    4    0    0 -0.50406515280E-01  0.34174491491E-01 -0.57504999048E-01  0.83760364659E-01  0.51100000000E-03 0. -1.
</event>
<event>
 8    1  0.1042301E+005  0.1043930E+01  0.7957747E-01            NaN
         13   -1    0    0    0    0  0.00000000000E+00  0.00000000000E+00  0.74505805969E-08  0.10566000000E+00  0.10566000000E+00 0.  1.
     999900   -1    0    0    0    0 -0.00000000000E+00 -0.00000000000E+00 -0.74505805969E-08  0.93827000000E+00  0.93827000000E+00 0. -1.
     999902    2    1    2    0    0 -0.33915226823E-04  0.23170469578E-01 -0.21469046189E-02  0.10206602555E+01  0.10203949608E+01 0.  0.
     999903    2    3    3    0    0  0.93779217641E-01 -0.17078812845E-02 -0.89313103276E-01  0.13104360634E+00  0.19953391315E-01 0.  0.
         14    1    1    2    0    0  0.33915226823E-04 -0.23170469578E-01  0.21469046189E-02  0.23269744523E-01  0.00000000000E+00 0.  1.
     999901    1    3    3    0    0 -0.93813132868E-01  0.24878350863E-01  0.87166198657E-01  0.88961664914E+00  0.88000000000E+00 0.  1.
        -11    1    4    4    0    0  0.75828263529E-01 -0.55260484744E-02 -0.61860732141E-01  0.98017723212E-01  0.51100000000E-03 0. -1.
         11    1    4    4    0    0  0.17950954112E-01  0.38181671899E-02 -0.27452371135E-01  0.33025883124E-01  0.51100000000E-03 0.  1.
</event>
<event>
 8    1  0.1042301E+005  0.1043930E+01  0.7957747E-01            NaN
         13   -1    0    0    0    0  0.00000000000E+00  0.00000000000E+00  0.74505805969E-08  0.10566000000E+00  0.10566000000E+00 0.  1.
     999900   -1    0    0    0    0 -0.00000000000E+00 -0.00000000000E+00 -0.74505805969E-08  0.93827000000E+00  0.93827000000E+00 0. -1.
     999902    2    1    2    0    0  0.20881499234E-01 -0.12012858903E-03  0.11770195054E-01  0.10199594153E+01  0.10196777039E+01 0.  0.
     999903    2    3    3    0    0  0.75521306743E-01 -0.41585755429E-01 -0.96538543178E-01  0.13066998569E+00  0.17947479315E-01 0.  0.
         14    1    1    2    0    0 -0.20881499234E-01  0.12012858903E-03 -0.11770195054E-01  0.23970584740E-01  0.00000000000E+00 0. -1.
     999901    1    3    3    0    0 -0.54639807508E-01  0.41465626840E-01  0.10830873823E+00  0.88928942957E+00  0.88000000000E+00 0.  1.
        -11    1    4    4    0    0  0.60981934551E-02  0.99615232015E-03 -0.10528133657E-01  0.12218142336E-01  0.51100000000E-03 0. -1.
         11    1    4    4    0    0  0.69423113288E-01 -0.42581907749E-01 -0.86010409521E-01  0.11845184335E+00  0.51100000000E-03 0.  1.
</event>
<event>
 8    1  0.1042301E+005  0.1043930E+01  0.7957747E-01            NaN
         13   -1    0    0    0    0  0.00000000000E+00  0.00000000000E+00  0.74505805969E-08  0.10566000000E+00  0.10566000000E+00 0. -1.
     999900   -1    0    0    0    0 -0.00000000000E+00 -0.00000000000E+00 -0.74505805969E-08  0.93827000000E+00  0.93827000000E+00 0. -1.
     999902    2    1    2    0    0 -0.20445095350E-01  0.10929604372E-01 -0.54494303579E-02  0.10201149949E+01  0.10198369715E+01 0.  0.
     999903    2    3    3    0    0  0.49115008267E-01 -0.68088423082E-01  0.94794002830E-01  0.12818943605E+00  0.19957734006E-01 0.  0.
         14    1    1    2    0    0  0.20445095350E-01 -0.10929604372E-01  0.54494303579E-02  0.23815005077E-01  0.00000000000E+00 0.  1.
     999901    1    3    3    0    0 -0.69560103617E-01  0.79018027454E-01 -0.10024343319E+00  0.89192555888E+00  0.88000000000E+00 0. -1.
        -11    1    4    4    0    0  0.23910302173E-01 -0.37180668831E-01  0.64074771772E-01  0.77845630471E-01  0.51100000000E-03 0. -1.
         11    1    4    4    0    0  0.25204706094E-01 -0.30907754251E-01  0.30719231058E-01  0.50343805577E-01  0.51100000000E-03 0.  1.
</event>
<event>
 8    1  0.1042301E+005  0.1043930E+01  0.7957747E-01            NaN
         13   -1    0    0    0    0  0.00000000000E+00  0.00000000000E+00  0.74505805969E-08  0.10566000000E+00  0.10566000000E+00 0.  1.
     999900   -1    0    0    0    0 -0.00000000000E+00 -0.00000000000E+00 -0.74505805969E-08  0.93827000000E+00  0.93827000000E+00 0.  1.
     999902    2    1    2    0    0  0.13077046284E-01  0.21836384418E-02 -0.18442619857E-01  0.10212163996E+01  0.10209637737E+01 0.  0.
     999903    2    3    3    0    0  0.64968290426E-01  0.87625102675E-01  0.70032972769E-01  0.13114849459E+00  0.19906606383E-01 0.  0.
         14    1    1    2    0    0 -0.13077046284E-01 -0.21836384418E-02  0.18442619857E-01  0.22713600409E-01  0.00000000000E+00 0.  1.
     999901    1    3    3    0    0 -0.51891244142E-01 -0.85441464233E-01 -0.88475592626E-01  0.89006790500E+00  0.88000000000E+00 0.  1.
        -11    1    4    4    0    0  0.26799775562E-01  0.24167876829E-01  0.30212146422E-01  0.47067495716E-01  0.51100000000E-03 0.  1.
         11    1    4    4    0    0  0.38168514864E-01  0.63457225846E-01  0.39820826348E-01  0.84080998870E-01  0.51100000000E-03 0. -1.
</event>
<event>
 8    1  0.1042301E+005  0.1043930E+01  0.7957747E-01            NaN
         13   -1    0    0    0    0  0.00000000000E+00  0.00000000000E+00  0.74505805969E-08  0.10566000000E+00  0.10566000000E+00 0.  1.
     999900   -1    0    0    0    0 -0.00000000000E+00 -0.00000000000E+00 -0.74505805969E-08  0.93827000000E+00  0.93827000000E+00 0.  1.
     999902    2    1    2    0    0 -0.95313805338E-02 -0.11613809073E-01  0.16687653130E-01  0.10214754783E+01  0.10212286459E+01 0.  0.
     999903    2    3    3    0    0  0.11282979270E+00  0.49842466166E-01 -0.34285850594E-01  0.12942871467E+00  0.19011551138E-01 0.  0.
         14    1    1    2    0    0  0.95313805338E-02  0.11613809073E-01 -0.16687653130E-01  0.22454521662E-01  0.00000000000E+00 0. -1.
     999901    1    3    3    0    0 -0.12236117324E+00 -0.61456275239E-01  0.50973503724E-01  0.89204676366E+00  0.88000000000E+00 0.  1.
        -11    1    4    4    0    0  0.58056132695E-01  0.25522332280E-01 -0.27455616645E-01  0.69108436495E-01  0.51100000000E-03 0.  1.
         11    1    4    4    0    0  0.54773660007E-01  0.24320133885E-01 -0.68302339490E-02  0.60320278179E-01  0.51100000000E-03 0. -1.
</event>
<event>
 8    1  0.1042301E+005  0.1043930E+01  0.7957747E-01            NaN
         13   -1    0    0    0    0  0.00000000000E+00  0.00000000000E+00  0.74505805969E-08  0.10566000000E+00  0.10566000000E+00 0.  1.
     999900   -1    0    0    0    0 -0.00000000000E+00 -0.00000000000E+00 -0.74505805969E-08  0.93827000000E+00  0.93827000000E+00 0. -1.
     999902    2    1    2    0    0  0.17755834199E-01  0.13361027074E-01 -0.34281316675E-02  0.10214458105E+01  0.10211983181E+01 0.  0.
     999903    2    3    3    0    0 -0.31343530669E-01  0.11133363096E+00 -0.61799440874E-01  0.13272955176E+00  0.20502895398E-01 0.  0.
         14    1    1    2    0    0 -0.17755834199E-01 -0.13361027074E-01  0.34281316675E-02  0.22484189540E-01  0.00000000000E+00 0.  1.
     999901    1    3    3    0    0  0.49099364868E-01 -0.97972603887E-01  0.58371309206E-01  0.88871625870E+00  0.88000000000E+00 0.  1.
        -11    1    4    4    0    0 -0.10137711891E-01  0.72246670830E-01 -0.36781033561E-01  0.81703489517E-01  0.51100000000E-03 0.  1.
         11    1    4    4    0    0 -0.21205818778E-01  0.39086960131E-01 -0.25018407312E-01  0.51026062240E-01  0.51100000000E-03 0. -1.
</event>
<event>
 8    1  0.1042301E+005  0.1043930E+01  0.7957747E-01            NaN
         13   -1    0    0    0    0  0.00000000000E+00  0.00000000000E+00  0.74505805969E-08  0.10566000000E+00  0.10566000000E+00 0.  1.
     999900   -1    0    0    0    0 -0.00000000000E+00 -0.00000000000E+00 -0.74505805969E-08  0.93827000000E+00  0.93827000000E+00 0.  1.
     999902    2    1    2    0    0 -0.21021223484E-01  0.59476409259E-02 -0.89822829154E-02  0.10203090839E+01  0.10200356264E+01 0.  0.
     999903    2    3    3    0    0 -0.12442008807E+00 -0.23589015135E-02  0.41883738419E-01  0.13275757784E+00  0.19606228533E-01 0.  0.
         14    1    1    2    0    0  0.21021223484E-01 -0.59476409259E-02  0.89822829154E-02  0.23620916065E-01  0.00000000000E+00 0.  1.
     999901    1    3    3    0    0  0.10339886459E+00  0.83065424394E-02 -0.50866021334E-01  0.88755150610E+00  0.88000000000E+00 0.  1.
        -11    1    4    4    0    0 -0.30499795548E-01 -0.90472018978E-02  0.10414926293E-01  0.33478667854E-01  0.51100000000E-03 0.  1.
         11    1    4    4    0    0 -0.93920292527E-01  0.66883003844E-02  0.31468812126E-01  0.99278909986E-01  0.51100000000E-03 0. -1.
</event>
<event>
 8    1  0.1042301E+005  0.1043930E+01  0.7957747E-01            NaN
         13   -1    0    0    0    0  0.00000000000E+00  0.00000000000E+00  0.74505805969E-08  0.10566000000E+00  0.10566000000E+00 0.  1.
     999900   -1    0    0    0    0 -0.00000000000E+00 -0.00000000000E+00 -0.74505805969E-08  0.93827000000E+00  0.93827000000E+00 0. -1.
     999902    2    1    2    0    0 -0.13642742622E-01  0.12493201078E-01  0.16924064254E-01  0.10188575360E+01  0.10185489926E+01 0.  0.
     999903    2    3    3    0    0 -0.12772871018E+00  0.97423410138E-02  0.22020270320E-01  0.13147422169E+00  0.19774783224E-01 0.  0.
         14    1    1    2    0    0  0.13642742622E-01 -0.12493201078E-01 -0.16924064254E-01  0.25072463986E-01  0.00000000000E+00 0. -1.
     999901    1    3    3    0    0  0.11408596756E+00  0.27508600647E-02 -0.50962060662E-02  0.88738331432E+00  0.88000000000E+00 0. -1.
        -11    1    4    4    0    0 -0.48866657459E-01 -0.19195772470E-02  0.16284390919E-01  0.51546847592E-01  0.51100000000E-03 0. -1.
         11    1    4    4    0    0 -0.78862052720E-01  0.11661918261E-01  0.57358794012E-02  0.79927374099E-01  0.51100000000E-03 0.  1.
</event>
<event>
 8    1  0.1042301E+005  0.1043930E+01  0.7957747E-01            NaN
         13   -1    0    0    0    0  0.00000000000E+00  0.00000000000E+00  0.74505805969E-08  0.10566000000E+00  0.10566000000E+00 0.  1.
     999900   -1    0    0    0    0 -0.00000000000E+00 -0.00000000000E+00 -0.74505805969E-08  0.93827000000E+00  0.93827000000E+00 0.  1.
     999902    2    1    2    0    0 -0.25079311505E-02  0.22493325292E-01  0.59944428598E-02  0.10205169108E+01  0.10202482994E+01 0.  0.
     999903    2    3    3    0    0  0.37896586454E-01 -0.26270561338E-01  0.12072431849E+00  0.13081281051E+00  0.20281436342E-01 0.  0.
         14    1    1    2    0    0  0.25079311505E-02 -0.22493325292E-01 -0.59944428598E-02  0.23413089214E-01  0.00000000000E+00 0. -1.
     999901    1    3    3    0    0 -0.40404517605E-01  0.48763886630E-01 -0.11472987563E+00  0.88970410027E+00  0.88000000000E+00 0.  1.
        -11    1    4    4    0    0  0.29518652784E-01 -0.87359664079E-02  0.69065249838E-01  0.75617047202E-01  0.51100000000E-03 0. -1.
         11    1    4    4    0    0  0.83779336698E-02 -0.17534594930E-01  0.51659068656E-01  0.55195763310E-01  0.51100000000E-03 0.  1.
</event>
<event>
 8    1  0.1042301E+005  0.1043930E+01  0.7957747E-01            NaN
         13   -1    0    0    0    0  0.00000000000E+00  0.00000000000E+00  0.74505805969E-08  0.10566000000E+00  0.10566000000E+00 0. -1.
     999900   -1    0    0    0    0 -0.00000000000E+00 -0.00000000000E+00 -0.74505805969E-08  0.93827000000E+00  0.93827000000E+00 0. -1.
     999902    2    1    2    0    0 -0.19815587767E-01 -0.14412742314E-01 -0.10876977402E-01  0.10171215443E+01  0.10167681853E+01 0.  0.
     999903    2    3    3    0    0  0.11248567961E+00  0.53363456049E-04 -0.53919103379E-01  0.12607411673E+00  0.18286121395E-01 0.  0.
         14    1    1    2    0    0  0.19815587767E-01  0.14412742314E-01  0.10876977402E-01  0.26808455699E-01  0.00000000000E+00 0. -1.
     999901    1    3    3    0    0 -0.13230126738E+00 -0.14466105770E-01  0.43042125978E-01  0.89104742757E+00  0.88000000000E+00 0.  1.
        -11    1    4    4    0    0  0.87582376387E-01  0.30710697978E-02 -0.49329207899E-01  0.10056707213E+00  0.51100000000E-03 0. -1.
         11    1    4    4    0    0  0.24903303223E-01 -0.30177063418E-02 -0.45898954808E-02  0.25507044606E-01  0.51100000000E-03 0.  1.
</event>
<event>
 8    1  0.1042301E+005  0.1043930E+01  0.7957747E-01            NaN
         13   -1    0    0    0    0  0.00000000000E+00  0.00000000000E+00  0.74505805969E-08  0.10566000000E+00  0.10566000000E+00 0. -1.
     999900   -1    0    0    0    0 -0.00000000000E+00 -0.00000000000E+00 -0.74505805969E-08  0.93827000000E+00  0.93827000000E+00 0.  1.
     999902    2    1    2    0    0 -0.22041094561E-01 -0.31328651073E-02  0.77171730003E-02  0.10203677537E+01  0.10200956687E+01 0.  0.
     999903    2    3    3    0    0 -0.64644605430E-01 -0.19387526023E-01  0.11278107566E+00  0.13294581525E+00  0.20005438987E-01 0.  0.
         14    1    1    2    0    0  0.22041094561E-01  0.31328651073E-02 -0.77171730003E-02  0.23562246334E-01  0.00000000000E+00 0.  1.
     999901    1    3    3    0    0  0.42603510870E-01  0.16254660915E-01 -0.10506390266E+00  0.88742193842E+00  0.88000000000E+00 0.  1.
        -11    1    4    4    0    0 -0.93238031636E-03 -0.47342000755E-02  0.10318206230E-01  0.11402126303E-01  0.51100000000E-03 0.  1.
         11    1    4    4    0    0 -0.63712225114E-01 -0.14653325947E-01  0.10246286943E+00  0.12154368895E+00  0.51100000000E-03 0. -1.
</event>
<event>
 8    1  0.1042301E+005  0.1043930E+01  0.7957747E-01            NaN
         13   -1    0    0    0    0  0.00000000000E+00  0.00000000000E+00  0.74505805969E-08  0.10566000000E+00  0.10566000000E+00 0. -1.
     999900   -1    0    0    0    0 -0.00000000000E+00 -0.00000000000E+00 -0.74505805969E-08  0.93827000000E+00  0.93827000000E+00 0. -1.
     999902    2    1    2    0    0  0.10519052692E-01 -0.30431940853E-02 -0.24086739500E-01  0.10174709275E+01  0.10171268386E+01 0.  0.
     999903    2    3    3    0    0 -0.29504943442E-02 -0.78271402544E-01  0.96633084423E-01  0.12594751895E+00  0.19740989093E-01 0.  0.
         14    1    1    2    0    0 -0.10519052692E-01  0.30431940853E-02  0.24086739500E-01  0.26459072537E-01  0.00000000000E+00 0. -1.
     999901    1    3    3    0    0  0.13469547036E-01  0.75228208459E-01 -0.12071982392E+00  0.89152340852E+00  0.88000000000E+00 0. -1.
        -11    1    4    4    0    0 -0.41743874389E-02 -0.29191494383E-02  0.90982609529E-02  0.10439655995E-01  0.51100000000E-03 0.  1.
         11    1    4    4    0    0  0.12238930947E-02 -0.75352253106E-01  0.87534823470E-01  0.11550786295E+00  0.51100000000E-03 0. -1.
</event>
<event>
 8    1  0.1042301E+005  0.1043930E+01  0.7957747E-01            NaN
         13   -1    0    0    0    0  0.00000000000E+00  0.00000000000E+00  0.74505805969E-08  0.10566000000E+00  0.10566000000E+00 0. -1.
     999900   -1    0    0    0    0 -0.00000000000E+00 -0.00000000000E+00 -0.74505805969E-08  0.93827000000E+00  0.93827000000E+00 0.  1.
     999902    2    1    2    0    0  0.72663062906E-02  0.17384822745E-01  0.14493594938E-01  0.10201582613E+01  0.10198812590E+01 0.  0.
     999903    2    3    3    0    0  0.20836277996E-01  0.49911663528E-01 -0.11640728990E+00  0.12977790368E+00  0.19139553375E-01 0.  0.
         14    1    1    2    0    0 -0.72663062906E-02 -0.17384822745E-01 -0.14493594938E-01  0.23771738750E-01  0.00000000000E+00 0.  1.
     999901    1    3    3    0    0 -0.13569971705E-01 -0.32526840783E-01  0.13090088484E+00  0.89038035757E+00  0.88000000000E+00 0. -1.
        -11    1    4    4    0    0  0.15683796049E-01  0.22522741278E-01 -0.40604630903E-01  0.49012778996E-01  0.51100000000E-03 0.  1.
         11    1    4    4    0    0  0.51524819472E-02  0.27388922250E-01 -0.75802658999E-01  0.80765124680E-01  0.51100000000E-03 0. -1.
</event>
<event>
 8    1  0.1042301E+005  0.1043930E+01  0.7957747E-01            NaN
         13   -1    0    0    0    0  0.00000000000E+00  0.00000000000E+00  0.74505805969E-08  0.10566000000E+00  0.10566000000E+00 0.  1.
     999900   -1    0    0    0    0 -0.00000000000E+00 -0.00000000000E+00 -0.74505805969E-08  0.93827000000E+00  0.93827000000E+00 0.  1.
     999902    2    1    2    0    0 -0.46942899431E-02 -0.22377899497E-01  0.71302061089E-02  0.10199790797E+01  0.10196978359E+01 0.  0.
     999903    2    3    3    0    0  0.60438611869E-01  0.10352790422E+00 -0.38133171524E-01  0.12748631241E+00  0.20682560879E-01 0.  0.
         14    1    1    2    0    0  0.46942899431E-02  0.22377899497E-01 -0.71302061089E-02  0.23950920298E-01  0.00000000000E+00 0. -1.
     999901    1    3    3    0    0 -0.65132901812E-01 -0.12590580372E+00  0.45263377633E-01  0.89249276729E+00  0.88000000000E+00 0.  1.
        -11    1    4    4    0    0  0.53727506171E-01  0.75234630414E-01 -0.26613872950E-01  0.96205269541E-01  0.51100000000E-03 0.  1.
         11    1    4    4    0    0  0.67111056979E-02  0.28293273809E-01 -0.11519298574E-01  0.31281042872E-01  0.51100000000E-03 0. -1.
</event>
<event>
 8    1  0.1042301E+005  0.1043930E+01  0.7957747E-01            NaN
         13   -1    0    0    0    0  0.00000000000E+00  0.00000000000E+00  0.74505805969E-08  0.10566000000E+00  0.10566000000E+00 0.  1.
     999900   -1    0    0    0    0 -0.00000000000E+00 -0.00000000000E+00 -0.74505805969E-08  0.93827000000E+00  0.93827000000E+00 0.  1.
     999902    2    1    2    0    0 -0.15138015749E-01  0.13060001382E-01 -0.10569362570E-01  0.10213150805E+01  0.10210646694E+01 0.  0.
     999903    2    3    3    0    0 -0.93837647594E-02 -0.47457905112E-01  0.11884703186E+00  0.12977476650E+00  0.19405288966E-01 0.  0.
         14    1    1    2    0    0  0.15138015749E-01 -0.13060001382E-01  0.10569362570E-01  0.22614919457E-01  0.00000000000E+00 0.  1.
     999901    1    3    3    0    0 -0.57542509900E-02  0.60517906494E-01 -0.12941639443E+00  0.89154031404E+00  0.88000000000E+00 0. -1.
        -11    1    4    4    0    0 -0.91044249709E-02 -0.12556317216E-01  0.22787410277E-01  0.27569527457E-01  0.51100000000E-03 0. -1.
         11    1    4    4    0    0 -0.27933978849E-03 -0.34901587895E-01  0.96059621585E-01  0.10220523905E+00  0.51100000000E-03 0.  1.
</event>
<event>
 8    1  0.1042301E+005  0.1043930E+01  0.7957747E-01            NaN
         13   -1    0    0    0    0  0.00000000000E+00  0.00000000000E+00  0.74505805969E-08  0.10566000000E+00  0.10566000000E+00 0. -1.
     999900   -1    0    0    0    0 -0.00000000000E+00 -0.00000000000E+00 -0.74505805969E-08  0.93827000000E+00  0.93827000000E+00 0.  1.
     999902    2    1    2    0    0 -0.16683055876E-01  0.82430531473E-02 -0.17219666584E-01  0.10185767123E+01  0.10182611304E+01 0.  0.
     999903    2    3    3    0    0 -0.59130498127E-01  0.51807779781E-01 -0.10438843936E+00  0.13218060126E+00  0.19857069895E-01 0.  0.
         14    1    1    2    0    0  0.16683055876E-01 -0.82430531473E-02  0.17219666584E-01  0.25353287673E-01  0.00000000000E+00 0. -1.
     999901    1    3    3    0    0  0.42447442251E-01 -0.43564726634E-01  0.87168772773E-01  0.88639611106E+00  0.88000000000E+00 0. -1.
        -11    1    4    4    0    0 -0.11002696264E-01  0.10226936353E-01 -0.34782985369E-01  0.37891512829E-01  0.51100000000E-03 0.  1.
         11    1    4    4    0    0 -0.48127801863E-01  0.41580843428E-01 -0.69605453987E-01  0.94289088436E-01  0.51100000000E-03 0. -1.
</event>
<event>
 8    1  0.1042301E+005  0.1043930E+01  0.7957747E-01            NaN
         13   -1    0    0    0    0  0.00000000000E+00  0.00000000000E+00  0.74505805969E-08  0.10566000000E+00  0.10566000000E+00 0.  1.
     999900   -1    0    0    0    0 -0.00000000000E+00 -0.00000000000E+00 -0.74505805969E-08  0.93827000000E+00  0.93827000000E+00 0. -1.
     999902    2    1    2    0    0 -0.17053219460E-01 -0.57626824032E-02  0.15724005482E-01  0.10200288462E+01  0.10197487838E+01 0.  0.
     999903    2    3    3    0    0 -0.92794061777E-01 -0.92223719085E-01  0.76578673191E-02  0.13251701610E+00  0.19651065152E-01 0.  0.
         14    1    1    2    0    0  0.17053219460E-01  0.57626824032E-02 -0.15724005482E-01  0.23901153755E-01  0.00000000000E+00 0. -1.
     999901    1    3    3    0    0  0.75740842317E-01  0.86461036682E-01  0.80661381632E-02  0.88751183014E+00  0.88000000000E+00 0. -1.
        -11    1    4    4    0    0 -0.39949521184E-01 -0.49121218212E-01 -0.35019887109E-02  0.63414378239E-01  0.51100000000E-03 0. -1.
         11    1    4    4    0    0 -0.52844540593E-01 -0.43102500873E-01  0.11159856030E-01  0.69102637863E-01  0.51100000000E-03 0.  1.
</event>
<event>
 8    1  0.1042301E+005  0.1043930E+01  0.7957747E-01            NaN
         13   -1    0    0    0    0  0.00000000000E+00  0.00000000000E+00  0.74505805969E-08  0.10566000000E+00  0.10566000000E+00 0. -1.
     999900   -1    0    0    0    0 -0.00000000000E+00 -0.00000000000E+00 -0.74505805969E-08  0.93827000000E+00  0.93827000000E+00 0.  1.
     999902    2    1    2    0    0 -0.70748064161E-02  0.11039799041E-01 -0.19483108679E-01  0.10204455036E+01  0.10201752321E+01 0.  0.
     999903    2    3    3    0    0  0.57763812990E-01 -0.63785165352E-01 -0.97472363711E-01  0.13146566929E+00  0.19420481550E-01 0.  0.
         14    1    1    2    0    0  0.70748064161E-02 -0.11039799041E-01  0.19483108679E-01  0.23484496429E-01  0.00000000000E+00 0. -1.
     999901    1    3    3    0    0 -0.64838619407E-01  0.74824964393E-01  0.77989255032E-01  0.88897983428E+00  0.88000000000E+00 0. -1.
        -11    1    4    4    0    0  0.54557960633E-01 -0.51739872438E-01 -0.88324623399E-01  0.11599605893E+00  0.51100000000E-03 0. -1.
         11    1    4    4    0    0  0.32058523579E-02 -0.12045292914E-01 -0.91477403120E-02  0.15469610355E-01  0.51100000000E-03 0.  1.
</event>
<event>
 8    1  0.1042301E+005  0.1043930E+01  0.7957747E-01            NaN
         13   -1    0    0    0    0  0.00000000000E+00  0.00000000000E+00  0.74505805969E-08  0.10566000000E+00  0.10566000000E+00 0.  1.
     999900   -1    0    0    0    0 -0.00000000000E+00 -0.00000000000E+00 -0.74505805969E-08  0.93827000000E+00  0.93827000000E+00 0.  1.
     999902    2    1    2    0    0  0.13024255703E-01 -0.97704048465E-02  0.18628380679E-01  0.10191891711E+01  0.10188888349E+01 0.  0.
     999903    2    3    3    0    0 -0.46177891414E-01 -0.34626531924E-02 -0.11655902237E+00  0.12687738933E+00  0.19169731476E-01 0.  0.
         14    1    1    2    0    0 -0.13024255703E-01  0.97704048465E-02 -0.18628380679E-01  0.24740828891E-01  0.00000000000E+00 0.  1.
     999901    1    3    3    0    0  0.59202147117E-01 -0.63077516540E-02  0.13518740305E+00  0.89231178178E+00  0.88000000000E+00 0. -1.
        -11    1    4    4    0    0 -0.20164318116E-01 -0.86067504528E-02 -0.69269807861E-01  0.72658401308E-01  0.51100000000E-03 0. -1.
         11    1    4    4    0    0 -0.26013573298E-01  0.51440972604E-02 -0.47289214510E-01  0.54218988024E-01  0.51100000000E-03 0.  1.
</event>
<event>
 8    1  0.1042301E+005  0.1043930E+01  0.7957747E-01            NaN
         13   -1    0    0    0    0  0.00000000000E+00  0.00000000000E+00  0.74505805969E-08  0.10566000000E+00  0.10566000000E+00 0.  1.
     999900   -1    0    0    0    0 -0.00000000000E+00 -0.00000000000E+00 -0.74505805969E-08  0.93827000000E+00  0.93827000000E+00 0. -1.
     999902    2    1    2    0    0  0.23533433511E-02 -0.18182028977E-01 -0.14491844859E-01  0.10205604050E+01  0.10202928022E+01 0.  0.
     999903    2    3    3    0    0  0.10796627179E+00 -0.61764109765E-01  0.38243824781E-01  0.13160903442E+00  0.19667910590E-01 0.  0.
         14    1    1    2    0    0 -0.23533433511E-02  0.18182028977E-01  0.14491844859E-01  0.23369594992E-01  0.00000000000E+00 0.  1.
     999901    1    3    3    0    0 -0.10561292844E+00  0.43582080787E-01 -0.52735669640E-01  0.88895137059E+00  0.88000000000E+00 0. -1.
        -11    1    4    4    0    0  0.19897897782E-01 -0.17555846695E-01  0.20120675847E-02  0.26616604334E-01  0.51100000000E-03 0. -1.
         11    1    4    4    0    0  0.88068374011E-01 -0.44208263069E-01  0.36231757196E-01  0.10499243008E+00  0.51100000000E-03 0.  1.
</event>
<event>
 8    1  0.1042301E+005  0.1043930E+01  0.7957747E-01            NaN
         13   -1    0    0    0    0  0.00000000000E+00  0.00000000000E+00  0.74505805969E-08  0.10566000000E+00  0.10566000000E+00 0.  1.
     999900   -1    0    0    0    0 -0.00000000000E+00 -0.00000000000E+00 -0.74505805969E-08  0.93827000000E+00  0.93827000000E+00 0. -1.
     999902    2    1    2    0    0  0.79748477394E-02  0.24839662132E-02 -0.22167982305E-01  0.10202405989E+01  0.10199655347E+01 0.  0.
     999903    2    3    3    0    0  0.16831502321E-01  0.50005582337E-01 -0.12096543277E+00  0.13339355429E+00  0.19425412891E-01 0.  0.
         14    1    1    2    0    0 -0.79748477394E-02 -0.24839662132E-02  0.22167982305E-01  0.23689401092E-01  0.00000000000E+00 0.  1.
     999901    1    3    3    0    0 -0.88566545813E-02 -0.47521616124E-01  0.98797450463E-01  0.88684704462E+00  0.88000000000E+00 0.  1.
        -11    1    4    4    0    0  0.60201932891E-02  0.27006578131E-01 -0.84706121583E-01  0.89112210972E-01  0.51100000000E-03 0.  1.
         11    1    4    4    0    0  0.10811309032E-01  0.22999004206E-01 -0.36259311185E-01  0.44281343318E-01  0.51100000000E-03 0. -1.
</event>
<event>
 8    1  0.1042301E+005  0.1043930E+01  0.7957747E-01            NaN
         13   -1    0    0    0    0  0.00000000000E+00  0.00000000000E+00  0.74505805969E-08  0.10566000000E+00  0.10566000000E+00 0.  1.
     999900   -1    0    0    0    0 -0.00000000000E+00 -0.00000000000E+00 -0.74505805969E-08  0.93827000000E+00  0.93827000000E+00 0.  1.
     999902    2    1    2    0    0  0.14507488425E-01  0.13567810308E-01  0.14054269552E-01  0.10195974048E+01  0.10193070159E+01 0.  0.
     999903    2    3    3    0    0  0.47831486791E-02  0.12666046151E+00  0.31004267753E-01  0.13214497622E+00  0.20863343464E-01 0.  0.
         14    1    1    2    0    0 -0.14507488425E-01 -0.13567810308E-01 -0.14054269552E-01  0.24332595209E-01  0.00000000000E+00 0. -1.
     999901    1    3    3    0    0  0.97243397455E-02 -0.11309265120E+00 -0.16949998201E-01  0.88745242857E+00  0.88000000000E+00 0. -1.
        -11    1    4    4    0    0  0.12911020230E-01  0.85009185358E-01  0.22116828638E-01  0.88784408928E-01  0.51100000000E-03 0. -1.
         11    1    4    4    0    0 -0.81278715510E-02  0.41651276150E-01  0.88874391156E-02  0.43360567292E-01  0.51100000000E-03 0.  1.
</event>
<event>
 8    1  0.1042301E+005  0.1043930E+01  0.7957747E-01            NaN
         13   -1    0    0    0    0  0.00000000000E+00  0.00000000000E+00  0.74505805969E-08  0.10566000000E+00  0.10566000000E+00 0.  1.
     999900   -1    0    0    0    0 -0.00000000000E+00 -0.00000000000E+00 -0.74505805969E-08  0.93827000000E+00  0.93827000000E+00 0. -1.
     999902    2    1    2    0    0  0.17149864723E-01  0.10903256980E-01  0.12891977819E-01  0.10198633848E+01  0.10195793847E+01 0.  0.
     999903    2    3    3    0    0 -0.61271740422E-01  0.80444140056E-01 -0.77844791391E-01  0.12901039818E+00  0.18931070957E-01 0.  0.
         14    1    1    2    0    0 -0.17149864723E-01 -0.10903256980E-01 -0.12891977819E-01  0.24066615152E-01  0.00000000000E+00 0. -1.
     999901    1    3    3    0    0  0.78421605144E-01 -0.69540883076E-01  0.90736769210E-01  0.89085298667E+00  0.88000000000E+00 0.  1.
        -11    1    4    4    0    0 -0.12962290648E-01  0.15000657926E-01 -0.66696713213E-02  0.20923344703E-01  0.51100000000E-03 0. -1.
         11    1    4    4    0    0 -0.48309449774E-01  0.65443482131E-01 -0.71175120070E-01  0.10808705347E+00  0.51100000000E-03 0.  1.
</event>
<event>
 8    1  0.1042301E+005  0.1043930E+01  0.7957747E-01            NaN
         13   -1    0    0    0    0  0.00000000000E+00  0.00000000000E+00  0.74505805969E-08  0.10566000000E+00  0.10566000000E+00 0.  1.
     999900   -1    0    0    0    0 -0.00000000000E+00 -0.00000000000E+00 -0.74505805969E-08  0.93827000000E+00  0.93827000000E+00 0.  1.
     999902    2    1    2    0    0  0.21743037161E-01  0.65545892578E-02  0.61946872758E-02  0.10203907465E+01  0.10201191985E+01 0.  0.
     999903    2    3    3    0    0  0.92323894790E-01 -0.59546036255E-01 -0.70185702856E-01  0.13180483947E+00  0.19417796990E-01 0.  0.
         14    1    1    2    0    0 -0.21743037161E-01 -0.65545892578E-02 -0.61946872758E-02  0.23539253509E-01  0.00000000000E+00 0. -1.
     999901    1    3    3    0    0 -0.70580857630E-01  0.66100625513E-01  0.76380390132E-01  0.88858590702E+00  0.88000000000E+00 0.  1.
        -11    1    4    4    0    0  0.68467154097E-01 -0.43399447637E-01 -0.41192856859E-01  0.90930609932E-01  0.51100000000E-03 0. -1.
         11    1    4    4    0    0  0.23856740693E-01 -0.16146588618E-01 -0.28992845997E-01  0.40874229540E-01  0.51100000000E-03 0.  1.
</event>
<event>
 8    1  0.1042301E+005  0.1043930E+01  0.7957747E-01            NaN
         13   -1    0    0    0    0  0.00000000000E+00  0.00000000000E+00  0.74505805969E-08  0.10566000000E+00  0.10566000000E+00 0. -1.
     999900   -1    0    0    0    0 -0.00000000000E+00 -0.00000000000E+00 -0.74505805969E-08  0.93827000000E+00  0.93827000000E+00 0. -1.
     999902    2    1    2    0    0 -0.71836366594E-02  0.25886016031E-02 -0.20097738290E-01  0.10224305912E+01  0.10222045242E+01 0.  0.
     999903    2    3    3    0    0  0.98943790004E-01  0.23690181926E-01  0.78930421012E-01  0.13028997241E+00  0.19858681955E-01 0.  0.
         14    1    1    2    0    0  0.71836366594E-02 -0.25886016031E-02  0.20097738290E-01  0.21499408789E-01  0.00000000000E+00 0. -1.
     999901    1    3    3    0    0 -0.10612742666E+00 -0.21101580323E-01 -0.99028159302E-01  0.89214061880E+00  0.88000000000E+00 0. -1.
        -11    1    4    4    0    0  0.33644736614E-01  0.36538776185E-02  0.16094568752E-01  0.37478198833E-01  0.51100000000E-03 0.  1.
         11    1    4    4    0    0  0.65299053390E-01  0.20036304308E-01  0.62835852260E-01  0.92811773576E-01  0.51100000000E-03 0. -1.
</event>
<event>
 8    1  0.1042301E+005  0.1043930E+01  0.7957747E-01            NaN
         13   -1    0    0    0    0  0.00000000000E+00  0.00000000000E+00  0.74505805969E-08  0.10566000000E+00  0.10566000000E+00 0.  1.
     999900   -1    0    0    0    0 -0.00000000000E+00 -0.00000000000E+00 -0.74505805969E-08  0.93827000000E+00  0.93827000000E+00 0. -1.
     999902    2    1    2    0    0  0.80134234982E-02 -0.70598590076E-02  0.26869784812E-01  0.10150156108E+01  0.10146036903E+01 0.  0.
     999903    2    3    3    0    0  0.10914423056E+00  0.70029164283E-02  0.63954534660E-01  0.12833614199E+00  0.20456757679E-01 0.  0.
         14    1    1    2    0    0 -0.80134234982E-02  0.70598590076E-02 -0.26869784812E-01  0.28914389172E-01  0.00000000000E+00 0. -1.
     999901    1    3    3    0    0 -0.10113080706E+00 -0.14062775436E-01 -0.37084749848E-01  0.88667946884E+00  0.88000000000E+00 0. -1.
        -11    1    4    4    0    0  0.10610058488E+00  0.52151370747E-02  0.65099416812E-01  0.12459023620E+00  0.51100000000E-03 0. -1.
         11    1    4    4    0    0  0.30436456776E-02  0.17877793536E-02 -0.11448821524E-02  0.37459057878E-02  0.51100000000E-03 0.  1.
</event>
<event>
 8    1  0.1042301E+005  0.1043930E+01  0.7957747E-01            NaN
         13   -1    0    0    0    0  0.00000000000E+00  0.00000000000E+00  0.74505805969E-08  0.10566000000E+00  0.10566000000E+00 0.  1.
     999900   -1    0    0    0    0 -0.00000000000E+00 -0.00000000000E+00 -0.74505805969E-08  0.93827000000E+00  0.93827000000E+00 0.  1.
     999902    2    1    2    0    0 -0.28383876140E-01 -0.32224745667E-02  0.23194401242E-02  0.10152697737E+01  0.10148651659E+01 0.  0.
     999903    2    3    3    0    0  0.44306099064E-01 -0.11022933389E+00  0.34837809792E-01  0.12521823320E+00  0.18772226055E-01 0.  0.
         14    1    1    2    0    0  0.28383876140E-01  0.32224745667E-02 -0.23194401242E-02  0.28660226265E-01  0.00000000000E+00 0. -1.
     999901    1    3    3    0    0 -0.72689975204E-01  0.10700685932E+00 -0.32518369668E-01  0.89005154053E+00  0.88000000000E+00 0. -1.
        -11    1    4    4    0    0  0.44349173035E-02 -0.20264797223E-01  0.12782163117E-01  0.24371608748E-01  0.51100000000E-03 0. -1.
         11    1    4    4    0    0  0.39871181760E-01 -0.89964536668E-01  0.22055646675E-01  0.10084662446E+00  0.51100000000E-03 0.  1.
</event>
<event>
 8    1  0.1042301E+005  0.1043930E+01  0.7957747E-01            NaN
         13   -1    0    0    0    0  0.00000000000E+00  0.00000000000E+00  0.74505805969E-08  0.10566000000E+00  0.10566000000E+00 0. -1.
     999900   -1    0    0    0    0 -0.00000000000E+00 -0.00000000000E+00 -0.74505805969E-08  0.93827000000E+00  0.93827000000E+00 0.  1.
     999902    2    1    2    0    0 -0.21318641997E-01 -0.35135614329E-02  0.10284077794E-01  0.10200011081E+01  0.10197203875E+01 0.  0.
     999903    2    3    3    0    0  0.79054369243E-01 -0.98619266672E-01  0.19012099380E-01  0.12916104676E+00  0.18594704173E-01 0.  0.
         14    1    1    2    0    0  0.21318641997E-01  0.35135614329E-02 -0.10284077794E-01  0.23928891880E-01  0.00000000000E+00 0.  1.
     999901    1    3    3    0    0 -0.10037301124E+00  0.95105705239E-01 -0.87280215865E-02  0.89084006136E+00  0.88000000000E+00 0. -1.
        -11    1    4    4    0    0  0.19638286006E-01 -0.16088973514E-01 -0.14281822942E-02  0.25432620228E-01  0.51100000000E-03 0.  1.
         11    1    4    4    0    0  0.59416083237E-01 -0.82530293158E-01  0.20440281675E-01  0.10372842654E+00  0.51100000000E-03 0. -1.
</event>
<event>
 8    1  0.1042301E+005  0.1043930E+01  0.7957747E-01            NaN
         13   -1    0    0    0    0  0.00000000000E+00  0.00000000000E+00  0.74505805969E-08  0.10566000000E+00  0.10566000000E+00 0. -1.
     999900   -1    0    0    0    0 -0.00000000000E+00 -0.00000000000E+00 -0.74505805969E-08  0.93827000000E+00  0.93827000000E+00 0.  1.
     999902    2    1    2    0    0  0.20144693367E-02 -0.14118200077E-01  0.14372197025E-01  0.10236829828E+01  0.10234827343E+01 0.  0.
     999903    2    3    3    0    0 -0.36070536884E-01  0.11178960509E-02  0.12886197732E+00  0.13531902799E+00  0.20087230127E-01 0.  0.
         14    1    1    2    0    0 -0.20144693367E-02  0.14118200077E-01 -0.14372197025E-01  0.20247017248E-01  0.00000000000E+00 0. -1.
     999901    1    3    3    0    0  0.38085006221E-01 -0.15236096128E-01 -0.11448978030E+00  0.88836395476E+00  0.88000000000E+00 0.  1.
        -11    1    4    4    0    0 -0.13299980448E-01  0.64145771210E-02  0.77341514042E-01  0.78740124428E-01  0.51100000000E-03 0.  1.
         11    1    4    4    0    0 -0.22770556436E-01 -0.52966810700E-02  0.51520463282E-01  0.56578903564E-01  0.51100000000E-03 0. -1.
</event>
<event>
 8    1  0.1042301E+005  0.1043930E+01  0.7957747E-01            NaN
         13   -1    0    0    0    0  0.00000000000E+00  0.00000000000E+00  0.74505805969E-08  0.10566000000E+00  0.10566000000E+00 0.  1.
     999900   -1    0    0    0    0 -0.00000000000E+00 -0.00000000000E+00 -0.74505805969E-08  0.93827000000E+00  0.93827000000E+00 0.  1.
     999902    2    1    2    0    0  0.21044125685E-01 -0.61930338101E-02  0.74235626203E-02  0.10207714557E+01  0.10205087195E+01 0.  0.
     999903    2    3    3    0    0 -0.65877217214E-01  0.36805725889E-01  0.10411698941E+00  0.13017961202E+00  0.20295681688E-01 0.  0.
         14    1    1    2    0    0 -0.21044125685E-01  0.61930338101E-02 -0.74235626203E-02  0.23158544332E-01  0.00000000000E+00 0.  1.
     999901    1    3    3    0    0  0.86921342899E-01 -0.42998759699E-01 -0.96693426793E-01  0.89059184365E+00  0.88000000000E+00 0.  1.
        -11    1    4    4    0    0 -0.40727300607E-01  0.26264735564E-01  0.81162726968E-01  0.94531469463E-01  0.51100000000E-03 0. -1.
         11    1    4    4    0    0 -0.25149916607E-01  0.10540990324E-01  0.22954262446E-01  0.35648142557E-01  0.51100000000E-03 0.  1.
</event>
<event>
 8    1  0.1042301E+005  0.1043930E+01  0.7957747E-01            NaN
         13   -1    0    0    0    0  0.00000000000E+00  0.00000000000E+00  0.74505805969E-08  0.10566000000E+00  0.10566000000E+00 0. -1.
     999900   -1    0    0    0    0 -0.00000000000E+00 -0.00000000000E+00 -0.74505805969E-08  0.93827000000E+00  0.93827000000E+00 0. -1.
     999902    2    1    2    0    0 -0.16516053874E-01 -0.57821163851E-02 -0.12458189703E-01  0.10224493251E+01  0.10222236560E+01 0.  0.
     999903    2    3    3    0    0 -0.13090305004E+00  0.23847204019E-01 -0.37137745691E-02  0.13450859149E+00  0.19351263925E-01 0.  0.
         14    1    1    2    0    0  0.16516053874E-01  0.57821163851E-02  0.12458189703E-01  0.21480674946E-01  0.00000000000E+00 0. -1.
     999901    1    3    3    0    0  0.11438699616E+00 -0.29629320404E-01 -0.87444151339E-02  0.88794073356E+00  0.88000000000E+00 0.  1.
        -11    1    4    4    0    0 -0.10754614311E+00  0.12836661603E-01 -0.66526042788E-02  0.10851484250E+00  0.51100000000E-03 0. -1.
         11    1    4    4    0    0 -0.23356906931E-01  0.11010542416E-01  0.29388297098E-02  0.25993748994E-01  0.51100000000E-03 0.  1.
</event>
<event>
 8    1  0.1042301E+005  0.1043930E+01  0.7957747E-01            NaN
         13   -1    0    0    0    0  0.00000000000E+00  0.00000000000E+00  0.74505805969E-08  0.10566000000E+00  0.10566000000E+00 0.  1.
     999900   -1    0    0    0    0 -0.00000000000E+00 -0.00000000000E+00 -0.74505805969E-08  0.93827000000E+00  0.93827000000E+00 0. -1.
     999902    2    1    2    0    0 -0.18001687839E-01  0.68769021183E-02 -0.16275328425E-01  0.10187062242E+01  0.10183938985E+01 0.  0.
     999903    2    3    3    0    0  0.39462815327E-01 -0.10477529030E+00 -0.59530003677E-01  0.12874029899E+00  0.22250123480E-01 0.  0.
         14    1    1    2    0    0  0.18001687839E-01 -0.68769021183E-02  0.16275328425E-01  0.25223775751E-01  0.00000000000E+00 0. -1.
     999901    1    3    3    0    0 -0.57464503167E-01  0.11165219242E+00  0.43254675252E-01  0.88996592526E+00  0.88000000000E+00 0. -1.
        -11    1    4    4    0    0  0.11763687406E-01 -0.60413984544E-01 -0.36803588780E-01  0.71714706567E-01  0.51100000000E-03 0. -1.
         11    1    4    4    0    0  0.27699127921E-01 -0.44361305754E-01 -0.22726414897E-01  0.57025592420E-01  0.51100000000E-03 0.  1.
</event>
<event>
 8    1  0.1042301E+005  0.1043930E+01  0.7957747E-01            NaN
         13   -1    0    0    0    0  0.00000000000E+00  0.00000000000E+00  0.74505805969E-08  0.10566000000E+00  0.10566000000E+00 0.  1.
     999900   -1    0    0    0    0 -0.00000000000E+00 -0.00000000000E+00 -0.74505805969E-08  0.93827000000E+00  0.93827000000E+00 0.  1.
     999902    2    1    2    0    0 -0.41496152917E-02  0.20161000554E-01  0.12440265193E-01  0.10198791071E+01  0.10195954824E+01 0.  0.
     999903    2    3    3    0    0  0.12683630297E+00  0.26257764580E-02  0.22757104470E-01  0.12995145161E+00  0.16587691773E-01 0.  0.
         14    1    1    2    0    0  0.41496152917E-02 -0.20161000554E-01 -0.12440265193E-01  0.24050892883E-01  0.00000000000E+00 0. -1.
     999901    1    3    3    0    0 -0.13098591826E+00  0.17535224096E-01 -0.10316839276E-01  0.88992765551E+00  0.88000000000E+00 0.  1.
        -11    1    4    4    0    0  0.64776307558E-01  0.91995151990E-02  0.90063800242E-02  0.66045265560E-01  0.51100000000E-03 0. -1.
         11    1    4    4    0    0  0.62059995411E-01 -0.65737387411E-02  0.13750724445E-01  0.63906186048E-01  0.51100000000E-03 0.  1.
</event>
<event>
 8    1  0.1042301E+005  0.1043930E+01  0.7957747E-01            NaN
         13   -1    0    0    0    0  0.00000000000E+00  0.00000000000E+00  0.74505805969E-08  0.10566000000E+00  0.10566000000E+00 0. -1.
     999900   -1    0    0    0    0 -0.00000000000E+00 -0.00000000000E+00 -0.74505805969E-08  0.93827000000E+00  0.93827000000E+00 0. -1.
     999902    2    1    2    0    0  0.21886992133E-01  0.27247730498E-02  0.28594394175E-02  0.10216894693E+01  0.10214473704E+01 0.  0.
     999903    2    3    3    0    0 -0.78743522863E-01 -0.42219594281E-01 -0.91997839470E-01  0.12975651213E+00  0.19751289523E-01 0.  0.
         14    1    1    2    0    0 -0.21886992133E-01 -0.27247730498E-02 -0.28594394175E-02  0.22240530718E-01  0.00000000000E+00 0. -1.
     999901    1    3    3    0    0  0.10063051500E+00  0.44944367331E-01  0.94857278888E-01  0.89193295716E+00  0.88000000000E+00 0.  1.
        -11    1    4    4    0    0 -0.52448068650E-01 -0.31199000480E-01 -0.49505522880E-01  0.78582666363E-01  0.51100000000E-03 0.  1.
         11    1    4    4    0    0 -0.26295454213E-01 -0.11020593801E-01 -0.42492316591E-01  0.51173845764E-01  0.51100000000E-03 0. -1.
</event>
<event>
 8    1  0.1284384E+005  0.1043930E+01  0.7957747E-01            NaN
         13   -1    0    0    0    0  0.00000000000E+00  0.00000000000E+00  0.74505805969E-08  0.10566000000E+00  0.10566000000E+00 0. -1.
     999900   -1    0    0    0    0 -0.00000000000E+00 -0.00000000000E+00 -0.74505805969E-08  0.93827000000E+00  0.93827000000E+00 0. -1.
     999902    2    1    2    0    0  0.24751337010E-02 -0.14905195259E-01  0.18075168436E-01  0.10203715016E+01  0.10200995042E+01 0.  0.
     999903    2    3    3    0    0 -0.12838920279E+00  0.81693711804E-02  0.50652181550E-02  0.13030006122E+00  0.20048029869E-01 0.  0.
         14    1    1    2    0    0 -0.24751337010E-02  0.14905195259E-01 -0.18075168436E-01  0.23558498393E-01  0.00000000000E+00 0.  1.
     999901    1    3    3    0    0  0.13086433649E+00 -0.23074566439E-01  0.13009950281E-01  0.89007144038E+00  0.88000000000E+00 0.  1.
        -11    1    4    4    0    0 -0.71368241574E-01  0.13793963899E-01  0.65108010721E-02  0.72981853888E-01  0.51100000000E-03 0. -1.
         11    1    4    4    0    0 -0.57020961215E-01 -0.56245927183E-02 -0.14455829171E-02  0.57318207335E-01  0.51100000000E-03 0.  1.
</event>
<event>
 8    1  0.1042301E+005  0.1043930E+01  0.7957747E-01            NaN
         13   -1    0    0    0    0  0.00000000000E+00  0.00000000000E+00  0.74505805969E-08  0.10566000000E+00  0.10566000000E+00 0.  1.
     999900   -1    0    0    0    0 -0.00000000000E+00 -0.00000000000E+00 -0.74505805969E-08  0.93827000000E+00  0.93827000000E+00 0.  1.
     999902    2    1    2    0    0  0.11641285285E-01 -0.10825695004E-01 -0.12834978224E-01  0.10234983613E+01  0.10232944071E+01 0.  0.
     999903    2    3    3    0    0 -0.84246582990E-01 -0.97857742017E-01  0.25703875894E-01  0.13318700911E+00  0.20111333688E-01 0.  0.
         14    1    1    2    0    0 -0.11641285285E-01  0.10825695004E-01  0.12834978224E-01  0.20431638736E-01  0.00000000000E+00 0. -1.
     999901    1    3    3    0    0  0.95887868275E-01  0.87032047013E-01 -0.38538854118E-01  0.89031135215E+00  0.88000000000E+00 0.  1.
        -11    1    4    4    0    0 -0.16627698274E-01 -0.31726256026E-01  0.32145988176E-02  0.35967074357E-01  0.51100000000E-03 0. -1.
         11    1    4    4    0    0 -0.67618884717E-01 -0.66131485992E-01  0.22489277076E-01  0.97219934757E-01  0.51100000000E-03 0.  1.
</event>
<event>
 8    1  0.1042301E+005  0.1043930E+01  0.7957747E-01            NaN
         13   -1    0    0    0    0  0.00000000000E+00  0.00000000000E+00  0.74505805969E-08  0.10566000000E+00  0.10566000000E+00 0. -1.
     999900   -1    0    0    0    0 -0.00000000000E+00 -0.00000000000E+00 -0.74505805969E-08  0.93827000000E+00  0.93827000000E+00 0.  1.
     999902    2    1    2    0    0 -0.75620400877E-02  0.18224544845E-01 -0.12869471087E-01  0.10203727979E+01  0.10201008308E+01 0.  0.
     999903    2    3    3    0    0  0.12132684737E-02  0.27272678468E-01 -0.12835472989E+00  0.13273789560E+00  0.19978519250E-01 0.  0.
         14    1    1    2    0    0  0.75620400877E-02 -0.18224544845E-01  0.12869471087E-01  0.23557202108E-01  0.00000000000E+00 0. -1.
     999901    1    3    3    0    0 -0.87753085613E-02 -0.90481336224E-02  0.11548525881E+00  0.88763490229E+00  0.88000000000E+00 0. -1.
        -11    1    4    4    0    0 -0.87754951434E-02  0.17527434224E-01 -0.82846020639E-01  0.85134860793E-01  0.51100000000E-03 0. -1.
         11    1    4    4    0    0  0.99887636170E-02  0.97452442440E-02 -0.45508709254E-01  0.47603034808E-01  0.51100000000E-03 0.  1.
</event>
<event>
 8    1  0.1042301E+005  0.1043930E+01  0.7957747E-01            NaN
         13   -1    0    0    0    0  0.00000000000E+00  0.00000000000E+00  0.74505805969E-08  0.10566000000E+00  0.10566000000E+00 0.  1.
     999900   -1    0    0    0    0 -0.00000000000E+00 -0.00000000000E+00 -0.74505805969E-08  0.93827000000E+00  0.93827000000E+00 0. -1.
     999902    2    1    2    0    0  0.23033647785E-01 -0.23551861905E-02 -0.14719161233E-02  0.10207295179E+01  0.10204658183E+01 0.  0.
     999903    2    3    3    0    0  0.11375533949E+00 -0.64475893303E-01 -0.18837903393E-01  0.13371712503E+00  0.20687794533E-01 0.  0.
         14    1    1    2    0    0 -0.23033647785E-01  0.23551861905E-02  0.14719161233E-02  0.23200482093E-01  0.00000000000E+00 0. -1.
     999901    1    3    3    0    0 -0.90721691707E-01  0.62120707112E-01  0.17365987269E-01  0.88701239287E+00  0.88000000000E+00 0. -1.
        -11    1    4    4    0    0  0.92270180767E-01 -0.49110359322E-01 -0.22849251475E-01  0.10699515440E+00  0.51100000000E-03 0.  1.
         11    1    4    4    0    0  0.21485158725E-01 -0.15365533981E-01  0.40113480824E-02  0.26721970631E-01  0.51100000000E-03 0. -1.
</event>
<event>
 8    1  0.1042301E+005  0.1043930E+01  0.7957747E-01            NaN
         13   -1    0    0    0    0  0.00000000000E+00  0.00000000000E+00  0.74505805969E-08  0.10566000000E+00  0.10566000000E+00 0.  1.
     999900   -1    0    0    0    0 -0.00000000000E+00 -0.00000000000E+00 -0.74505805969E-08  0.93827000000E+00  0.93827000000E+00 0.  1.
     999902    2    1    2    0    0  0.25042440689E-01  0.12349633875E-01 -0.12043231994E-01  0.10135215023E+01  0.10130652294E+01 0.  0.
     999903    2    3    3    0    0 -0.10330157757E-01  0.10037387607E+00 -0.73067526044E-01  0.12632172079E+00  0.20897048239E-01 0.  0.
         14    1    1    2    0    0 -0.25042440689E-01 -0.12349633875E-01  0.12043231994E-01  0.30408497651E-01  0.00000000000E+00 0.  1.
     999901    1    3    3    0    0  0.35372598446E-01 -0.88024242192E-01  0.61024294051E-01  0.88719978156E+00  0.88000000000E+00 0.  1.
        -11    1    4    4    0    0 -0.13717464158E-01  0.48121769184E-01 -0.42739810358E-01  0.65809011562E-01  0.51100000000E-03 0.  1.
         11    1    4    4    0    0  0.33873064007E-02  0.52252106883E-01 -0.30327715687E-01  0.60512709229E-01  0.51100000000E-03 0. -1.
</event>
<event>
 8    1  0.1042301E+005  0.1043930E+01  0.7957747E-01            NaN
         13   -1    0    0    0    0  0.00000000000E+00  0.00000000000E+00  0.74505805969E-08  0.10566000000E+00  0.10566000000E+00 0.  1.
     999900   -1    0    0    0    0 -0.00000000000E+00 -0.00000000000E+00 -0.74505805969E-08  0.93827000000E+00  0.93827000000E+00 0.  1.
     999902    2    1    2    0    0  0.57729356157E-02 -0.17065232722E-01 -0.16240370362E-01  0.10196751328E+01  0.10193866184E+01 0.  0.
     999903    2    3    3    0    0  0.42640811418E-01 -0.56502337033E-01  0.10681869944E+00  0.12947399815E+00  0.18507532470E-01 0.  0.
         14    1    1    2    0    0 -0.57729356157E-02  0.17065232722E-01  0.16240370362E-01  0.24254867201E-01  0.00000000000E+00 0.  1.
     999901    1    3    3    0    0 -0.36867875802E-01  0.39437104311E-01 -0.12305906981E+00  0.89020113465E+00  0.88000000000E+00 0.  1.
        -11    1    4    4    0    0  0.22315383579E-01 -0.34121702612E-01  0.76308069564E-01  0.86518492445E-01  0.51100000000E-03 0.  1.
         11    1    4    4    0    0  0.20325427838E-01 -0.22380634421E-01  0.30510629881E-01  0.42955505708E-01  0.51100000000E-03 0. -1.
</event>
<event>
 8    1  0.1042301E+005  0.1043930E+01  0.7957747E-01            NaN
         13   -1    0    0    0    0  0.00000000000E+00  0.00000000000E+00  0.74505805969E-08  0.10566000000E+00  0.10566000000E+00 0.  1.
     999900   -1    0    0    0    0 -0.00000000000E+00 -0.00000000000E+00 -0.74505805969E-08  0.93827000000E+00  0.93827000000E+00 0.  1.
     999902    2    1    2    0    0 -0.23473422531E-01  0.20948196966E-02  0.52493617160E-03  0.10203574441E+01  0.10200851182E+01 0.  0.
     999903    2    3    3    0    0  0.31102913440E-01 -0.12140441159E+00  0.27197566434E-01  0.12965992764E+00  0.19119802278E-01 0.  0.
         14    1    1    2    0    0  0.23473422531E-01 -0.20948196966E-02 -0.52493617160E-03  0.23572555926E-01  0.00000000000E+00 0.  1.
     999901    1    3    3    0    0 -0.54576335971E-01  0.12349923128E+00 -0.26672630262E-01  0.89069751643E+00  0.88000000000E+00 0.  1.
        -11    1    4    4    0    0  0.19164924831E-01 -0.40352948657E-01  0.63798792897E-02  0.45128913014E-01  0.51100000000E-03 0. -1.
         11    1    4    4    0    0  0.11937988610E-01 -0.81051462928E-01  0.20817687144E-01  0.84531014627E-01  0.51100000000E-03 0.  1.
</event>
<event>
 8    1  0.1042301E+005  0.1043930E+01  0.7957747E-01            NaN
         13   -1    0    0    0    0  0.00000000000E+00  0.00000000000E+00  0.74505805969E-08  0.10566000000E+00  0.10566000000E+00 0.  1.
     999900   -1    0    0    0    0 -0.00000000000E+00 -0.00000000000E+00 -0.74505805969E-08  0.93827000000E+00  0.93827000000E+00 0.  1.
     999902    2    1    2    0    0  0.88326377027E-02 -0.21744512626E-01 -0.36150525648E-02  0.10201832545E+01  0.10199068412E+01 0.  0.
     999903    2    3    3    0    0 -0.86371205443E-01 -0.92497068181E-01 -0.31218634781E-01  0.13179614650E+00  0.19491750089E-01 0.  0.
         14    1    1    2    0    0 -0.88326377027E-02  0.21744512626E-01  0.36150525648E-02  0.23746745528E-01  0.00000000000E+00 0.  1.
     999901    1    3    3    0    0  0.95203843146E-01  0.70752555555E-01  0.27603582216E-01  0.88838710798E+00  0.88000000000E+00 0. -1.
        -11    1    4    4    0    0 -0.31498103293E-01 -0.44843324692E-01 -0.73211841526E-02  0.55289376366E-01  0.51100000000E-03 0. -1.
         11    1    4    4    0    0 -0.54873102151E-01 -0.47653743489E-01 -0.23897450628E-01  0.76506770130E-01  0.51100000000E-03 0.  1.
</event>
<event>
 8    1  0.1042301E+005  0.1043930E+01  0.7957747E-01            NaN
         13   -1    0    0    0    0  0.00000000000E+00  0.00000000000E+00  0.74505805969E-08  0.10566000000E+00  0.10566000000E+00 0.  1.
     999900   -1    0    0    0    0 -0.00000000000E+00 -0.00000000000E+00 -0.74505805969E-08  0.93827000000E+00  0.93827000000E+00 0.  1.
     999902    2    1    2    0    0 -0.45176240754E-02 -0.22644852140E-01 -0.25667098776E-02  0.10206966994E+01  0.10204322447E+01 0.  0.
     999903    2    3    3    0    0  0.98175026087E-01  0.29261104113E-01  0.76966384129E-01  0.12964926987E+00  0.19762614452E-01 0.  0.
         14    1    1    2    0    0  0.45176240754E-02  0.22644852140E-01  0.25667098776E-02  0.23233300568E-01  0.00000000000E+00 0. -1.
     999901    1    3    3    0    0 -0.10269265016E+00 -0.51905956253E-01 -0.79533094007E-01  0.89104742956E+00  0.88000000000E+00 0. -1.
        -11    1    4    4    0    0  0.38201299105E-01  0.19381132158E-02  0.24718021994E-01  0.45544892891E-01  0.51100000000E-03 0. -1.
         11    1    4    4    0    0  0.59973726982E-01  0.27322990898E-01  0.52248362135E-01  0.84104376976E-01  0.51100000000E-03 0.  1.
</event>
<event>
 8    1  0.1042301E+005  0.1043930E+01  0.7957747E-01            NaN
         13   -1    0    0    0    0  0.00000000000E+00  0.00000000000E+00  0.74505805969E-08  0.10566000000E+00  0.10566000000E+00 0.  1.
     999900   -1    0    0    0    0 -0.00000000000E+00 -0.00000000000E+00 -0.74505805969E-08  0.93827000000E+00  0.93827000000E+00 0.  1.
     999902    2    1    2    0    0 -0.19507354749E-01  0.44969308137E-02  0.11820516967E-01  0.10206816904E+01  0.10204168900E+01 0.  0.
     999903    2    3    3    0    0  0.10721298004E+00 -0.57730118627E-01 -0.34527367739E-01  0.12822531876E+00  0.20547592601E-01 0.  0.
         14    1    1    2    0    0  0.19507354749E-01 -0.44969308137E-02 -0.11820516967E-01  0.23248309561E-01  0.00000000000E+00 0. -1.
     999901    1    3    3    0    0 -0.12672033479E+00  0.62227049441E-01  0.46347884706E-01  0.89245637168E+00  0.88000000000E+00 0. -1.
        -11    1    4    4    0    0  0.92982230773E-01 -0.41476854439E-01 -0.26884152691E-01  0.10530452735E+00  0.51100000000E-03 0. -1.
         11    1    4    4    0    0  0.14230749271E-01 -0.16253264189E-01 -0.76432150488E-02  0.22920791411E-01  0.51100000000E-03 0.  1.
</event>
<event>
 8    1  0.1042301E+005  0.1043930E+01  0.7957747E-01            NaN
         13   -1    0    0    0    0  0.00000000000E+00  0.00000000000E+00  0.74505805969E-08  0.10566000000E+00  0.10566000000E+00 0.  1.
     999900   -1    0    0    0    0 -0.00000000000E+00 -0.00000000000E+00 -0.74505805969E-08  0.93827000000E+00  0.93827000000E+00 0. -1.
     999902    2    1    2    0    0 -0.19606133980E-01  0.71785425339E-02 -0.12061730035E-01  0.10198174038E+01  0.10195323045E+01 0.  0.
     999903    2    3    3    0    0 -0.77351367817E-01 -0.13071007251E-01 -0.10510101807E+00  0.13279944155E+00  0.20865817576E-01 0.  0.
         14    1    1    2    0    0  0.19606133980E-01 -0.71785425339E-02  0.12061730035E-01  0.24112596169E-01  0.00000000000E+00 0.  1.
     999901    1    3    3    0    0  0.57745233837E-01  0.20249549784E-01  0.93039288030E-01  0.88701796228E+00  0.88000000000E+00 0.  1.
        -11    1    4    4    0    0 -0.28883489007E-01 -0.49764208564E-02 -0.56673230126E-01  0.63805460861E-01  0.51100000000E-03 0.  1.
         11    1    4    4    0    0 -0.48467878810E-01 -0.80945863942E-02 -0.48427787940E-01  0.68993980686E-01  0.51100000000E-03 0. -1.
</event>
<event>
 7    1  0.1042301E+005  0.1043930E+01  0.7957747E-01            NaN
         13   -1    0    0    0    0  0.00000000000E+00  0.00000000000E+00  0.74505805969E-08  0.10566000000E+00  0.10566000000E+00 0. -1.
     999900   -1    0    0    0    0 -0.00000000000E+00 -0.00000000000E+00 -0.74505805969E-08  0.93827000000E+00  0.93827000000E+00 0.  1.
     999903    2    1    2    0    0 -0.10761140388E-02 -0.80207619328E-01 -0.49607544106E-01  0.96399257532E-01  0.19937106129E-01 0.  0.
         14    1    1    2    0    0 -0.10647228800E-01  0.62749750537E-01  0.20248898100E-01  0.66790063241E-01  0.00000000000E+00 0.  1.
     999901    1    1    2    0    0  0.11723342839E-01  0.17457868791E-01  0.29358646006E-01  0.88074067923E+00  0.88000000000E+00 0. -1.
        -11    1    3    3    0    0  0.22204471219E-02 -0.58886230562E-01 -0.45451591201E-01  0.74421951055E-01  0.51100000000E-03 0. -1.
         11    1    3    3    0    0 -0.32965611607E-02 -0.21321388766E-01 -0.41559529043E-02  0.21977306476E-01  0.51100000000E-03 0.  1.
</event>
<event>
 8    1  0.1042301E+005  0.1043930E+01  0.7957747E-01            NaN
         13   -1    0    0    0    0  0.00000000000E+00  0.00000000000E+00  0.74505805969E-08  0.10566000000E+00  0.10566000000E+00 0.  1.
     999900   -1    0    0    0    0 -0.00000000000E+00 -0.00000000000E+00 -0.74505805969E-08  0.93827000000E+00  0.93827000000E+00 0.  1.
     999902    2    1    2    0    0 -0.13390283880E-01  0.84327963157E-02  0.17265206300E-01  0.10205099423E+01  0.10202411691E+01 0.  0.
     999903    2    3    3    0    0 -0.87776273211E-01  0.66964375066E-01  0.72757701879E-01  0.13369618606E+00  0.19801144325E-01 0.  0.
         14    1    1    2    0    0  0.13390283880E-01 -0.84327963157E-02 -0.17265206300E-01  0.23420057743E-01  0.00000000000E+00 0.  1.
     999901    1    3    3    0    0  0.74385989331E-01 -0.58531578751E-01 -0.55492495579E-01  0.88681375620E+00  0.88000000000E+00 0.  1.
        -11    1    4    4    0    0 -0.87574872725E-01  0.63325268923E-01  0.72206167948E-01  0.12997476612E+00  0.51100000000E-03 0. -1.
         11    1    4    4    0    0 -0.20140048643E-03  0.36391061438E-02  0.55153393171E-03  0.37214199386E-02  0.51100000000E-03 0.  1.
</event>
<event>
 8    1  0.1243571E+005  0.1043930E+01  0.7957747E-01            NaN
         13   -1    0    0    0    0  0.00000000000E+00  0.00000000000E+00  0.74505805969E-08  0.10566000000E+00  0.10566000000E+00 0.  1.
     999900   -1    0    0    0    0 -0.00000000000E+00 -0.00000000000E+00 -0.74505805969E-08  0.93827000000E+00  0.93827000000E+00 0.  1.
     999902    2    1    2    0    0  0.14188295457E-01  0.15259365638E-01 -0.24786021409E-01  0.10115494067E+01  0.10110310081E+01 0.  0.
     999903    2    3    3    0    0  0.11845157985E+00 -0.17157280138E-02 -0.34824446152E-01  0.12517490553E+00  0.20549803725E-01 0.  0.
         14    1    1    2    0    0 -0.14188295457E-01 -0.15259365638E-01  0.24786021409E-01  0.32380593338E-01  0.00000000000E+00 0.  1.
     999901    1    3    3    0    0 -0.10426328440E+00  0.16975093652E-01  0.10038424743E-01  0.88637450113E+00  0.88000000000E+00 0.  1.
        -11    1    4    4    0    0  0.80720846018E-01 -0.10571890483E-01 -0.25462565450E-01  0.85300780832E-01  0.51100000000E-03 0.  1.
         11    1    4    4    0    0  0.37730733837E-01  0.88561624689E-02 -0.93618807021E-02  0.39874124703E-01  0.51100000000E-03 0. -1.
</event>
<event>
 8    1  0.1042301E+005  0.1043930E+01  0.7957747E-01            NaN
         13   -1    0    0    0    0  0.00000000000E+00  0.00000000000E+00  0.74505805969E-08  0.10566000000E+00  0.10566000000E+00 0. -1.
     999900   -1    0    0    0    0 -0.00000000000E+00 -0.00000000000E+00 -0.74505805969E-08  0.93827000000E+00  0.93827000000E+00 0.  1.
     999902    2    1    2    0    0  0.15175536573E-01 -0.65670068423E-02  0.16746173470E-01  0.10203958373E+01  0.10201244081E+01 0.  0.
     999903    2    3    3    0    0  0.97759467859E-01 -0.48201625336E-01  0.74747130890E-01  0.13365029417E+00  0.19873532999E-01 0.  0.
         14    1    1    2    0    0 -0.15175536573E-01  0.65670068423E-02 -0.16746173470E-01  0.23534162722E-01  0.00000000000E+00 0. -1.
     999901    1    3    3    0    0 -0.82583931287E-01  0.41634618494E-01 -0.58000957420E-01  0.88674554311E+00  0.88000000000E+00 0.  1.
        -11    1    4    4    0    0  0.72996211991E-01 -0.41573200918E-01  0.48704220350E-01  0.97103759971E-01  0.51100000000E-03 0.  1.
         11    1    4    4    0    0  0.24763255869E-01 -0.66284244184E-02  0.26042910539E-01  0.36546534197E-01  0.51100000000E-03 0. -1.
</event>
<event>
 8    1  0.1042301E+005  0.1043930E+01  0.7957747E-01            NaN
         13   -1    0    0    0    0  0.00000000000E+00  0.00000000000E+00  0.74505805969E-08  0.10566000000E+00  0.10566000000E+00 0.  1.
     999900   -1    0    0    0    0 -0.00000000000E+00 -0.00000000000E+00 -0.74505805969E-08  0.93827000000E+00  0.93827000000E+00 0.  1.
     999902    2    1    2    0    0 -0.13504969501E-01  0.15809993401E-01 -0.10615694807E-01  0.10205840567E+01  0.10203170016E+01 0.  0.
     999903    2    3    3    0    0 -0.32437581135E-01 -0.12188118462E+00 -0.20674269209E-01  0.12961914201E+00  0.21598072415E-01 0.  0.
         14    1    1    2    0    0  0.13504969501E-01 -0.15809993401E-01  0.10615694807E-01  0.23345943305E-01  0.00000000000E+00 0.  1.
     999901    1    3    3    0    0  0.18932611634E-01  0.13769117802E+00  0.10058574402E-01  0.89096491469E+00  0.88000000000E+00 0. -1.
        -11    1    4    4    0    0 -0.24827550840E-01 -0.80545128075E-01 -0.39451904747E-02  0.84378614507E-01  0.51100000000E-03 0. -1.
         11    1    4    4    0    0 -0.76100302946E-02 -0.41336056548E-01 -0.16729078734E-01  0.45240527498E-01  0.51100000000E-03 0.  1.
</event>
<event>
 8    1  0.1042301E+005  0.1043930E+01  0.7957747E-01            NaN
         13   -1    0    0    0    0  0.00000000000E+00  0.00000000000E+00  0.74505805969E-08  0.10566000000E+00  0.10566000000E+00 0.  1.
     999900   -1    0    0    0    0 -0.00000000000E+00 -0.00000000000E+00 -0.74505805969E-08  0.93827000000E+00  0.93827000000E+00 0. -1.
     999902    2    1    2    0    0  0.35471582559E-02 -0.14372690157E-01  0.17284594822E-01  0.10211722810E+01  0.10209186617E+01 0.  0.
     999903    2    3    3    0    0 -0.28466927367E-02  0.12016182951E+00  0.46264501867E-01  0.13045332799E+00  0.20753258033E-01 0.  0.
         14    1    1    2    0    0 -0.35471582559E-02  0.14372690157E-01 -0.17284594822E-01  0.22757718959E-01  0.00000000000E+00 0. -1.
     999901    1    3    3    0    0  0.63938509926E-02 -0.13453451967E+00 -0.28979907045E-01  0.89071895305E+00  0.88000000000E+00 0. -1.
        -11    1    4    4    0    0 -0.75560918076E-02  0.57781982392E-01  0.13442212328E-01  0.59806406060E-01  0.51100000000E-03 0.  1.
         11    1    4    4    0    0  0.47093990709E-02  0.62379847121E-01  0.32822289540E-01  0.70646921929E-01  0.51100000000E-03 0. -1.
</event>
<event>
 8    1  0.1042301E+005  0.1043930E+01  0.7957747E-01            NaN
         13   -1    0    0    0    0  0.00000000000E+00  0.00000000000E+00  0.74505805969E-08  0.10566000000E+00  0.10566000000E+00 0. -1.
     999900   -1    0    0    0    0 -0.00000000000E+00 -0.00000000000E+00 -0.74505805969E-08  0.93827000000E+00  0.93827000000E+00 0.  1.
     999902    2    1    2    0    0  0.78652467142E-02 -0.22052952341E-01 -0.16894383124E-02  0.10204555668E+01  0.10201855296E+01 0.  0.
     999903    2    3    3    0    0  0.12759963537E+00 -0.17813291654E-01 -0.21222591719E-01  0.13212238457E+00  0.20172897629E-01 0.  0.
         14    1    1    2    0    0 -0.78652467142E-02  0.22052952341E-01  0.16894383124E-02  0.23474433212E-01  0.00000000000E+00 0. -1.
     999901    1    3    3    0    0 -0.11973438866E+00 -0.42396606868E-02  0.19533153407E-01  0.88833318222E+00  0.88000000000E+00 0. -1.
        -11    1    4    4    0    0  0.67491235594E-01  0.71186205612E-03 -0.10191219603E-01  0.68261963842E-01  0.51100000000E-03 0.  1.
         11    1    4    4    0    0  0.60108399776E-01 -0.18525153710E-01 -0.11031372116E-01  0.63860420727E-01  0.51100000000E-03 0. -1.
</event>
<event>
 8    1  0.1042301E+005  0.1043930E+01  0.7957747E-01            NaN
         13   -1    0    0    0    0  0.00000000000E+00  0.00000000000E+00  0.74505805969E-08  0.10566000000E+00  0.10566000000E+00 0. -1.
     999900   -1    0    0    0    0 -0.00000000000E+00 -0.00000000000E+00 -0.74505805969E-08  0.93827000000E+00  0.93827000000E+00 0. -1.
     999902    2    1    2    0    0 -0.19498849121E-02 -0.24928869001E-01 -0.65629592657E-02  0.10180780563E+01  0.10177497756E+01 0.  0.
     999903    2    3    3    0    0 -0.49859235692E-02 -0.71790820305E-01  0.10598875395E+00  0.12966759473E+00  0.20032170250E-01 0.  0.
         14    1    1    2    0    0  0.19498849121E-02  0.24928869001E-01  0.65629592657E-02  0.25851943741E-01  0.00000000000E+00 0. -1.
     999901    1    3    3    0    0  0.30360386571E-02  0.46861951304E-01 -0.11255171321E+00  0.88841046153E+00  0.88000000000E+00 0. -1.
        -11    1    4    4    0    0 -0.69293027584E-02 -0.52184884303E-01  0.61158452244E-01  0.80696312111E-01  0.51100000000E-03 0.  1.
         11    1    4    4    0    0  0.19433791892E-02 -0.19605936003E-01  0.44830301705E-01  0.48971282617E-01  0.51100000000E-03 0. -1.
</event>
<event>
 8    1  0.1042301E+005  0.1043930E+01  0.7957747E-01            NaN
         13   -1    0    0    0    0  0.00000000000E+00  0.00000000000E+00  0.74505805969E-08  0.10566000000E+00  0.10566000000E+00 0.  1.
     999900   -1    0    0    0    0 -0.00000000000E+00 -0.00000000000E+00 -0.74505805969E-08  0.93827000000E+00  0.93827000000E+00 0. -1.
     999902    2    1    2    0    0  0.26051449005E-02 -0.15491236970E-01 -0.17481656082E-01  0.10204273724E+01  0.10201566786E+01 0.  0.
     999903    2    3    3    0    0  0.71112910611E-02 -0.31175553166E-02  0.12683713992E+00  0.12857462213E+00  0.19582741963E-01 0.  0.
         14    1    1    2    0    0 -0.26051449005E-02  0.15491236970E-01  0.17481656082E-01  0.23502627559E-01  0.00000000000E+00 0.  1.
     999901    1    3    3    0    0 -0.45061461606E-02 -0.12373681653E-01 -0.14431879600E+00  0.89185275031E+00  0.88000000000E+00 0. -1.
        -11    1    4    4    0    0 -0.30694297121E-02  0.60292859427E-02  0.57407760753E-01  0.57807316176E-01  0.51100000000E-03 0. -1.
         11    1    4    4    0    0  0.10180720773E-01 -0.91468412593E-02  0.69429379164E-01  0.70767305958E-01  0.51100000000E-03 0.  1.
</event>
<event>
 8    1  0.1042301E+005  0.1043930E+01  0.7957747E-01            NaN
         13   -1    0    0    0    0  0.00000000000E+00  0.00000000000E+00  0.74505805969E-08  0.10566000000E+00  0.10566000000E+00 0.  1.
     999900   -1    0    0    0    0 -0.00000000000E+00 -0.00000000000E+00 -0.74505805969E-08  0.93827000000E+00  0.93827000000E+00 0. -1.
     999902    2    1    2    0    0  0.58299542253E-02 -0.19380150988E-01  0.16470040100E-01  0.10178370730E+01  0.10175025633E+01 0.  0.
     999903    2    3    3    0    0 -0.10626189532E+00 -0.27208906216E-01  0.65421941953E-01  0.12934275065E+00  0.20435304837E-01 0.  0.
         14    1    1    2    0    0 -0.58299542253E-02  0.19380150988E-01 -0.16470040100E-01  0.26092927001E-01  0.00000000000E+00 0. -1.
     999901    1    3    3    0    0  0.11209184954E+00  0.78287552275E-02 -0.48951901854E-01  0.88849432234E+00  0.88000000000E+00 0. -1.
        -11    1    4    4    0    0 -0.90306504740E-01 -0.15182088890E-01  0.54513843117E-01  0.10657288977E+00  0.51100000000E-03 0.  1.
         11    1    4    4    0    0 -0.15955390579E-01 -0.12026817326E-01  0.10908098836E-01  0.22769860885E-01  0.51100000000E-03 0. -1.
</event>
<event>
 8    1  0.1042301E+005  0.1043930E+01  0.7957747E-01            NaN
         13   -1    0    0    0    0  0.00000000000E+00  0.00000000000E+00  0.74505805969E-08  0.10566000000E+00  0.10566000000E+00 0. -1.
     999900   -1    0    0    0    0 -0.00000000000E+00 -0.00000000000E+00 -0.74505805969E-08  0.93827000000E+00  0.93827000000E+00 0.  1.
     999902    2    1    2    0    0 -0.16711126220E-01  0.79783409179E-02 -0.15302391378E-01  0.10199075346E+01  0.10196245879E+01 0.  0.
     999903    2    3    3    0    0  0.12960648109E-01 -0.33327309680E-01 -0.12514523331E+00  0.13162153283E+00  0.19601288601E-01 0.  0.
         14    1    1    2    0    0  0.16711126220E-01 -0.79783409179E-02  0.15302391378E-01  0.24022465428E-01  0.00000000000E+00 0. -1.
     999901    1    3    3    0    0 -0.29671774329E-01  0.41305650598E-01  0.10984284193E+00  0.88828600174E+00  0.88000000000E+00 0. -1.
        -11    1    4    4    0    0  0.15825882240E-01 -0.13902198626E-01 -0.61032141318E-01  0.64567120659E-01  0.51100000000E-03 0. -1.
         11    1    4    4    0    0 -0.28652341306E-02 -0.19425111054E-01 -0.64113091992E-01  0.67054412173E-01  0.51100000000E-03 0.  1.
</event>
<event>
 8    1  0.1042301E+005  0.1043930E+01  0.7957747E-01            NaN
         13   -1    0    0    0    0  0.00000000000E+00  0.00000000000E+00  0.74505805969E-08  0.10566000000E+00  0.10566000000E+00 0. -1.
     999900   -1    0    0    0    0 -0.00000000000E+00 -0.00000000000E+00 -0.74505805969E-08  0.93827000000E+00  0.93827000000E+00 0.  1.
     999902    2    1    2    0    0 -0.16926542614E-01  0.28517748497E-01  0.13127613520E-01  0.10082634322E+01  0.10076323956E+01 0.  0.
     999903    2    3    3    0    0  0.98080777366E-01  0.65700812244E-01  0.46410713505E-02  0.11996095819E+00  0.20800392499E-01 0.  0.
         14    1    1    2    0    0  0.16926542614E-01 -0.28517748497E-01 -0.13127613520E-01  0.35666567832E-01  0.00000000000E+00 0.  1.
     999901    1    3    3    0    0 -0.11500731998E+00 -0.37183063747E-01  0.84865421697E-02  0.88830247398E+00  0.88000000000E+00 0.  1.
        -11    1    4    4    0    0  0.59128591763E-01  0.39110686933E-01  0.12953735054E-01  0.72068693405E-01  0.51100000000E-03 0. -1.
         11    1    4    4    0    0  0.38952185603E-01  0.26590125311E-01 -0.83126637033E-02  0.47892264784E-01  0.51100000000E-03 0.  1.
</event>
<event>
 8    1  0.1042301E+005  0.1043930E+01  0.7957747E-01            NaN
         13   -1    0    0    0    0  0.00000000000E+00  0.00000000000E+00  0.74505805969E-08  0.10566000000E+00  0.10566000000E+00 0. -1.
     999900   -1    0    0    0    0 -0.00000000000E+00 -0.00000000000E+00 -0.74505805969E-08  0.93827000000E+00  0.93827000000E+00 0.  1.
     999902    2    1    2    0    0 -0.48235934194E-02 -0.17060832684E-01  0.15267680096E-01  0.10205325403E+01  0.10202642916E+01 0.  0.
     999903    2    3    3    0    0 -0.55917891489E-01  0.67167667767E-02 -0.11455764665E+00  0.12922416661E+00  0.20087440960E-01 0.  0.
         14    1    1    2    0    0  0.48235934194E-02  0.17060832684E-01 -0.15267680096E-01  0.23397459710E-01  0.00000000000E+00 0.  1.
     999901    1    3    3    0    0  0.51094298069E-01 -0.23777599461E-01  0.12982532675E+00  0.89130837368E+00  0.88000000000E+00 0. -1.
        -11    1    4    4    0    0 -0.18377089830E-01  0.83654535060E-02 -0.25270000212E-01  0.32350151077E-01  0.51100000000E-03 0. -1.
         11    1    4    4    0    0 -0.37540801659E-01 -0.16486867293E-02 -0.89287646441E-01  0.96874015530E-01  0.51100000000E-03 0.  1.
</event>
<event>
 8    1  0.1042301E+005  0.1043930E+01  0.7957747E-01            NaN
         13   -1    0    0    0    0  0.00000000000E+00  0.00000000000E+00  0.74505805969E-08  0.10566000000E+00  0.10566000000E+00 0. -1.
     999900   -1    0    0    0    0 -0.00000000000E+00 -0.00000000000E+00 -0.74505805969E-08  0.93827000000E+00  0.93827000000E+00 0.  1.
     999902    2    1    2    0    0 -0.38217847962E-02 -0.19720684787E-01  0.11691409086E-01  0.10206877864E+01  0.10204231263E+01 0.  0.
     999903    2    3    3    0    0  0.62582369146E-01  0.25336818527E-01 -0.10797903603E+00  0.12896994665E+00  0.20378116060E-01 0.  0.
         14    1    1    2    0    0  0.38217847962E-02  0.19720684787E-01 -0.11691409086E-01  0.23242213619E-01  0.00000000000E+00 0.  1.
     999901    1    3    3    0    0 -0.66404153942E-01 -0.45057503314E-01  0.11967044512E+00  0.89171783973E+00  0.88000000000E+00 0.  1.
        -11    1    4    4    0    0  0.51495975474E-01  0.13042542467E-01 -0.90121821112E-01  0.10461427802E+00  0.51100000000E-03 0. -1.
         11    1    4    4    0    0  0.11086393672E-01  0.12294276060E-01 -0.17857214922E-01  0.24355668627E-01  0.51100000000E-03 0.  1.
</event>
<event>
 8    1  0.1042301E+005  0.1043930E+01  0.7957747E-01            NaN
         13   -1    0    0    0    0  0.00000000000E+00  0.00000000000E+00  0.74505805969E-08  0.10566000000E+00  0.10566000000E+00 0. -1.
     999900   -1    0    0    0    0 -0.00000000000E+00 -0.00000000000E+00 -0.74505805969E-08  0.93827000000E+00  0.93827000000E+00 0. -1.
     999902    2    1    2    0    0  0.36113832842E-02  0.27734504250E-01 -0.19745517566E-01  0.10096936118E+01  0.10091130062E+01 0.  0.
     999903    2    3    3    0    0 -0.29197361250E-01  0.10198199588E+00 -0.62752051471E-01  0.12491190666E+00  0.20306429379E-01 0.  0.
         14    1    1    2    0    0 -0.36113832842E-02 -0.27734504250E-01  0.19745517566E-01  0.34236388232E-01  0.00000000000E+00 0. -1.
     999901    1    3    3    0    0  0.32808744535E-01 -0.74247491633E-01  0.43006533905E-01  0.88478170511E+00  0.88000000000E+00 0. -1.
        -11    1    4    4    0    0 -0.17177107396E-01  0.28638971721E-01 -0.23699625941E-01  0.40953352860E-01  0.51100000000E-03 0.  1.
         11    1    4    4    0    0 -0.12020253854E-01  0.73343024161E-01 -0.39052425530E-01  0.83958553803E-01  0.51100000000E-03 0. -1.
</event>
<event>
 8    1  0.1042301E+005  0.1043930E+01  0.7957747E-01            NaN
         13   -1    0    0    0    0  0.00000000000E+00  0.00000000000E+00  0.74505805969E-08  0.10566000000E+00  0.10566000000E+00 0.  1.
     999900   -1    0    0    0    0 -0.00000000000E+00 -0.00000000000E+00 -0.74505805969E-08  0.93827000000E+00  0.93827000000E+00 0. -1.
     999902    2    1    2    0    0  0.19523680922E-01  0.99615776767E-02 -0.18537413544E-01  0.10152238535E+01  0.10148179294E+01 0.  0.
     999903    2    3    3    0    0  0.10645677490E+00  0.14547458479E-01  0.64763455100E-01  0.12701361495E+00  0.19836325148E-01 0.  0.
         14    1    1    2    0    0 -0.19523680922E-01 -0.99615776767E-02  0.18537413544E-01  0.28706146510E-01  0.00000000000E+00 0.  1.
     999901    1    3    3    0    0 -0.86933093979E-01 -0.45858808026E-02 -0.83300868643E-01  0.88821023854E+00  0.88000000000E+00 0.  1.
        -11    1    4    4    0    0  0.96283026449E-01  0.18700002107E-01  0.55960406410E-01  0.11292448569E+00  0.51100000000E-03 0. -1.
         11    1    4    4    0    0  0.10173748453E-01 -0.41525436272E-02  0.88030486900E-02  0.14089129263E-01  0.51100000000E-03 0.  1.
</event>
<event>
 8    1  0.1042301E+005  0.1043930E+01  0.7957747E-01            NaN
         13   -1    0    0    0    0  0.00000000000E+00  0.00000000000E+00  0.74505805969E-08  0.10566000000E+00  0.10566000000E+00 0. -1.
     999900   -1    0    0    0    0 -0.00000000000E+00 -0.00000000000E+00 -0.74505805969E-08  0.93827000000E+00  0.93827000000E+00 0. -1.
     999902    2    1    2    0    0  0.16206173357E-01 -0.15049631278E-01  0.24174226020E-02  0.10216819576E+01  0.10214396934E+01 0.  0.
     999903    2    3    3    0    0 -0.95943184038E-01  0.79510998437E-01 -0.27054202147E-01  0.12905226527E+00  0.19886273677E-01 0.  0.
         14    1    1    2    0    0 -0.16206173357E-01  0.15049631278E-01 -0.24174226020E-02  0.22248042353E-01  0.00000000000E+00 0. -1.
     999901    1    3    3    0    0  0.11214935739E+00 -0.94560629714E-01  0.29471624749E-01  0.89262969238E+00  0.88000000000E+00 0.  1.
        -11    1    4    4    0    0 -0.37629189844E-01  0.28581952158E-01 -0.68689738923E-03  0.47261156001E-01  0.51100000000E-03 0. -1.
         11    1    4    4    0    0 -0.58313994193E-01  0.50929046278E-01 -0.26367304757E-01  0.81791109265E-01  0.51100000000E-03 0.  1.
</event>
<event>
 8    1  0.1042301E+005  0.1043930E+01  0.7957747E-01            NaN
         13   -1    0    0    0    0  0.00000000000E+00  0.00000000000E+00  0.74505805969E-08  0.10566000000E+00  0.10566000000E+00 0.  1.
     999900   -1    0    0    0    0 -0.00000000000E+00 -0.00000000000E+00 -0.74505805969E-08  0.93827000000E+00  0.93827000000E+00 0. -1.
     999902    2    1    2    0    0 -0.84698274658E-02  0.19435258935E-01 -0.10012121290E-01  0.10204841083E+01  0.10202147349E+01 0.  0.
     999903    2    3    3    0    0 -0.12649079150E+00 -0.24136161321E-01  0.14849453079E-01  0.13118915465E+00  0.20189438459E-01 0.  0.
         14    1    1    2    0    0  0.84698274658E-02 -0.19435258935E-01  0.10012121290E-01  0.23445891749E-01  0.00000000000E+00 0. -1.
     999901    1    3    3    0    0  0.11802096403E+00  0.43571420257E-01 -0.24861574369E-01  0.88929495360E+00  0.88000000000E+00 0. -1.
        -11    1    4    4    0    0 -0.10315729565E+00 -0.19368205957E-01  0.19919450291E-01  0.10683445450E+00  0.51100000000E-03 0. -1.
         11    1    4    4    0    0 -0.23333495851E-01 -0.47679553639E-02 -0.50699972113E-02  0.24354700156E-01  0.51100000000E-03 0.  1.
</event>
<event>
 8    1  0.1042301E+005  0.1043930E+01  0.7957747E-01            NaN
         13   -1    0    0    0    0  0.00000000000E+00  0.00000000000E+00  0.74505805969E-08  0.10566000000E+00  0.10566000000E+00 0. -1.
     999900   -1    0    0    0    0 -0.00000000000E+00 -0.00000000000E+00 -0.74505805969E-08  0.93827000000E+00  0.93827000000E+00 0. -1.
     999902    2    1    2    0    0  0.23328428421E-01  0.82971343973E-02  0.68240444540E-02  0.10182468227E+01  0.10179228686E+01 0.  0.
     999903    2    3    3    0    0  0.17855513609E-01  0.70828927928E-01 -0.10443013662E+00  0.12902375128E+00  0.20147420739E-01 0.  0.
         14    1    1    2    0    0 -0.23328428421E-01 -0.82971343973E-02 -0.68240444540E-02  0.25683177267E-01  0.00000000000E+00 0.  1.
     999901    1    3    3    0    0  0.54729148116E-02 -0.62531793531E-01  0.11125418107E+00  0.88922307145E+00  0.88000000000E+00 0.  1.
        -11    1    4    4    0    0  0.24690045704E-02  0.47093582442E-01 -0.70905280198E-01  0.85157039473E-01  0.51100000000E-03 0.  1.
         11    1    4    4    0    0  0.15386509039E-01  0.23735345486E-01 -0.33524856421E-01  0.43866711808E-01  0.51100000000E-03 0. -1.
</event>
<event>
 8    1  0.1042301E+005  0.1043930E+01  0.7957747E-01            NaN
         13   -1    0    0    0    0  0.00000000000E+00  0.00000000000E+00  0.74505805969E-08  0.10566000000E+00  0.10566000000E+00 0.  1.
     999900   -1    0    0    0    0 -0.00000000000E+00 -0.00000000000E+00 -0.74505805969E-08  0.93827000000E+00  0.93827000000E+00 0.  1.
     999902    2    1    2    0    0  0.19995364599E-01  0.49652244903E-02  0.10653230855E-01  0.10207360485E+01  0.10204724990E+01 0.  0.
     999903    2    3    3    0    0 -0.11025354118E+00 -0.55933221239E-01  0.30329954535E-01  0.12885008514E+00  0.19951684556E-01 0.  0.
         14    1    1    2    0    0 -0.19995364599E-01 -0.49652244903E-02 -0.10653230855E-01  0.23193951525E-01  0.00000000000E+00 0. -1.
     999901    1    3    3    0    0  0.13024890578E+00  0.60898445729E-01 -0.19676723680E-01  0.89188596334E+00  0.88000000000E+00 0. -1.
        -11    1    4    4    0    0 -0.52026492849E-01 -0.15435501569E-01  0.11712933677E-01  0.55519947795E-01  0.51100000000E-03 0.  1.
         11    1    4    4    0    0 -0.58227048330E-01 -0.40497719670E-01  0.18617020858E-01  0.73330137340E-01  0.51100000000E-03 0. -1.
</event>
<event>
 8    1  0.1042301E+005  0.1043930E+01  0.7957747E-01            NaN
         13   -1    0    0    0    0  0.00000000000E+00  0.00000000000E+00  0.74505805969E-08  0.10566000000E+00  0.10566000000E+00 0. -1.
     999900   -1    0    0    0    0 -0.00000000000E+00 -0.00000000000E+00 -0.74505805969E-08  0.93827000000E+00  0.93827000000E+00 0. -1.
     999902    2    1    2    0    0 -0.22657492978E-02 -0.19073462065E-01  0.16277768325E-01  0.10187527024E+01  0.10184415409E+01 0.  0.
     999903    2    3    3    0    0  0.78067812047E-01 -0.76134556906E-01 -0.66796658741E-01  0.12936481732E+00  0.19555262906E-01 0.  0.
         14    1    1    2    0    0  0.22657492978E-02  0.19073462065E-01 -0.16277768325E-01  0.25177297644E-01  0.00000000000E+00 0.  1.
     999901    1    3    3    0    0 -0.80333561344E-01  0.57061094840E-01  0.83074427065E-01  0.88938788504E+00  0.88000000000E+00 0.  1.
        -11    1    4    4    0    0  0.34877355047E-01 -0.29551378907E-01 -0.38719927299E-01  0.59909997341E-01  0.51100000000E-03 0.  1.
         11    1    4    4    0    0  0.43190457000E-01 -0.46583177999E-01 -0.28076731442E-01  0.69454819975E-01  0.51100000000E-03 0. -1.
</event>
<event>
 8    1  0.1042301E+005  0.1043930E+01  0.7957747E-01            NaN
         13   -1    0    0    0    0  0.00000000000E+00  0.00000000000E+00  0.74505805969E-08  0.10566000000E+00  0.10566000000E+00 0. -1.
     999900   -1    0    0    0    0 -0.00000000000E+00 -0.00000000000E+00 -0.74505805969E-08  0.93827000000E+00  0.93827000000E+00 0.  1.
     999902    2    1    2    0    0 -0.18163609818E-01 -0.84738368958E-02  0.23603828436E-01  0.10129644813E+01  0.10124910750E+01 0.  0.
     999903    2    3    3    0    0  0.56310798264E-01  0.28326606369E-01  0.10625922521E+00  0.12519614172E+00  0.20242241233E-01 0.  0.
         14    1    1    2    0    0  0.18163609818E-01  0.84738368958E-02 -0.23603828436E-01  0.30965518730E-01  0.00000000000E+00 0.  1.
     999901    1    3    3    0    0 -0.74474408082E-01 -0.36800443265E-01 -0.82655396777E-01  0.88776833955E+00  0.88000000000E+00 0. -1.
        -11    1    4    4    0    0  0.28034598801E-01  0.35996923268E-02  0.39176155789E-01  0.48310752615E-01  0.51100000000E-03 0. -1.
         11    1    4    4    0    0  0.28276199463E-01  0.24726914042E-01  0.67083069425E-01  0.76885389110E-01  0.51100000000E-03 0.  1.
</event>
<event>
 8    1  0.1042301E+005  0.1043930E+01  0.7957747E-01            NaN
         13   -1    0    0    0    0  0.00000000000E+00  0.00000000000E+00  0.74505805969E-08  0.10566000000E+00  0.10566000000E+00 0. -1.
     999900   -1    0    0    0    0 -0.00000000000E+00 -0.00000000000E+00 -0.74505805969E-08  0.93827000000E+00  0.93827000000E+00 0. -1.
     999902    2    1    2    0    0  0.17189335519E-01  0.16526653161E-01 -0.63869140947E-03  0.10200760392E+01  0.10197970946E+01 0.  0.
     999903    2    3    3    0    0 -0.30962508941E-01 -0.95920053343E-01 -0.76920621058E-01  0.12834637458E+00  0.19916734936E-01 0.  0.
         14    1    1    2    0    0 -0.17189335519E-01 -0.16526653161E-01  0.63869140947E-03  0.23853960825E-01  0.00000000000E+00 0.  1.
     999901    1    3    3    0    0  0.48151844460E-01  0.11244670650E+00  0.76281929648E-01  0.89172966460E+00  0.88000000000E+00 0.  1.
        -11    1    4    4    0    0 -0.33164431969E-02 -0.39722246895E-01 -0.34292434328E-01  0.52584102798E-01  0.51100000000E-03 0. -1.
         11    1    4    4    0    0 -0.27646065744E-01 -0.56197806448E-01 -0.42628186730E-01  0.75762271782E-01  0.51100000000E-03 0.  1.
</event>
<event>
 8    1  0.1080406E+005  0.1043930E+01  0.7957747E-01            NaN
         13   -1    0    0    0    0  0.00000000000E+00  0.00000000000E+00  0.74505805969E-08  0.10566000000E+00  0.10566000000E+00 0. -1.
     999900   -1    0    0    0    0 -0.00000000000E+00 -0.00000000000E+00 -0.74505805969E-08  0.93827000000E+00  0.93827000000E+00 0.  1.
     999902    2    1    2    0    0  0.13169092194E-01 -0.19739002241E-01 -0.98289520855E-03  0.10201809099E+01  0.10199044414E+01 0.  0.
     999903    2    3    3    0    0  0.88383815554E-01  0.92580188991E-01  0.83223637035E-02  0.12981051326E+00  0.19967908490E-01 0.  0.
         14    1    1    2    0    0 -0.13169092194E-01  0.19739002241E-01  0.98289520855E-03  0.23749090123E-01  0.00000000000E+00 0. -1.
     999901    1    3    3    0    0 -0.75214723360E-01 -0.11231919123E+00 -0.93052589121E-02  0.89037039662E+00  0.88000000000E+00 0.  1.
        -11    1    4    4    0    0  0.40612542849E-01  0.38380586452E-01  0.13124850651E-01  0.57401836893E-01  0.51100000000E-03 0.  1.
         11    1    4    4    0    0  0.47771272705E-01  0.54199602540E-01 -0.48024869470E-02  0.72408676367E-01  0.51100000000E-03 0. -1.
</event>
<event>
 8    1  0.1269703E+005  0.1043930E+01  0.7957747E-01            NaN
         13   -1    0    0    0    0  0.00000000000E+00  0.00000000000E+00  0.74505805969E-08  0.10566000000E+00  0.10566000000E+00 0. -1.
     999900   -1    0    0    0    0 -0.00000000000E+00 -0.00000000000E+00 -0.74505805969E-08  0.93827000000E+00  0.93827000000E+00 0. -1.
     999902    2    1    2    0    0  0.20717045744E-01  0.17123882474E-02  0.10734069355E-01  0.10205345196E+01  0.10202663168E+01 0.  0.
     999903    2    3    3    0    0 -0.11606452818E+00  0.35345007025E-01  0.38386975798E-01  0.12890397098E+00  0.20553092264E-01 0.  0.
         14    1    1    2    0    0 -0.20717045744E-01 -0.17123882474E-02 -0.10734069355E-01  0.23395480392E-01  0.00000000000E+00 0.  1.
     999901    1    3    3    0    0  0.13678157392E+00 -0.33632618778E-01 -0.27652906444E-01  0.89163054863E+00  0.88000000000E+00 0.  1.
        -11    1    4    4    0    0 -0.71341985281E-01  0.11421696585E-01  0.20239438881E-01  0.75033525999E-01  0.51100000000E-03 0. -1.
         11    1    4    4    0    0 -0.44722542895E-01  0.23923310440E-01  0.18147536917E-01  0.53870444982E-01  0.51100000000E-03 0.  1.
</event>
<event>
 8    1  0.1042301E+005  0.1043930E+01  0.7957747E-01            NaN
         13   -1    0    0    0    0  0.00000000000E+00  0.00000000000E+00  0.74505805969E-08  0.10566000000E+00  0.10566000000E+00 0. -1.
     999900   -1    0    0    0    0 -0.00000000000E+00 -0.00000000000E+00 -0.74505805969E-08  0.93827000000E+00  0.93827000000E+00 0. -1.
     999902    2    1    2    0    0  0.91916647526E-02 -0.18856139068E-01  0.97993347426E-02  0.10207768654E+01  0.10205142533E+01 0.  0.
     999903    2    3    3    0    0  0.13017396515E+00  0.28400109492E-03  0.83367311437E-02  0.13229208713E+00  0.22053420803E-01 0.  0.
         14    1    1    2    0    0 -0.91916647526E-02  0.18856139068E-01 -0.97993347426E-02  0.23153134623E-01  0.00000000000E+00 0.  1.
     999901    1    3    3    0    0 -0.12098230040E+00 -0.19140140163E-01  0.14626035989E-02  0.88848477825E+00  0.88000000000E+00 0. -1.
        -11    1    4    4    0    0  0.77196727368E-01 -0.97267464973E-02  0.51485111791E-03  0.77810478127E-01  0.51100000000E-03 0. -1.
         11    1    4    4    0    0  0.52977237787E-01  0.10010747592E-01  0.78218800258E-02  0.54481608998E-01  0.51100000000E-03 0.  1.
</event>
<event>
 8    1  0.1042301E+005  0.1043930E+01  0.7957747E-01            NaN
         13   -1    0    0    0    0  0.00000000000E+00  0.00000000000E+00  0.74505805969E-08  0.10566000000E+00  0.10566000000E+00 0. -1.
     999900   -1    0    0    0    0 -0.00000000000E+00 -0.00000000000E+00 -0.74505805969E-08  0.93827000000E+00  0.93827000000E+00 0. -1.
     999902    2    1    2    0    0 -0.13800502025E-01 -0.16492086198E-01  0.10423828465E-01  0.10200323231E+01  0.10197523430E+01 0.  0.
     999903    2    3    3    0    0  0.34374629704E-01 -0.68585994770E-01 -0.10284818888E+00  0.12993953658E+00  0.20515344638E-01 0.  0.
         14    1    1    2    0    0  0.13800502025E-01  0.16492086198E-01 -0.10423828465E-01  0.23897676941E-01  0.00000000000E+00 0. -1.
     999901    1    3    3    0    0 -0.48175131730E-01  0.52093908573E-01  0.11327201734E+00  0.89009278648E+00  0.88000000000E+00 0.  1.
        -11    1    4    4    0    0 -0.19761099925E-02 -0.40281798393E-02 -0.11285979497E-01  0.12155891483E-01  0.51100000000E-03 0.  1.
         11    1    4    4    0    0  0.36350739697E-01 -0.64557814931E-01 -0.91562209380E-01  0.11778364510E+00  0.51100000000E-03 0. -1.
</event>
<event>
 8    1  0.1042301E+005  0.1043930E+01  0.7957747E-01            NaN
         13   -1    0    0    0    0  0.00000000000E+00  0.00000000000E+00  0.74505805969E-08  0.10566000000E+00  0.10566000000E+00 0.  1.
     999900   -1    0    0    0    0 -0.00000000000E+00 -0.00000000000E+00 -0.74505805969E-08  0.93827000000E+00  0.93827000000E+00 0. -1.
     999902    2    1    2    0    0  0.30540912467E-02  0.22674639502E-01  0.58766545532E-02  0.10203079379E+01  0.10200344535E+01 0.  0.
     999903    2    3    3    0    0  0.42575596716E-01 -0.81779992260E-01 -0.86430369148E-01  0.12845968503E+00  0.23044161895E-01 0.  0.
         14    1    1    2    0    0 -0.30540912467E-02 -0.22674639502E-01 -0.58766545532E-02  0.23622062116E-01  0.00000000000E+00 0. -1.
     999901    1    3    3    0    0 -0.39521505470E-01  0.10445463176E+00  0.92307023701E-01  0.89184825285E+00  0.88000000000E+00 0. -1.
        -11    1    4    4    0    0  0.10990660428E-01 -0.24129118302E-01 -0.39944522456E-01  0.47946167333E-01  0.51100000000E-03 0.  1.
         11    1    4    4    0    0  0.31584936289E-01 -0.57650873958E-01 -0.46485846692E-01  0.80513517698E-01  0.51100000000E-03 0. -1.
</event>
<event>
 8    1  0.1042301E+005  0.1043930E+01  0.7957747E-01            NaN
         13   -1    0    0    0    0  0.00000000000E+00  0.00000000000E+00  0.74505805969E-08  0.10566000000E+00  0.10566000000E+00 0.  1.
     999900   -1    0    0    0    0 -0.00000000000E+00 -0.00000000000E+00 -0.74505805969E-08  0.93827000000E+00  0.93827000000E+00 0. -1.
     999902    2    1    2    0    0  0.10722860929E-02  0.21181878904E-01 -0.10319235403E-01  0.10203438089E+01  0.10200711642E+01 0.  0.
     999903    2    3    3    0    0 -0.67077895471E-01 -0.28645062801E-01 -0.10706090764E+00  0.13102602401E+00  0.19641724484E-01 0.  0.
         14    1    1    2    0    0 -0.10722860929E-02 -0.21181878904E-01  0.10319235403E-01  0.23586191102E-01  0.00000000000E+00 0.  1.
     999901    1    3    3    0    0  0.68150181564E-01  0.49826941705E-01  0.96741672235E-01  0.88931778489E+00  0.88000000000E+00 0.  1.
        -11    1    4    4    0    0 -0.39287852671E-01 -0.19740362338E-01 -0.47681525587E-01  0.64861439053E-01  0.51100000000E-03 0. -1.
         11    1    4    4    0    0 -0.27790042800E-01 -0.89047004630E-02 -0.59379382051E-01  0.66164584960E-01  0.51100000000E-03 0.  1.
</event>
<event>
 8    1  0.1042301E+005  0.1043930E+01  0.7957747E-01            NaN
         13   -1    0    0    0    0  0.00000000000E+00  0.00000000000E+00  0.74505805969E-08  0.10566000000E+00  0.10566000000E+00 0. -1.
     999900   -1    0    0    0    0 -0.00000000000E+00 -0.00000000000E+00 -0.74505805969E-08  0.93827000000E+00  0.93827000000E+00 0.  1.
     999902    2    1    2    0    0 -0.70053805381E-02  0.20805040887E-01 -0.13401976983E-01  0.10182096176E+01  0.10178847122E+01 0.  0.
     999903    2    3    3    0    0  0.15478837299E-01 -0.10938890508E+00  0.57009293406E-01  0.12556537123E+00  0.17637345522E-01 0.  0.
         14    1    1    2    0    0  0.70053805381E-02 -0.20805040887E-01  0.13401976983E-01  0.25720382381E-01  0.00000000000E+00 0. -1.
     999901    1    3    3    0    0 -0.22484217837E-01  0.13019394597E+00 -0.70411270389E-01  0.89264424639E+00  0.88000000000E+00 0.  1.
        -11    1    4    4    0    0  0.73920807332E-02 -0.92881133068E-01  0.44020203645E-01  0.10305138130E+00  0.51100000000E-03 0.  1.
         11    1    4    4    0    0  0.80867565653E-02 -0.16507772016E-01  0.12989089761E-01  0.22513989928E-01  0.51100000000E-03 0. -1.
</event>
<event>
 8    1  0.1042301E+005  0.1043930E+01  0.7957747E-01            NaN
         13   -1    0    0    0    0  0.00000000000E+00  0.00000000000E+00  0.74505805969E-08  0.10566000000E+00  0.10566000000E+00 0. -1.
     999900   -1    0    0    0    0 -0.00000000000E+00 -0.00000000000E+00 -0.74505805969E-08  0.93827000000E+00  0.93827000000E+00 0. -1.
     999902    2    1    2    0    0  0.66417059115E-02 -0.10793481206E-01 -0.19775082547E-01  0.10204424419E+01  0.10201720992E+01 0.  0.
     999903    2    3    3    0    0  0.93120523401E-01  0.71181529563E-01 -0.56607238862E-01  0.13164826104E+00  0.19714033410E-01 0.  0.
         14    1    1    2    0    0 -0.66417059115E-02  0.10793481206E-01  0.19775082547E-01  0.23487558061E-01  0.00000000000E+00 0. -1.
     999901    1    3    3    0    0 -0.86478817489E-01 -0.81975010768E-01  0.36832156315E-01  0.88879418090E+00  0.88000000000E+00 0. -1.
        -11    1    4    4    0    0  0.20032730960E-01  0.20226060041E-01 -0.57170729296E-02  0.29040486538E-01  0.51100000000E-03 0. -1.
         11    1    4    4    0    0  0.73087792441E-01  0.50955469521E-01 -0.50890165933E-01  0.10260777450E+00  0.51100000000E-03 0.  1.
</event>
<event>
 8    1  0.1042301E+005  0.1043930E+01  0.7957747E-01            NaN
         13   -1    0    0    0    0  0.00000000000E+00  0.00000000000E+00  0.74505805969E-08  0.10566000000E+00  0.10566000000E+00 0. -1.
     999900   -1    0    0    0    0 -0.00000000000E+00 -0.00000000000E+00 -0.74505805969E-08  0.93827000000E+00  0.93827000000E+00 0. -1.
     999902    2    1    2    0    0  0.90172840476E-02  0.18976005932E-01  0.88223838647E-02  0.10211432787E+01  0.10208890052E+01 0.  0.
     999903    2    3    3    0    0 -0.61201610592E-01 -0.10372978991E+00  0.42226768220E-01  0.12923338500E+00  0.20314068787E-01 0.  0.
         14    1    1    2    0    0 -0.90172840476E-02 -0.18976005932E-01 -0.88223838647E-02  0.22786721348E-01  0.00000000000E+00 0.  1.
     999901    1    3    3    0    0  0.70218894640E-01  0.12270579584E+00 -0.33404384356E-01  0.89190989365E+00  0.88000000000E+00 0.  1.
        -11    1    4    4    0    0 -0.17801464924E-01 -0.26772523987E-01  0.21806414713E-02  0.32228504655E-01  0.51100000000E-03 0.  1.
         11    1    4    4    0    0 -0.43400145667E-01 -0.76957265923E-01  0.40046126749E-01  0.97004880346E-01  0.51100000000E-03 0. -1.
</event>
<event>
 8    1  0.1042301E+005  0.1043930E+01  0.7957747E-01            NaN
         13   -1    0    0    0    0  0.00000000000E+00  0.00000000000E+00  0.74505805969E-08  0.10566000000E+00  0.10566000000E+00 0.  1.
     999900   -1    0    0    0    0 -0.00000000000E+00 -0.00000000000E+00 -0.74505805969E-08  0.93827000000E+00  0.93827000000E+00 0.  1.
     999902    2    1    2    0    0 -0.11004292017E-01 -0.20747129774E-01 -0.83773361992E-03  0.10204302205E+01  0.10201595931E+01 0.  0.
     999903    2    3    3    0    0  0.11760242118E+00 -0.47895021384E-01  0.21401505588E-01  0.13039017737E+00  0.20477093846E-01 0.  0.
         14    1    1    2    0    0  0.11004292017E-01  0.20747129774E-01  0.83773361992E-03  0.23499779452E-01  0.00000000000E+00 0. -1.
     999901    1    3    3    0    0 -0.12860671320E+00  0.27147891610E-01 -0.22239239208E-01  0.89004004318E+00  0.88000000000E+00 0. -1.
        -11    1    4    4    0    0  0.99524227395E-01 -0.36994228939E-01  0.24709968530E-01  0.10901600102E+00  0.51100000000E-03 0.  1.
         11    1    4    4    0    0  0.18078193786E-01 -0.10900792445E-01 -0.33084629427E-02  0.21374176347E-01  0.51100000000E-03 0. -1.
</event>
<event>
 8    1  0.1042301E+005  0.1043930E+01  0.7957747E-01            NaN
         13   -1    0    0    0    0  0.00000000000E+00  0.00000000000E+00  0.74505805969E-08  0.10566000000E+00  0.10566000000E+00 0. -1.
     999900   -1    0    0    0    0 -0.00000000000E+00 -0.00000000000E+00 -0.74505805969E-08  0.93827000000E+00  0.93827000000E+00 0.  1.
     999902    2    1    2    0    0 -0.32437043035E-02 -0.19854450782E-01 -0.18350362726E-01  0.10167002985E+01  0.10163355943E+01 0.  0.
     999903    2    3    3    0    0 -0.87256110325E-01  0.16070726169E-02 -0.93334494204E-01  0.12926506065E+00  0.19542687228E-01 0.  0.
         14    1    1    2    0    0  0.32437043035E-02  0.19854450782E-01  0.18350362726E-01  0.27229701534E-01  0.00000000000E+00 0. -1.
     999901    1    3    3    0    0  0.84012406021E-01 -0.21461523398E-01  0.74984131478E-01  0.88743523782E+00  0.88000000000E+00 0. -1.
        -11    1    4    4    0    0 -0.38453687076E-01  0.25378618678E-02 -0.27672456048E-01  0.47446314265E-01  0.51100000000E-03 0.  1.
         11    1    4    4    0    0 -0.48802423249E-01 -0.93078925080E-03 -0.65662038156E-01  0.81818746381E-01  0.51100000000E-03 0. -1.
</event>
<event>
 8    1  0.1042301E+005  0.1043930E+01  0.7957747E-01            NaN
         13   -1    0    0    0    0  0.00000000000E+00  0.00000000000E+00  0.74505805969E-08  0.10566000000E+00  0.10566000000E+00 0.  1.
     999900   -1    0    0    0    0 -0.00000000000E+00 -0.00000000000E+00 -0.74505805969E-08  0.93827000000E+00  0.93827000000E+00 0. -1.
     999902    2    1    2    0    0  0.28460184993E-02 -0.22455854111E-01  0.51923460782E-02  0.10207066139E+01  0.10204423874E+01 0.  0.
     999903    2    3    3    0    0 -0.84418015753E-01  0.81261554928E-01  0.50610887557E-01  0.12917133330E+00  0.19847662668E-01 0.  0.
         14    1    1    2    0    0 -0.28460184993E-02  0.22455854111E-01 -0.51923460782E-02  0.23223386122E-01  0.00000000000E+00 0. -1.
     999901    1    3    3    0    0  0.87264034252E-01 -0.10371740904E+00 -0.45418541479E-01  0.89153528058E+00  0.88000000000E+00 0.  1.
        -11    1    4    4    0    0 -0.28144267051E-01  0.16736773994E-01  0.89173742550E-02  0.33941126325E-01  0.51100000000E-03 0.  1.
         11    1    4    4    0    0 -0.56273748702E-01  0.64524780934E-01  0.41693513302E-01  0.95230206972E-01  0.51100000000E-03 0. -1.
</event>
<event>
 8    1  0.1042301E+005  0.1043930E+01  0.7957747E-01            NaN
         13   -1    0    0    0    0  0.00000000000E+00  0.00000000000E+00  0.74505805969E-08  0.10566000000E+00  0.10566000000E+00 0.  1.
     999900   -1    0    0    0    0 -0.00000000000E+00 -0.00000000000E+00 -0.74505805969E-08  0.93827000000E+00  0.93827000000E+00 0.  1.
     999902    2    1    2    0    0 -0.26006095256E-01  0.56072622260E-02  0.30117405261E-02  0.10171563383E+01  0.10168039081E+01 0.  0.
     999903    2    3    3    0    0 -0.91091211168E-01 -0.81188685361E-01  0.38833938512E-01  0.12977094361E+00  0.21052592297E-01 0.  0.
         14    1    1    2    0    0  0.26006095256E-01 -0.56072622260E-02 -0.30117405261E-02  0.26773661706E-01  0.00000000000E+00 0. -1.
     999901    1    3    3    0    0  0.65085115911E-01  0.86795947587E-01 -0.35822197986E-01  0.88738539468E+00  0.88000000000E+00 0.  1.
        -11    1    4    4    0    0 -0.50032625913E-01 -0.32359311724E-01  0.13313385340E-01  0.61056498927E-01  0.51100000000E-03 0.  1.
         11    1    4    4    0    0 -0.41058585254E-01 -0.48829373636E-01  0.25520553172E-01  0.68714444682E-01  0.51100000000E-03 0. -1.
</event>
<event>
 8    1  0.1042301E+005  0.1043930E+01  0.7957747E-01            NaN
         13   -1    0    0    0    0  0.00000000000E+00  0.00000000000E+00  0.74505805969E-08  0.10566000000E+00  0.10566000000E+00 0.  1.
     999900   -1    0    0    0    0 -0.00000000000E+00 -0.00000000000E+00 -0.74505805969E-08  0.93827000000E+00  0.93827000000E+00 0.  1.
     999902    2    1    2    0    0 -0.40239971067E-02 -0.16656103353E-01  0.16283915964E-01  0.10202913822E+01  0.10200175098E+01 0.  0.
     999903    2    3    3    0    0  0.75583336015E-01  0.42172701587E-01 -0.91763381344E-01  0.12817458816E+00  0.22733883355E-01 0.  0.
         14    1    1    2    0    0  0.40239971067E-02  0.16656103353E-01 -0.16283915964E-01  0.23638617784E-01  0.00000000000E+00 0. -1.
     999901    1    3    3    0    0 -0.79607333122E-01 -0.58828804940E-01  0.10804729731E+00  0.89211679405E+00  0.88000000000E+00 0. -1.
        -11    1    4    4    0    0  0.46749907195E-01  0.31860133699E-01 -0.72620656574E-01  0.92057823265E-01  0.51100000000E-03 0.  1.
         11    1    4    4    0    0  0.28833428821E-01  0.10312567888E-01 -0.19142724770E-01  0.36116764897E-01  0.51100000000E-03 0. -1.
</event>
<event>
 8    1  0.1148025E+005  0.1043930E+01  0.7957747E-01            NaN
         13   -1    0    0    0    0  0.00000000000E+00  0.00000000000E+00  0.74505805969E-08  0.10566000000E+00  0.10566000000E+00 0.  1.
     999900   -1    0    0    0    0 -0.00000000000E+00 -0.00000000000E+00 -0.74505805969E-08  0.93827000000E+00  0.93827000000E+00 0. -1.
     999902    2    1    2    0    0  0.20022424357E-01 -0.13909775013E-02  0.12366829009E-01  0.10203552093E+01  0.10200828312E+01 0.  0.
     999903    2    3    3    0    0 -0.10868331312E+00  0.37328279951E-01  0.55539799991E-01  0.12910426084E+00  0.19436505569E-01 0.  0.
         14    1    1    2    0    0 -0.20022424357E-01  0.13909775013E-02 -0.12366829009E-01  0.23574790673E-01  0.00000000000E+00 0. -1.
     999901    1    3    3    0    0  0.12870573748E+00 -0.38719257452E-01 -0.43172970982E-01  0.89125094849E+00  0.88000000000E+00 0.  1.
        -11    1    4    4    0    0 -0.65532453992E-01  0.31849671813E-01  0.31257270229E-01  0.79285447492E-01  0.51100000000E-03 0.  1.
         11    1    4    4    0    0 -0.43150859128E-01  0.54786081380E-02  0.24282529762E-01  0.49818813347E-01  0.51100000000E-03 0. -1.
</event>
<event>
 8    1  0.1042301E+005  0.1043930E+01  0.7957747E-01            NaN
         13   -1    0    0    0    0  0.00000000000E+00  0.00000000000E+00  0.74505805969E-08  0.10566000000E+00  0.10566000000E+00 0. -1.
     999900   -1    0    0    0    0 -0.00000000000E+00 -0.00000000000E+00 -0.74505805969E-08  0.93827000000E+00  0.93827000000E+00 0. -1.
     999902    2    1    2    0    0  0.96598877032E-03 -0.16708387631E-01  0.15300011514E-01  0.10212541603E+01  0.10210023831E+01 0.  0.
     999903    2    3    3    0    0  0.12767663498E+00  0.11730091280E-01  0.22627258058E-01  0.13169358147E+00  0.19806272565E-01 0.  0.
         14    1    1    2    0    0 -0.96598877032E-03  0.16708387631E-01 -0.15300011514E-01  0.22675839651E-01  0.00000000000E+00 0.  1.
     999901    1    3    3    0    0 -0.12671064621E+00 -0.28438478911E-01 -0.73272465439E-02  0.88956057887E+00  0.88000000000E+00 0. -1.
        -11    1    4    4    0    0  0.10236483971E+00  0.34408987712E-02  0.12456468390E-01  0.10317860689E+00  0.51100000000E-03 0. -1.
         11    1    4    4    0    0  0.25311795266E-01  0.82891925089E-02  0.10170789668E-01  0.28514974584E-01  0.51100000000E-03 0.  1.
</event>
<event>
 8    1  0.1042301E+005  0.1043930E+01  0.7957747E-01            NaN
         13   -1    0    0    0    0  0.00000000000E+00  0.00000000000E+00  0.74505805969E-08  0.10566000000E+00  0.10566000000E+00 0.  1.
     999900   -1    0    0    0    0 -0.00000000000E+00 -0.00000000000E+00 -0.74505805969E-08  0.93827000000E+00  0.93827000000E+00 0. -1.
     999902    2    1    2    0    0 -0.23128953115E-01  0.18810390934E-03 -0.13693752649E-02  0.10207597811E+01  0.10204967769E+01 0.  0.
     999903    2    3    3    0    0  0.90807798480E-01 -0.72016351606E-01 -0.53809165977E-01  0.12893861158E+00  0.17243202966E-01 0.  0.
         14    1    1    2    0    0  0.23128953115E-01 -0.18810390934E-03  0.13693752649E-02  0.23170218900E-01  0.00000000000E+00 0. -1.
     999901    1    3    3    0    0 -0.11393675160E+00  0.72204455515E-01  0.52439790713E-01  0.89182116952E+00  0.88000000000E+00 0.  1.
        -11    1    4    4    0    0  0.33303990049E-01 -0.37151520935E-01 -0.21527843364E-01  0.54342436658E-01  0.51100000000E-03 0.  1.
         11    1    4    4    0    0  0.57503808431E-01 -0.34864830670E-01 -0.32281322613E-01  0.74596174918E-01  0.51100000000E-03 0. -1.
</event>
<event>
 7    1  0.1042301E+005  0.1043930E+01  0.7957747E-01            NaN
         13   -1    0    0    0    0  0.00000000000E+00  0.00000000000E+00  0.74505805969E-08  0.10566000000E+00  0.10566000000E+00 0.  1.
     999900   -1    0    0    0    0 -0.00000000000E+00 -0.00000000000E+00 -0.74505805969E-08  0.93827000000E+00  0.93827000000E+00 0. -1.
     999903    2    1    2    0    0 -0.37889558781E-01 -0.90706722918E-01 -0.46102949117E-01  0.11042012021E+00  0.20094595869E-01 0.  0.
         14    1    1    2    0    0 -0.42939758927E-02 -0.22732217082E-01 -0.34541610003E-01  0.41573004991E-01  0.00000000000E+00 0. -1.
     999901    1    1    2    0    0  0.42183534674E-01  0.11343894000E+00  0.80644559120E-01  0.89193687480E+00  0.88000000000E+00 0.  1.
        -11    1    3    3    0    0 -0.13237598680E-01 -0.45600090609E-01 -0.31488050420E-01  0.56976843741E-01  0.51100000000E-03 0.  1.
         11    1    3    3    0    0 -0.24651960101E-01 -0.45106632309E-01 -0.14614898697E-01  0.53443276471E-01  0.51100000000E-03 0. -1.
</event>
<event>
 8    1  0.1042301E+005  0.1043930E+01  0.7957747E-01            NaN
         13   -1    0    0    0    0  0.00000000000E+00  0.00000000000E+00  0.74505805969E-08  0.10566000000E+00  0.10566000000E+00 0.  1.
     999900   -1    0    0    0    0 -0.00000000000E+00 -0.00000000000E+00 -0.74505805969E-08  0.93827000000E+00  0.93827000000E+00 0. -1.
     999902    2    1    2    0    0  0.20538639952E-01  0.58329195593E-02 -0.95407302535E-02  0.10205444443E+01  0.10202764716E+01 0.  0.
     999903    2    3    3    0    0  0.17602452933E-01 -0.70799587564E-01 -0.10786621755E+00  0.13175365688E+00  0.20036897583E-01 0.  0.
         14    1    1    2    0    0 -0.20538639952E-01 -0.58329195593E-02  0.95407302535E-02  0.23385555701E-01  0.00000000000E+00 0. -1.
     999901    1    3    3    0    0  0.29361870195E-02  0.76632507124E-01  0.98325487298E-01  0.88879078742E+00  0.88000000000E+00 0.  1.
        -11    1    4    4    0    0  0.19209742137E-01 -0.45176547392E-01 -0.60880562153E-01  0.78208941920E-01  0.51100000000E-03 0.  1.
         11    1    4    4    0    0 -0.16072892040E-02 -0.25623040172E-01 -0.46985655399E-01  0.53544714964E-01  0.51100000000E-03 0. -1.
</event>
<event>
 8    1  0.1042301E+005  0.1043930E+01  0.7957747E-01            NaN
         13   -1    0    0    0    0  0.00000000000E+00  0.00000000000E+00  0.74505805969E-08  0.10566000000E+00  0.10566000000E+00 0.  1.
     999900   -1    0    0    0    0 -0.00000000000E+00 -0.00000000000E+00 -0.74505805969E-08  0.93827000000E+00  0.93827000000E+00 0.  1.
     999902    2    1    2    0    0  0.13972681755E-02  0.39274509262E-03  0.23427013826E-01  0.10204580682E+01  0.10201880892E+01 0.  0.
     999903    2    3    3    0    0 -0.29831981651E-01 -0.11440097103E+00 -0.48950310896E-01  0.12950838360E+00  0.19968955498E-01 0.  0.
         14    1    1    2    0    0 -0.13972681755E-02 -0.39274509262E-03 -0.23427013826E-01  0.23471931831E-01  0.00000000000E+00 0. -1.
     999901    1    3    3    0    0  0.31229249827E-01  0.11479371612E+00  0.72377324722E-01  0.89094968457E+00  0.88000000000E+00 0. -1.
        -11    1    4    4    0    0 -0.24018109040E-01 -0.10970921385E+00 -0.44543134081E-01  0.12081942344E+00  0.51100000000E-03 0.  1.
         11    1    4    4    0    0 -0.58138726113E-02 -0.46917571806E-02 -0.44071768151E-02  0.86889601600E-02  0.51100000000E-03 0. -1.
</event>
<event>
 8    1  0.1042301E+005  0.1043930E+01  0.7957747E-01            NaN
         13   -1    0    0    0    0  0.00000000000E+00  0.00000000000E+00  0.74505805969E-08  0.10566000000E+00  0.10566000000E+00 0. -1.
     999900   -1    0    0    0    0 -0.00000000000E+00 -0.00000000000E+00 -0.74505805969E-08  0.93827000000E+00  0.93827000000E+00 0. -1.
     999902    2    1    2    0    0  0.21120560085E-02 -0.20082553279E-01  0.13415404334E-01  0.10196865926E+01  0.10193983541E+01 0.  0.
     999903    2    3    3    0    0  0.97155910346E-01  0.75764412804E-01 -0.29338080981E-01  0.12836855981E+00  0.20934349485E-01 0.  0.
         14    1    1    2    0    0 -0.21120560085E-02  0.20082553279E-01 -0.13415404334E-01  0.24243407356E-01  0.00000000000E+00 0.  1.
     999901    1    3    3    0    0 -0.95043854337E-01 -0.95846966083E-01  0.42753485315E-01  0.89131803284E+00  0.88000000000E+00 0. -1.
        -11    1    4    4    0    0  0.68667345129E-01  0.58108508830E-01 -0.12382329115E-01  0.90804109383E-01  0.51100000000E-03 0.  1.
         11    1    4    4    0    0  0.28488565217E-01  0.17655903974E-01 -0.16955751866E-01  0.37564450423E-01  0.51100000000E-03 0. -1.
</event>
<event>
 8    1  0.1042301E+005  0.1043930E+01  0.7957747E-01            NaN
         13   -1    0    0    0    0  0.00000000000E+00  0.00000000000E+00  0.74505805969E-08  0.10566000000E+00  0.10566000000E+00 0. -1.
     999900   -1    0    0    0    0 -0.00000000000E+00 -0.00000000000E+00 -0.74505805969E-08  0.93827000000E+00  0.93827000000E+00 0.  1.
     999902    2    1    2    0    0 -0.15636967985E-02  0.18266910249E-01  0.15067678746E-01  0.10201990055E+01  0.10199229631E+01 0.  0.
     999903    2    3    3    0    0  0.12862550554E+00  0.15388226595E-02  0.64382727773E-02  0.13042177271E+00  0.20530435691E-01 0.  0.
         14    1    1    2    0    0  0.15636967985E-02 -0.18266910249E-01 -0.15067678746E-01  0.23730994512E-01  0.00000000000E+00 0.  1.
     999901    1    3    3    0    0 -0.13018920234E+00  0.16728087590E-01  0.86294059690E-02  0.88977723278E+00  0.88000000000E+00 0.  1.
        -11    1    4    4    0    0  0.85729565991E-01  0.76465822215E-02  0.11334124811E-01  0.86814470055E-01  0.51100000000E-03 0. -1.
         11    1    4    4    0    0  0.42895939551E-01 -0.61077595620E-02 -0.48958520337E-02  0.43607302656E-01  0.51100000000E-03 0.  1.
</event>
<event>
 8    1  0.1042301E+005  0.1043930E+01  0.7957747E-01            NaN
         13   -1    0    0    0    0  0.00000000000E+00  0.00000000000E+00  0.74505805969E-08  0.10566000000E+00  0.10566000000E+00 0.  1.
     999900   -1    0    0    0    0 -0.00000000000E+00 -0.00000000000E+00 -0.74505805969E-08  0.93827000000E+00  0.93827000000E+00 0. -1.
     999902    2    1    2    0    0 -0.20223187497E-01 -0.16612558315E-01  0.11149038384E-01  0.10154825842E+01  0.10150840475E+01 0.  0.
     999903    2    3    3    0    0 -0.10884149342E-01  0.11419387924E+00  0.45777130737E-01  0.12509129581E+00  0.19838846384E-01 0.  0.
         14    1    1    2    0    0  0.20223187497E-01  0.16612558315E-01 -0.11149038384E-01  0.28447415756E-01  0.00000000000E+00 0. -1.
     999901    1    3    3    0    0 -0.93390381554E-02 -0.13080643756E+00 -0.34628092353E-01  0.89039128843E+00  0.88000000000E+00 0.  1.
        -11    1    4    4    0    0 -0.63031173708E-02  0.39101536640E-01  0.62295436085E-02  0.40096481027E-01  0.51100000000E-03 0.  1.
         11    1    4    4    0    0 -0.45810319707E-02  0.75092342601E-01  0.39547587129E-01  0.84994814783E-01  0.51100000000E-03 0. -1.
</event>
<event>
 8    1  0.1042301E+005  0.1043930E+01  0.7957747E-01            NaN
         13   -1    0    0    0    0  0.00000000000E+00  0.00000000000E+00  0.74505805969E-08  0.10566000000E+00  0.10566000000E+00 0. -1.
     999900   -1    0    0    0    0 -0.00000000000E+00 -0.00000000000E+00 -0.74505805969E-08  0.93827000000E+00  0.93827000000E+00 0. -1.
     999902    2    1    2    0    0 -0.83952155492E-02 -0.75700768399E-02 -0.20478252673E-01  0.10205388790E+01  0.10202707773E+01 0.  0.
     999903    2    3    3    0    0 -0.10757380968E+00  0.55131316987E-01 -0.49548705615E-01  0.13227487011E+00  0.20735968548E-01 0.  0.
         14    1    1    2    0    0  0.83952155492E-02  0.75700768399E-02  0.20478252673E-01  0.23391120966E-01  0.00000000000E+00 0. -1.
     999901    1    3    3    0    0  0.99178594132E-01 -0.62701393826E-01  0.29070452942E-01  0.88826400893E+00  0.88000000000E+00 0.  1.
        -11    1    4    4    0    0 -0.84576573754E-01  0.51167478537E-01 -0.44436059503E-01  0.10837957461E+00  0.51100000000E-03 0. -1.
         11    1    4    4    0    0 -0.22997235927E-01  0.39638384495E-02 -0.51126461125E-02  0.23895295495E-01  0.51100000000E-03 0.  1.
</event>
<event>
 8    1  0.1042301E+005  0.1043930E+01  0.7957747E-01            NaN
         13   -1    0    0    0    0  0.00000000000E+00  0.00000000000E+00  0.74505805969E-08  0.10566000000E+00  0.10566000000E+00 0. -1.
     999900   -1    0    0    0    0 -0.00000000000E+00 -0.00000000000E+00 -0.74505805969E-08  0.93827000000E+00  0.93827000000E+00 0. -1.
     999902    2    1    2    0    0  0.15848312035E-01 -0.99711559267E-02 -0.11512810260E-01  0.10219496054E+01  0.10217131977E+01 0.  0.
     999903    2    3    3    0    0  0.12900737555E-02  0.12527214167E+00  0.30969628230E-01  0.13048594975E+00  0.19305217950E-01 0.  0.
         14    1    1    2    0    0 -0.15848312035E-01  0.99711559267E-02  0.11512810260E-01  0.21980394559E-01  0.00000000000E+00 0. -1.
     999901    1    3    3    0    0  0.14558238280E-01 -0.13524329759E+00 -0.42482438490E-01  0.89146365570E+00  0.88000000000E+00 0. -1.
        -11    1    4    4    0    0  0.67373942949E-03  0.10623583370E+00  0.18832603825E-01  0.10789547894E+00  0.51100000000E-03 0. -1.
         11    1    4    4    0    0  0.61633432602E-03  0.19036307966E-01  0.12137024405E-01  0.22590470809E-01  0.51100000000E-03 0.  1.
</event>
<event>
 8    1  0.1042301E+005  0.1043930E+01  0.7957747E-01            NaN
         13   -1    0    0    0    0  0.00000000000E+00  0.00000000000E+00  0.74505805969E-08  0.10566000000E+00  0.10566000000E+00 0.  1.
     999900   -1    0    0    0    0 -0.00000000000E+00 -0.00000000000E+00 -0.74505805969E-08  0.93827000000E+00  0.93827000000E+00 0. -1.
     999902    2    1    2    0    0  0.21946366214E-01  0.81454641917E-02  0.14601508111E-02  0.10204752858E+01  0.10202057074E+01 0.  0.
     999903    2    3    3    0    0 -0.93281328366E-01  0.47593806465E-01 -0.71711377901E-01  0.12907881627E+00  0.23499839455E-01 0.  0.
         14    1    1    2    0    0 -0.21946366214E-01 -0.81454641917E-02 -0.14601508111E-02  0.23454714180E-01  0.00000000000E+00 0. -1.
     999901    1    3    3    0    0  0.11522769458E+00 -0.39448342273E-01  0.73171528712E-01  0.89139646955E+00  0.88000000000E+00 0.  1.
        -11    1    4    4    0    0 -0.12780238584E-01  0.11120246094E-01 -0.21685249118E-01  0.27522818201E-01  0.51100000000E-03 0. -1.
         11    1    4    4    0    0 -0.80501089782E-01  0.36473560371E-01 -0.50026128783E-01  0.10155599807E+00  0.51100000000E-03 0.  1.
</event>
<event>
 8    1  0.1042301E+005  0.1043930E+01  0.7957747E-01            NaN
         13   -1    0    0    0    0  0.00000000000E+00  0.00000000000E+00  0.74505805969E-08  0.10566000000E+00  0.10566000000E+00 0. -1.
     999900   -1    0    0    0    0 -0.00000000000E+00 -0.00000000000E+00 -0.74505805969E-08  0.93827000000E+00  0.93827000000E+00 0.  1.
     999902    2    1    2    0    0 -0.13460920643E-01 -0.19033824396E-01  0.52958239135E-02  0.10200233355E+01  0.10197431424E+01 0.  0.
     999903    2    3    3    0    0 -0.16672485998E-01 -0.87270734311E-02 -0.12770378569E+00  0.12996410186E+00  0.15108848193E-01 0.  0.
         14    1    1    2    0    0  0.13460920643E-01  0.19033824396E-01 -0.52958239135E-02  0.23906664481E-01  0.00000000000E+00 0. -1.
     999901    1    3    3    0    0  0.32115653545E-02 -0.10306750965E-01  0.13299960960E+00  0.89005923366E+00  0.88000000000E+00 0. -1.
        -11    1    4    4    0    0  0.26894003865E-03  0.17061171202E-02 -0.39569813143E-01  0.39610786379E-01  0.51100000000E-03 0.  1.
         11    1    4    4    0    0 -0.16941426037E-01 -0.10433190551E-01 -0.88133972543E-01  0.90353315481E-01  0.51100000000E-03 0. -1.
</event>
<event>
 8    1  0.1042301E+005  0.1043930E+01  0.7957747E-01            NaN
         13   -1    0    0    0    0  0.00000000000E+00  0.00000000000E+00  0.74505805969E-08  0.10566000000E+00  0.10566000000E+00 0. -1.
     999900   -1    0    0    0    0 -0.00000000000E+00 -0.00000000000E+00 -0.74505805969E-08  0.93827000000E+00  0.93827000000E+00 0. -1.
     999902    2    1    2    0    0  0.80942789186E-02 -0.18563630354E-02  0.22026276731E-01  0.10203902400E+01  0.10201186801E+01 0.  0.
     999903    2    3    3    0    0 -0.32953512683E-01  0.10009673165E+00 -0.70671524561E-01  0.12872200736E+00  0.21670281710E-01 0.  0.
         14    1    1    2    0    0 -0.80942789186E-02  0.18563630354E-02 -0.22026276731E-01  0.23539760015E-01  0.00000000000E+00 0.  1.
     999901    1    3    3    0    0  0.41047791601E-01 -0.10195309469E+00  0.92697801291E-01  0.89166823263E+00  0.88000000000E+00 0.  1.
        -11    1    4    4    0    0 -0.57980430389E-02  0.35339739370E-01 -0.13888425751E-01  0.38414371954E-01  0.51100000000E-03 0.  1.
         11    1    4    4    0    0 -0.27155469644E-01  0.64756992281E-01 -0.56783098810E-01  0.90307635404E-01  0.51100000000E-03 0. -1.
</event>
<event>
 8    1  0.1042301E+005  0.1043930E+01  0.7957747E-01            NaN
         13   -1    0    0    0    0  0.00000000000E+00  0.00000000000E+00  0.74505805969E-08  0.10566000000E+00  0.10566000000E+00 0.  1.
     999900   -1    0    0    0    0 -0.00000000000E+00 -0.00000000000E+00 -0.74505805969E-08  0.93827000000E+00  0.93827000000E+00 0. -1.
     999902    2    1    2    0    0 -0.76641871538E-02  0.52009284154E-02 -0.20349804821E-01  0.10215714675E+01  0.10213267641E+01 0.  0.
     999903    2    3    3    0    0 -0.21148184241E-01  0.12814013797E+00 -0.20430418033E-01  0.13292312648E+00  0.19596298550E-01 0.  0.
         14    1    1    2    0    0  0.76641871538E-02 -0.52009284154E-02  0.20349804821E-01  0.22358532540E-01  0.00000000000E+00 0.  1.
     999901    1    3    3    0    0  0.13483997087E-01 -0.12293920956E+00  0.80613212383E-04  0.88864834098E+00  0.88000000000E+00 0.  1.
        -11    1    4    4    0    0 -0.21880067668E-01  0.95170632181E-01 -0.92227525695E-02  0.98089280132E-01  0.51100000000E-03 0.  1.
         11    1    4    4    0    0  0.73188342732E-03  0.32969505790E-01 -0.11207665464E-01  0.34833846350E-01  0.51100000000E-03 0. -1.
</event>
<event>
 8    1  0.1414237E+005  0.1043930E+01  0.7957747E-01            NaN
         13   -1    0    0    0    0  0.00000000000E+00  0.00000000000E+00  0.74505805969E-08  0.10566000000E+00  0.10566000000E+00 0.  1.
     999900   -1    0    0    0    0 -0.00000000000E+00 -0.00000000000E+00 -0.74505805969E-08  0.93827000000E+00  0.93827000000E+00 0. -1.
     999902    2    1    2    0    0  0.23718337588E-01  0.26200749775E-02  0.40753297524E-03  0.10200639066E+01  0.10197846749E+01 0.  0.
     999903    2    3    3    0    0  0.29290283393E-01  0.12282532970E+00 -0.29846067444E-01  0.13135943932E+00  0.20506882734E-01 0.  0.
         14    1    1    2    0    0 -0.23718337588E-01 -0.26200749775E-02 -0.40753297524E-03  0.23866093395E-01  0.00000000000E+00 0.  1.
     999901    1    3    3    0    0 -0.55719458055E-02 -0.12020525472E+00  0.30253600419E-01  0.88870446729E+00  0.88000000000E+00 0.  1.
        -11    1    4    4    0    0  0.13394828275E-01  0.73113353798E-01 -0.79401326554E-02  0.74754871117E-01  0.51100000000E-03 0. -1.
         11    1    4    4    0    0  0.15895455118E-01  0.49711975898E-01 -0.21905934789E-01  0.56604568199E-01  0.51100000000E-03 0.  1.
</event>
<event>
 8    1  0.1042301E+005  0.1043930E+01  0.7957747E-01            NaN
         13   -1    0    0    0    0  0.00000000000E+00  0.00000000000E+00  0.74505805969E-08  0.10566000000E+00  0.10566000000E+00 0.  1.
     999900   -1    0    0    0    0 -0.00000000000E+00 -0.00000000000E+00 -0.74505805969E-08  0.93827000000E+00  0.93827000000E+00 0.  1.
     999902    2    1    2    0    0 -0.16080791906E-01  0.14985631751E-01  0.10198318628E-01  0.10196984765E+01  0.10194105239E+01 0.  0.
     999903    2    3    3    0    0 -0.81251384473E-01 -0.44795537431E-01 -0.88526791216E-01  0.12977283826E+00  0.19888919874E-01 0.  0.
         14    1    1    2    0    0  0.16080791906E-01 -0.14985631751E-01 -0.10198318628E-01  0.24231523480E-01  0.00000000000E+00 0. -1.
     999901    1    3    3    0    0  0.65170592566E-01  0.59781169182E-01  0.98725109844E-01  0.88992563826E+00  0.88000000000E+00 0. -1.
        -11    1    4    4    0    0 -0.48837030104E-01 -0.21870060812E-01 -0.62585489204E-01  0.82344153704E-01  0.51100000000E-03 0. -1.
         11    1    4    4    0    0 -0.32414354368E-01 -0.22925476619E-01 -0.25941302012E-01  0.47428684553E-01  0.51100000000E-03 0.  1.
</event>
<event>
 8    1  0.1042301E+005  0.1043930E+01  0.7957747E-01            NaN
         13   -1    0    0    0    0  0.00000000000E+00  0.00000000000E+00  0.74505805969E-08  0.10566000000E+00  0.10566000000E+00 0.  1.
     999900   -1    0    0    0    0 -0.00000000000E+00 -0.00000000000E+00 -0.74505805969E-08  0.93827000000E+00  0.93827000000E+00 0.  1.
     999902    2    1    2    0    0  0.14821563355E-01 -0.18187462398E-01  0.38608670224E-03  0.10204648856E+01  0.10201950653E+01 0.  0.
     999903    2    3    3    0    0 -0.71055002956E-01 -0.77148792525E-01 -0.75637671817E-01  0.13106574299E+00  0.21364034147E-01 0.  0.
         14    1    1    2    0    0 -0.14821563355E-01  0.18187462398E-01 -0.38608670224E-03  0.23465114355E-01  0.00000000000E+00 0.  1.
     999901    1    3    3    0    0  0.85876566311E-01  0.58961330127E-01  0.76023758519E-01  0.88939914265E+00  0.88000000000E+00 0. -1.
        -11    1    4    4    0    0 -0.57445384701E-01 -0.50864206124E-01 -0.47615913149E-01  0.90303244649E-01  0.51100000000E-03 0.  1.
         11    1    4    4    0    0 -0.13609618254E-01 -0.26284586401E-01 -0.28021758669E-01  0.40762498343E-01  0.51100000000E-03 0. -1.
</event>
<event>
 8    1  0.1042301E+005  0.1043930E+01  0.7957747E-01            NaN
         13   -1    0    0    0    0  0.00000000000E+00  0.00000000000E+00  0.74505805969E-08  0.10566000000E+00  0.10566000000E+00 0. -1.
     999900   -1    0    0    0    0 -0.00000000000E+00 -0.00000000000E+00 -0.74505805969E-08  0.93827000000E+00  0.93827000000E+00 0. -1.
     999902    2    1    2    0    0 -0.37422385924E-02  0.17369396407E-01 -0.15531008332E-01  0.10203310064E+01  0.10200580621E+01 0.  0.
     999903    2    3    3    0    0  0.12015968493E+00 -0.42231609006E-01 -0.15962616942E-01  0.12965477293E+00  0.18267356771E-01 0.  0.
         14    1    1    2    0    0  0.37422385924E-02 -0.17369396407E-01  0.15531008332E-01  0.23598993645E-01  0.00000000000E+00 0. -1.
     999901    1    3    3    0    0 -0.12390192352E+00  0.59601005413E-01  0.43160861001E-03  0.89067623342E+00  0.88000000000E+00 0.  1.
        -11    1    4    4    0    0  0.82247171122E-01 -0.37479744544E-01 -0.92607743008E-02  0.90858964722E-01  0.51100000000E-03 0. -1.
         11    1    4    4    0    0  0.37912513806E-01 -0.47518644613E-02 -0.67018426413E-02  0.38795808211E-01  0.51100000000E-03 0.  1.
</event>
<event>
 8    1  0.1042301E+005  0.1043930E+01  0.7957747E-01            NaN
         13   -1    0    0    0    0  0.00000000000E+00  0.00000000000E+00  0.74505805969E-08  0.10566000000E+00  0.10566000000E+00 0. -1.
     999900   -1    0    0    0    0 -0.00000000000E+00 -0.00000000000E+00 -0.74505805969E-08  0.93827000000E+00  0.93827000000E+00 0. -1.
     999902    2    1    2    0    0 -0.10768829297E-01  0.13640614991E-02  0.20500363645E-01  0.10207331628E+01  0.10204695470E+01 0.  0.
     999903    2    3    3    0    0  0.67058519539E-01 -0.53407684224E-01  0.98545922370E-01  0.13216794310E+00  0.20195063527E-01 0.  0.
         14    1    1    2    0    0  0.10768829297E-01 -0.13640614991E-02 -0.20500363645E-01  0.23196837237E-01  0.00000000000E+00 0.  1.
     999901    1    3    3    0    0 -0.77827348836E-01  0.54771745723E-01 -0.78045558725E-01  0.88856521966E+00  0.88000000000E+00 0. -1.
        -11    1    4    4    0    0  0.65695224324E-01 -0.48008331708E-01  0.85793081309E-01  0.11824287012E+00  0.51100000000E-03 0. -1.
         11    1    4    4    0    0  0.13632952147E-02 -0.53993525164E-02  0.12752841061E-01  0.13925072983E-01  0.51100000000E-03 0.  1.
</event>
<event>
 8    1  0.1042301E+005  0.1043930E+01  0.7957747E-01            NaN
         13   -1    0    0    0    0  0.00000000000E+00  0.00000000000E+00  0.74505805969E-08  0.10566000000E+00  0.10566000000E+00 0.  1.
     999900   -1    0    0    0    0 -0.00000000000E+00 -0.00000000000E+00 -0.74505805969E-08  0.93827000000E+00  0.93827000000E+00 0. -1.
     999902    2    1    2    0    0 -0.13001688478E-01 -0.12550974905E-01 -0.13653361731E-01  0.10212808243E+01  0.10210296454E+01 0.  0.
     999903    2    3    3    0    0  0.55601384378E-01  0.43360831318E-01 -0.10908396667E+00  0.13170816730E+00  0.21818659721E-01 0.  0.
         14    1    1    2    0    0  0.13001688478E-01  0.12550974905E-01  0.13653361731E-01  0.22649175722E-01  0.00000000000E+00 0.  1.
     999901    1    3    3    0    0 -0.68603072856E-01 -0.55911806222E-01  0.95430604940E-01  0.88957265698E+00  0.88000000000E+00 0.  1.
        -11    1    4    4    0    0  0.12876319544E-01  0.15298032435E-01 -0.16418956665E-01  0.25878034322E-01  0.51100000000E-03 0.  1.
         11    1    4    4    0    0  0.42725064834E-01  0.28062798882E-01 -0.92665010006E-01  0.10583013298E+00  0.51100000000E-03 0. -1.
</event>
<event>
 8    1  0.1042301E+005  0.1043930E+01  0.7957747E-01            NaN
         13   -1    0    0    0    0  0.00000000000E+00  0.00000000000E+00  0.74505805969E-08  0.10566000000E+00  0.10566000000E+00 0.  1.
     999900   -1    0    0    0    0 -0.00000000000E+00 -0.00000000000E+00 -0.74505805969E-08  0.93827000000E+00  0.93827000000E+00 0.  1.
     999902    2    1    2    0    0  0.10248542347E-02  0.90903657297E-02 -0.22252847291E-01  0.10198701935E+01  0.10195863560E+01 0.  0.
     999903    2    3    3    0    0 -0.89304439416E-01  0.48339936150E-01  0.76679354122E-01  0.12886655125E+00  0.20367433685E-01 0.  0.
         14    1    1    2    0    0 -0.10248542347E-02 -0.90903657297E-02  0.22252847291E-01  0.24059806480E-01  0.00000000000E+00 0.  1.
     999901    1    3    3    0    0  0.90329293651E-01 -0.39249570421E-01 -0.98932201413E-01  0.89100364227E+00  0.88000000000E+00 0.  1.
        -11    1    4    4    0    0 -0.30635071362E-01  0.24161222545E-01  0.20317755964E-01  0.43992551650E-01  0.51100000000E-03 0.  1.
         11    1    4    4    0    0 -0.58669368054E-01  0.24178713605E-01  0.56361598159E-01  0.84873999596E-01  0.51100000000E-03 0. -1.
</event>
<event>
 8    1  0.1042301E+005  0.1043930E+01  0.7957747E-01            NaN
         13   -1    0    0    0    0  0.00000000000E+00  0.00000000000E+00  0.74505805969E-08  0.10566000000E+00  0.10566000000E+00 0. -1.
     999900   -1    0    0    0    0 -0.00000000000E+00 -0.00000000000E+00 -0.74505805969E-08  0.93827000000E+00  0.93827000000E+00 0.  1.
     999902    2    1    2    0    0  0.98381671233E-02  0.18037750033E-01 -0.12460223114E-01  0.10199007029E+01  0.10196175934E+01 0.  0.
     999903    2    3    3    0    0  0.12337431801E+00  0.94971829339E-02  0.38422654051E-01  0.13110800153E+00  0.20039682895E-01 0.  0.
         14    1    1    2    0    0 -0.98381671233E-02 -0.18037750033E-01  0.12460223114E-01  0.24029297090E-01  0.00000000000E+00 0. -1.
     999901    1    3    3    0    0 -0.11353615089E+00  0.85405670986E-02 -0.50882877165E-01  0.88879270138E+00  0.88000000000E+00 0.  1.
        -11    1    4    4    0    0  0.12042954249E-01 -0.50042503986E-02  0.48431298106E-02  0.13920930158E-01  0.51100000000E-03 0.  1.
         11    1    4    4    0    0  0.11133136377E+00  0.14501433333E-01  0.33579524241E-01  0.11718707137E+00  0.51100000000E-03 0. -1.
</event>
<event>
 8    1  0.1042301E+005  0.1043930E+01  0.7957747E-01            NaN
         13   -1    0    0    0    0  0.00000000000E+00  0.00000000000E+00  0.74505805969E-08  0.10566000000E+00  0.10566000000E+00 0.  1.
     999900   -1    0    0    0    0 -0.00000000000E+00 -0.00000000000E+00 -0.74505805969E-08  0.93827000000E+00  0.93827000000E+00 0.  1.
     999902    2    1    2    0    0  0.70643907943E-02  0.53350067610E-02 -0.21951156830E-01  0.10202610076E+01  0.10199864227E+01 0.  0.
     999903    2    3    3    0    0  0.97249298490E-01  0.34935476900E-01 -0.81529692206E-01  0.13315385102E+00  0.20123213613E-01 0.  0.
         14    1    1    2    0    0 -0.70643907943E-02 -0.53350067610E-02  0.21951156830E-01  0.23668992387E-01  0.00000000000E+00 0.  1.
     999901    1    3    3    0    0 -0.90184907696E-01 -0.29600470139E-01  0.59578535376E-01  0.88710715660E+00  0.88000000000E+00 0. -1.
        -11    1    4    4    0    0  0.26927873485E-01  0.76303911587E-02 -0.33790138333E-01  0.43879013312E-01  0.51100000000E-03 0.  1.
         11    1    4    4    0    0  0.70321425004E-01  0.27305085742E-01 -0.47739553872E-01  0.89274837703E-01  0.51100000000E-03 0. -1.
</event>
<event>
 8    1  0.1042301E+005  0.1043930E+01  0.7957747E-01            NaN
         13   -1    0    0    0    0  0.00000000000E+00  0.00000000000E+00  0.74505805969E-08  0.10566000000E+00  0.10566000000E+00 0. -1.
     999900   -1    0    0    0    0 -0.00000000000E+00 -0.00000000000E+00 -0.74505805969E-08  0.93827000000E+00  0.93827000000E+00 0.  1.
     999902    2    1    2    0    0  0.16990793896E-01 -0.16707143517E-02 -0.16542277178E-01  0.10201576358E+01  0.10198806188E+01 0.  0.
     999903    2    3    3    0    0  0.96127978408E-01 -0.41741682947E-02 -0.90321448165E-01  0.13352787809E+00  0.20340066723E-01 0.  0.
         14    1    1    2    0    0 -0.16990793896E-01  0.16707143517E-02  0.16542277178E-01  0.23772364163E-01  0.00000000000E+00 0. -1.
     999901    1    3    3    0    0 -0.79137184513E-01  0.25034539430E-02  0.73779170987E-01  0.88662975775E+00  0.88000000000E+00 0. -1.
        -11    1    4    4    0    0  0.91522067441E-01  0.80861757904E-03 -0.83505039170E-01  0.12389630898E+00  0.51100000000E-03 0.  1.
         11    1    4    4    0    0  0.46059109679E-02 -0.49827858738E-02 -0.68164089951E-02  0.96315691088E-02  0.51100000000E-03 0. -1.
</event>
<event>
 7    1  0.1042301E+005  0.1043930E+01  0.7957747E-01            NaN
         13   -1    0    0    0    0  0.00000000000E+00  0.00000000000E+00  0.74505805969E-08  0.10566000000E+00  0.10566000000E+00 0.  1.
     999900   -1    0    0    0    0 -0.00000000000E+00 -0.00000000000E+00 -0.74505805969E-08  0.93827000000E+00  0.93827000000E+00 0. -1.
     999903    2    1    2    0    0  0.92163032662E-01 -0.27775294636E-01  0.62806126536E-01  0.11676801341E+00  0.20607470582E-01 0.  0.
         14    1    1    2    0    0  0.12590480203E-01  0.29912785349E-01 -0.23511102580E-01  0.40075764043E-01  0.00000000000E+00 0.  1.
     999901    1    1    2    0    0 -0.10475351287E+00 -0.21374907139E-02 -0.39295023955E-01  0.88708622255E+00  0.88000000000E+00 0. -1.
        -11    1    3    3    0    0  0.54232320213E-01 -0.56928671258E-02  0.33872447191E-01  0.64196238920E-01  0.51100000000E-03 0.  1.
         11    1    3    3    0    0  0.37930712450E-01 -0.22082427510E-01  0.28933679345E-01  0.52571774491E-01  0.51100000000E-03 0. -1.
</event>
<event>
 8    1  0.1042301E+005  0.1043930E+01  0.7957747E-01            NaN
         13   -1    0    0    0    0  0.00000000000E+00  0.00000000000E+00  0.74505805969E-08  0.10566000000E+00  0.10566000000E+00 0.  1.
     999900   -1    0    0    0    0 -0.00000000000E+00 -0.00000000000E+00 -0.74505805969E-08  0.93827000000E+00  0.93827000000E+00 0. -1.
     999902    2    1    2    0    0 -0.29076809794E-02 -0.23180897062E-01  0.98930318214E-02  0.10185591373E+01  0.10182431121E+01 0.  0.
     999903    2    3    3    0    0  0.66721981451E-01  0.14508378796E-01  0.10827583748E+00  0.12954398112E+00  0.19891460467E-01 0.  0.
         14    1    1    2    0    0  0.29076809794E-02  0.23180897062E-01 -0.98930318214E-02  0.25370862734E-01  0.00000000000E+00 0. -1.
     999901    1    3    3    0    0 -0.69629662430E-01 -0.37689275858E-01 -0.98382805655E-01  0.88901515614E+00  0.88000000000E+00 0. -1.
        -11    1    4    4    0    0  0.42135700340E-01  0.15601087881E-01  0.56294482455E-01  0.72028751635E-01  0.51100000000E-03 0.  1.
         11    1    4    4    0    0  0.24586281110E-01 -0.10927090842E-02  0.51981355022E-01  0.57515229486E-01  0.51100000000E-03 0. -1.
</event>
<event>
 8    1  0.1042301E+005  0.1043930E+01  0.7957747E-01            NaN
         13   -1    0    0    0    0  0.00000000000E+00  0.00000000000E+00  0.74505805969E-08  0.10566000000E+00  0.10566000000E+00 0.  1.
     999900   -1    0    0    0    0 -0.00000000000E+00 -0.00000000000E+00 -0.74505805969E-08  0.93827000000E+00  0.93827000000E+00 0.  1.
     999902    2    1    2    0    0  0.14520957598E-01  0.14028537176E-01 -0.11479396567E-01  0.10207042684E+01  0.10204399879E+01 0.  0.
     999903    2    3    3    0    0 -0.12066166724E+00  0.27918370046E-01 -0.34060393086E-01  0.12998704560E+00  0.19946135420E-01 0.  0.
         14    1    1    2    0    0 -0.14520957598E-01 -0.14028537176E-01  0.11479396567E-01  0.23225731644E-01  0.00000000000E+00 0.  1.
     999901    1    3    3    0    0  0.13518262484E+00 -0.13889832870E-01  0.22580996519E-01  0.89071722276E+00  0.88000000000E+00 0.  1.
        -11    1    4    4    0    0 -0.10091407126E-01  0.56641845194E-02  0.16036636753E-02  0.11694115710E-01  0.51100000000E-03 0. -1.
         11    1    4    4    0    0 -0.11057026012E+00  0.22254185527E-01 -0.35664056762E-01  0.11829292989E+00  0.51100000000E-03 0.  1.
</event>
<event>
 8    1  0.1042301E+005  0.1043930E+01  0.7957747E-01            NaN
         13   -1    0    0    0    0  0.00000000000E+00  0.00000000000E+00  0.74505805969E-08  0.10566000000E+00  0.10566000000E+00 0. -1.
     999900   -1    0    0    0    0 -0.00000000000E+00 -0.00000000000E+00 -0.74505805969E-08  0.93827000000E+00  0.93827000000E+00 0. -1.
     999902    2    1    2    0    0  0.21313041139E-01  0.76804369439E-02 -0.11542489197E-01  0.10185043458E+01  0.10181869369E+01 0.  0.
     999903    2    3    3    0    0  0.72222755444E-01  0.28542007362E-01  0.10168468043E+00  0.12954574381E+00  0.20286767006E-01 0.  0.
         14    1    1    2    0    0 -0.21313041139E-01 -0.76804369439E-02  0.11542489197E-01  0.25425654192E-01  0.00000000000E+00 0. -1.
     999901    1    3    3    0    0 -0.50909714305E-01 -0.20861570418E-01 -0.11322716963E+00  0.88895860200E+00  0.88000000000E+00 0. -1.
        -11    1    4    4    0    0  0.29577656974E-01  0.19456055182E-01  0.57066787932E-01  0.67158434178E-01  0.51100000000E-03 0.  1.
         11    1    4    4    0    0  0.42645098470E-01  0.90859521801E-02  0.44617892500E-01  0.62387309628E-01  0.51100000000E-03 0. -1.
</event>
<event>
 8    1  0.1042301E+005  0.1043930E+01  0.7957747E-01            NaN
         13   -1    0    0    0    0  0.00000000000E+00  0.00000000000E+00  0.74505805969E-08  0.10566000000E+00  0.10566000000E+00 0.  1.
     999900   -1    0    0    0    0 -0.00000000000E+00 -0.00000000000E+00 -0.74505805969E-08  0.93827000000E+00  0.93827000000E+00 0.  1.
     999902    2    1    2    0    0 -0.13257781084E-02  0.19889193720E-01 -0.14553071498E-01  0.10192494489E+01  0.10189505922E+01 0.  0.
     999903    2    3    3    0    0  0.85832255538E-01 -0.63916640590E-01  0.66490929452E-01  0.12729201110E+00  0.18157625260E-01 0.  0.
         14    1    1    2    0    0  0.13257781084E-02 -0.19889193720E-01  0.14553071498E-01  0.24680551137E-01  0.00000000000E+00 0.  1.
     999901    1    3    3    0    0 -0.87158033646E-01  0.83805834310E-01 -0.81044000950E-01  0.89195743776E+00  0.88000000000E+00 0.  1.
        -11    1    4    4    0    0  0.57874561949E-01 -0.52248808916E-01  0.51874895062E-01  0.93651848955E-01  0.51100000000E-03 0. -1.
         11    1    4    4    0    0  0.27957693588E-01 -0.11667831674E-01  0.14616034390E-01  0.33640162144E-01  0.51100000000E-03 0.  1.
</event>
<event>
 8    1  0.1042301E+005  0.1043930E+01  0.7957747E-01            NaN
         13   -1    0    0    0    0  0.00000000000E+00  0.00000000000E+00  0.74505805969E-08  0.10566000000E+00  0.10566000000E+00 0.  1.
     999900   -1    0    0    0    0 -0.00000000000E+00 -0.00000000000E+00 -0.74505805969E-08  0.93827000000E+00  0.93827000000E+00 0. -1.
     999902    2    1    2    0    0  0.10960936887E-01  0.78922387668E-02 -0.19481267156E-01  0.10202245293E+01  0.10199490874E+01 0.  0.
     999903    2    3    3    0    0 -0.30013700968E-01  0.11246478763E+00  0.53898685988E-01  0.13005659210E+00  0.21459219390E-01 0.  0.
         14    1    1    2    0    0 -0.10960936887E-01 -0.78922387668E-02  0.19481267156E-01  0.23705470681E-01  0.00000000000E+00 0.  1.
     999901    1    3    3    0    0  0.40974637855E-01 -0.10457254886E+00 -0.73379953144E-01  0.89016793722E+00  0.88000000000E+00 0. -1.
        -11    1    4    4    0    0 -0.88488045260E-02  0.73231055717E-01  0.32574293323E-01  0.80637674628E-01  0.51100000000E-03 0.  1.
         11    1    4    4    0    0 -0.21164896442E-01  0.39233731909E-01  0.21324392665E-01  0.49418917476E-01  0.51100000000E-03 0. -1.
</event>
<event>
 8    1  0.1042301E+005  0.1043930E+01  0.7957747E-01            NaN
         13   -1    0    0    0    0  0.00000000000E+00  0.00000000000E+00  0.74505805969E-08  0.10566000000E+00  0.10566000000E+00 0. -1.
     999900   -1    0    0    0    0 -0.00000000000E+00 -0.00000000000E+00 -0.74505805969E-08  0.93827000000E+00  0.93827000000E+00 0. -1.
     999902    2    1    2    0    0  0.11442269528E-01  0.18926616970E-01  0.20272961555E-02  0.10217207161E+01  0.10214793044E+01 0.  0.
     999903    2    3    3    0    0 -0.89866750266E-01  0.79083206051E-01  0.52845797668E-01  0.13241488974E+00  0.20269149213E-01 0.  0.
         14    1    1    2    0    0 -0.11442269528E-01 -0.18926616970E-01 -0.20272961555E-02  0.22209283905E-01  0.00000000000E+00 0. -1.
     999901    1    3    3    0    0  0.10130901979E+00 -0.60156589082E-01 -0.50818501512E-01  0.88930582636E+00  0.88000000000E+00 0. -1.
        -11    1    4    4    0    0 -0.53437185925E-01  0.40996162909E-01  0.19792073161E-01  0.70201178722E-01  0.51100000000E-03 0.  1.
         11    1    4    4    0    0 -0.36429564341E-01  0.38087043142E-01  0.33053724507E-01  0.62213711014E-01  0.51100000000E-03 0. -1.
</event>
<event>
 8    1  0.1042301E+005  0.1043930E+01  0.7957747E-01            NaN
         13   -1    0    0    0    0  0.00000000000E+00  0.00000000000E+00  0.74505805969E-08  0.10566000000E+00  0.10566000000E+00 0.  1.
     999900   -1    0    0    0    0 -0.00000000000E+00 -0.00000000000E+00 -0.74505805969E-08  0.93827000000E+00  0.93827000000E+00 0. -1.
     999902    2    1    2    0    0  0.83656994277E-02 -0.21037154254E-01  0.81330864908E-02  0.10198739429E+01  0.10195901949E+01 0.  0.
     999903    2    3    3    0    0  0.94184371212E-01  0.50504112933E-01  0.72270405274E-01  0.13049405053E+00  0.19604197048E-01 0.  0.
         14    1    1    2    0    0 -0.83656994277E-02  0.21037154254E-01 -0.81330864908E-02  0.24056057073E-01  0.00000000000E+00 0.  1.
     999901    1    3    3    0    0 -0.85818671784E-01 -0.71541267187E-01 -0.64137318783E-01  0.88937989240E+00  0.88000000000E+00 0.  1.
        -11    1    4    4    0    0  0.19765880598E-01  0.17019371941E-01  0.25270201908E-01  0.36320700469E-01  0.51100000000E-03 0.  1.
         11    1    4    4    0    0  0.74418490614E-01  0.33484740992E-01  0.47000203366E-01  0.94173350062E-01  0.51100000000E-03 0. -1.
</event>
<event>
 7    1  0.1042301E+005  0.1043930E+01  0.7957747E-01            NaN
         13   -1    0    0    0    0  0.00000000000E+00  0.00000000000E+00  0.74505805969E-08  0.10566000000E+00  0.10566000000E+00 0.  1.
     999900   -1    0    0    0    0 -0.00000000000E+00 -0.00000000000E+00 -0.74505805969E-08  0.93827000000E+00  0.93827000000E+00 0.  1.
     999902    2    1    2    0    0 -0.12930004756E-01  0.16830742475E-02  0.15839610910E-01  0.10234138835E+01  0.10232082222E+01 0.  0.
         14    1    1    2    0    0  0.12930004756E-01 -0.16830742475E-02 -0.15839610910E-01  0.20516116487E-01  0.00000000000E+00 0. -1.
     999901    1    3    3    0    0  0.49941434676E-01 -0.86610824007E-02 -0.98559483803E-01  0.88695159569E+00  0.88000000000E+00 0.  1.
        -11    1    3    3    0    0 -0.30868190250E-01 -0.13656153529E-01  0.43591054473E-01  0.55134171342E-01  0.51100000000E-03 0. -1.
         11    1    3    3    0    0 -0.32003249183E-01  0.24000310178E-01  0.70808040241E-01  0.81328116483E-01  0.51100000000E-03 0.  1.
</event>
<event>
 8    1  0.1042301E+005  0.1043930E+01  0.7957747E-01            NaN
         13   -1    0    0    0    0  0.00000000000E+00  0.00000000000E+00  0.74505805969E-08  0.10566000000E+00  0.10566000000E+00 0.  1.
     999900   -1    0    0    0    0 -0.00000000000E+00 -0.00000000000E+00 -0.74505805969E-08  0.93827000000E+00  0.93827000000E+00 0. -1.
     999902    2    1    2    0    0 -0.20167447034E-01 -0.11183487899E-01 -0.44672001826E-02  0.10204405939E+01  0.10201702081E+01 0.  0.
     999903    2    3    3    0    0  0.91397762204E-02 -0.10474617583E+00 -0.77109705435E-01  0.13202074750E+00  0.20694787720E-01 0.  0.
         14    1    1    2    0    0  0.20167447034E-01  0.11183487899E-01  0.44672001826E-02  0.23489406100E-01  0.00000000000E+00 0.  1.
     999901    1    3    3    0    0 -0.29307223255E-01  0.93562687927E-01  0.72642505252E-01  0.88841984640E+00  0.88000000000E+00 0.  1.
        -11    1    4    4    0    0  0.30937503572E-02 -0.80739350298E-01 -0.68100621990E-01  0.10567104530E+00  0.51100000000E-03 0. -1.
         11    1    4    4    0    0  0.60460258632E-02 -0.24006825528E-01 -0.90090834447E-02  0.26349702203E-01  0.51100000000E-03 0.  1.
</event>
<event>
 8    1  0.1042301E+005  0.1043930E+01  0.7957747E-01            NaN
         13   -1    0    0    0    0  0.00000000000E+00  0.00000000000E+00  0.74505805969E-08  0.10566000000E+00  0.10566000000E+00 0.  1.
     999900   -1    0    0    0    0 -0.00000000000E+00 -0.00000000000E+00 -0.74505805969E-08  0.93827000000E+00  0.93827000000E+00 0.  1.
     999902    2    1    2    0    0 -0.21903699350E-01  0.32463388019E-02  0.16189092069E-01  0.10165001356E+01  0.10161299760E+01 0.  0.
     999903    2    3    3    0    0  0.42140103547E-01 -0.56441387378E-01 -0.10075866286E+00  0.12445696916E+00  0.19385832344E-01 0.  0.
         14    1    1    2    0    0  0.21903699350E-01 -0.32463388019E-02 -0.16189092069E-01  0.27429864433E-01  0.00000000000E+00 0. -1.
     999901    1    3    3    0    0 -0.64043802897E-01  0.59687726180E-01  0.11694775493E+00  0.89204316640E+00  0.88000000000E+00 0.  1.
        -11    1    4    4    0    0  0.99217540441E-02 -0.21111733814E-01 -0.47243242381E-01  0.52690906043E-01  0.51100000000E-03 0. -1.
         11    1    4    4    0    0  0.32218349503E-01 -0.35329653564E-01 -0.53515420478E-01  0.71766063120E-01  0.51100000000E-03 0.  1.
</event>
<event>
 8    1  0.1042301E+005  0.1043930E+01  0.7957747E-01            NaN
         13   -1    0    0    0    0  0.00000000000E+00  0.00000000000E+00  0.74505805969E-08  0.10566000000E+00  0.10566000000E+00 0.  1.
     999900   -1    0    0    0    0 -0.00000000000E+00 -0.00000000000E+00 -0.74505805969E-08  0.93827000000E+00  0.93827000000E+00 0.  1.
     999902    2    1    2    0    0 -0.16804624804E-01  0.11101224957E-01 -0.11785914202E-01  0.10205946109E+01  0.10203278000E+01 0.  0.
     999903    2    3    3    0    0 -0.63424857139E-01  0.10274977482E+00 -0.53509074863E-01  0.13362576992E+00  0.20307549471E-01 0.  0.
         14    1    1    2    0    0  0.16804624804E-01 -0.11101224957E-01  0.11785914202E-01  0.23335389089E-01  0.00000000000E+00 0.  1.
     999901    1    3    3    0    0  0.46620232335E-01 -0.91648549862E-01  0.41723160661E-01  0.88696884099E+00  0.88000000000E+00 0.  1.
        -11    1    4    4    0    0 -0.38185128650E-01  0.66161918763E-01 -0.44036145463E-01  0.88175658618E-01  0.51100000000E-03 0. -1.
         11    1    4    4    0    0 -0.25239728488E-01  0.36587856056E-01 -0.94729293999E-02  0.45450111302E-01  0.51100000000E-03 0.  1.
</event>
<event>
 8    1  0.1042301E+005  0.1043930E+01  0.7957747E-01            NaN
         13   -1    0    0    0    0  0.00000000000E+00  0.00000000000E+00  0.74505805969E-08  0.10566000000E+00  0.10566000000E+00 0. -1.
     999900   -1    0    0    0    0 -0.00000000000E+00 -0.00000000000E+00 -0.74505805969E-08  0.93827000000E+00  0.93827000000E+00 0. -1.
     999902    2    1    2    0    0 -0.23221849721E-01 -0.17543871795E-02  0.23008972072E-02  0.10205285832E+01  0.10202602427E+01 0.  0.
     999903    2    3    3    0    0  0.92855209043E-01  0.24624290528E-01 -0.82676028761E-01  0.12845751198E+00  0.20917961732E-01 0.  0.
         14    1    1    2    0    0  0.23221849721E-01  0.17543871795E-02 -0.23008972072E-02  0.23401416769E-01  0.00000000000E+00 0. -1.
     999901    1    3    3    0    0 -0.11607705876E+00 -0.26378677707E-01  0.84976925969E-01  0.89207107125E+00  0.88000000000E+00 0.  1.
        -11    1    4    4    0    0  0.60470576836E-01  0.82892897402E-02 -0.42788364716E-01  0.74541989934E-01  0.51100000000E-03 0. -1.
         11    1    4    4    0    0  0.32384632207E-01  0.16335000788E-01 -0.39887664046E-01  0.53915522050E-01  0.51100000000E-03 0.  1.
</event>
<event>
 8    1  0.1042301E+005  0.1043930E+01  0.7957747E-01            NaN
         13   -1    0    0    0    0  0.00000000000E+00  0.00000000000E+00  0.74505805969E-08  0.10566000000E+00  0.10566000000E+00 0. -1.
     999900   -1    0    0    0    0 -0.00000000000E+00 -0.00000000000E+00 -0.74505805969E-08  0.93827000000E+00  0.93827000000E+00 0.  1.
     999902    2    1    2    0    0 -0.97991540485E-02  0.14554782215E-01 -0.16629307911E-01  0.10197556544E+01  0.10194690754E+01 0.  0.
     999903    2    3    3    0    0 -0.10161949917E+00  0.73100850044E-01 -0.39192519108E-01  0.13275637796E+00  0.20443714119E-01 0.  0.
         14    1    1    2    0    0  0.97991540485E-02 -0.14554782215E-01  0.16629307911E-01  0.24174345637E-01  0.00000000000E+00 0. -1.
     999901    1    3    3    0    0  0.91820345121E-01 -0.58546067830E-01  0.22563211197E-01  0.88699927640E+00  0.88000000000E+00 0. -1.
        -11    1    4    4    0    0 -0.53152079282E-01  0.47706870753E-01 -0.29047568466E-01  0.77104548529E-01  0.51100000000E-03 0.  1.
         11    1    4    4    0    0 -0.48467419887E-01  0.25393979291E-01 -0.10144950643E-01  0.55651829433E-01  0.51100000000E-03 0. -1.
</event>
<event>
 8    1  0.1042301E+005  0.1043930E+01  0.7957747E-01            NaN
         13   -1    0    0    0    0  0.00000000000E+00  0.00000000000E+00  0.74505805969E-08  0.10566000000E+00  0.10566000000E+00 0.  1.
     999900   -1    0    0    0    0 -0.00000000000E+00 -0.00000000000E+00 -0.74505805969E-08  0.93827000000E+00  0.93827000000E+00 0.  1.
     999902    2    1    2    0    0  0.86690329773E-02  0.17404662149E-01  0.13371573233E-01  0.10203318355E+01  0.10200589106E+01 0.  0.
     999903    2    3    3    0    0  0.11847216662E+00 -0.46518843000E-01 -0.22675363712E-01  0.13047660888E+00  0.17615797716E-01 0.  0.
         14    1    1    2    0    0 -0.86690329773E-02 -0.17404662149E-01 -0.13371573233E-01  0.23598164505E-01  0.00000000000E+00 0.  1.
     999901    1    3    3    0    0 -0.10980313364E+00  0.63923505149E-01  0.36046936945E-01  0.88985522661E+00  0.88000000000E+00 0.  1.
        -11    1    4    4    0    0  0.77984244699E-01 -0.38885444317E-01 -0.12504240649E-01  0.88035432391E-01  0.51100000000E-03 0.  1.
         11    1    4    4    0    0  0.40487921917E-01 -0.76333986827E-02 -0.10171123063E-01  0.42441176491E-01  0.51100000000E-03 0. -1.
</event>
<event>
 8    1  0.1042301E+005  0.1043930E+01  0.7957747E-01            NaN
         13   -1    0    0    0    0  0.00000000000E+00  0.00000000000E+00  0.74505805969E-08  0.10566000000E+00  0.10566000000E+00 0. -1.
     999900   -1    0    0    0    0 -0.00000000000E+00 -0.00000000000E+00 -0.74505805969E-08  0.93827000000E+00  0.93827000000E+00 0.  1.
     999902    2    1    2    0    0  0.12629526820E-01 -0.16059852158E-01  0.11837078876E-01  0.10203177101E+01  0.10200444546E+01 0.  0.
     999903    2    3    3    0    0  0.10601823984E+00 -0.76354699045E-01  0.17178810130E-02  0.13326679922E+00  0.26214145320E-01 0.  0.
         14    1    1    2    0    0 -0.12629526820E-01  0.16059852158E-01 -0.11837078876E-01  0.23612289922E-01  0.00000000000E+00 0.  1.
     999901    1    3    3    0    0 -0.93388713022E-01  0.60294846887E-01  0.10119197864E-01  0.88705091085E+00  0.88000000000E+00 0. -1.
        -11    1    4    4    0    0  0.67694161378E-01 -0.63322449605E-01  0.32856935734E-02  0.92753916424E-01  0.51100000000E-03 0.  1.
         11    1    4    4    0    0  0.38324078464E-01 -0.13032249440E-01 -0.15678125604E-02  0.40512882800E-01  0.51100000000E-03 0. -1.
</event>
<event>
 8    1  0.1042301E+005  0.1043930E+01  0.7957747E-01            NaN
         13   -1    0    0    0    0  0.00000000000E+00  0.00000000000E+00  0.74505805969E-08  0.10566000000E+00  0.10566000000E+00 0. -1.
     999900   -1    0    0    0    0 -0.00000000000E+00 -0.00000000000E+00 -0.74505805969E-08  0.93827000000E+00  0.93827000000E+00 0.  1.
     999902    2    1    2    0    0 -0.68750987381E-02 -0.22316900900E-01 -0.13915746048E-01  0.10167461990E+01  0.10163827400E+01 0.  0.
     999903    2    3    3    0    0  0.84347853003E-01 -0.82704050431E-01  0.44765153667E-01  0.12803270032E+00  0.20831061061E-01 0.  0.
         14    1    1    2    0    0  0.68750987381E-02  0.22316900900E-01  0.13915746048E-01  0.27183800995E-01  0.00000000000E+00 0. -1.
     999901    1    3    3    0    0 -0.91222951741E-01  0.60387149530E-01 -0.58680899714E-01  0.88871349868E+00  0.88000000000E+00 0.  1.
        -11    1    4    4    0    0  0.40165259432E-01 -0.26093628940E-01  0.13970056403E-01  0.49895381885E-01  0.51100000000E-03 0.  1.
         11    1    4    4    0    0  0.44182593570E-01 -0.56610421490E-01  0.30795097263E-01  0.78137318436E-01  0.51100000000E-03 0. -1.
</event>
<event>
 8    1  0.1042301E+005  0.1043930E+01  0.7957747E-01            NaN
         13   -1    0    0    0    0  0.00000000000E+00  0.00000000000E+00  0.74505805969E-08  0.10566000000E+00  0.10566000000E+00 0.  1.
     999900   -1    0    0    0    0 -0.00000000000E+00 -0.00000000000E+00 -0.74505805969E-08  0.93827000000E+00  0.93827000000E+00 0.  1.
     999902    2    1    2    0    0  0.10963870438E-01  0.40875522550E-04 -0.23917786371E-01  0.10176190017E+01  0.10172788035E+01 0.  0.
     999903    2    3    3    0    0 -0.10121707414E+00 -0.33403899797E-01  0.63298994661E-01  0.12559328223E+00  0.20154235227E-01 0.  0.
         14    1    1    2    0    0 -0.10963870438E-01 -0.40875522550E-04  0.23917786371E-01  0.26310998283E-01  0.00000000000E+00 0.  1.
     999901    1    3    3    0    0  0.11218094458E+00  0.33444775320E-01 -0.87216781032E-01  0.89202571948E+00  0.88000000000E+00 0.  1.
        -11    1    4    4    0    0 -0.11541041213E-01 -0.30861678961E-02  0.15411778191E-01  0.19506514106E-01  0.51100000000E-03 0. -1.
         11    1    4    4    0    0 -0.89676032930E-01 -0.30317731901E-01  0.47887216470E-01  0.10608676813E+00  0.51100000000E-03 0.  1.
</event>
<event>
 8    1  0.1042301E+005  0.1043930E+01  0.7957747E-01            NaN
         13   -1    0    0    0    0  0.00000000000E+00  0.00000000000E+00  0.74505805969E-08  0.10566000000E+00  0.10566000000E+00 0. -1.
     999900   -1    0    0    0    0 -0.00000000000E+00 -0.00000000000E+00 -0.74505805969E-08  0.93827000000E+00  0.93827000000E+00 0.  1.
     999902    2    1    2    0    0 -0.32855388187E-02 -0.17067772539E-01 -0.16211328510E-01  0.10201621478E+01  0.10198852372E+01 0.  0.
     999903    2    3    3    0    0 -0.88104341963E-01  0.53645336450E-01 -0.78719910115E-01  0.13106041241E+00  0.18433943074E-01 0.  0.
         14    1    1    2    0    0  0.32855388187E-02  0.17067772539E-01  0.16211328510E-01  0.23767852171E-01  0.00000000000E+00 0.  1.
     999901    1    3    3    0    0  0.84818803144E-01 -0.70713108989E-01  0.62508581606E-01  0.88910173542E+00  0.88000000000E+00 0. -1.
        -11    1    4    4    0    0 -0.25984023613E-01  0.83629403565E-02 -0.14629226034E-01  0.30973918543E-01  0.51100000000E-03 0.  1.
         11    1    4    4    0    0 -0.62120318349E-01  0.45282396093E-01 -0.64090684082E-01  0.10008649387E+00  0.51100000000E-03 0. -1.
</event>
<event>
 8    1  0.1042301E+005  0.1043930E+01  0.7957747E-01            NaN
         13   -1    0    0    0    0  0.00000000000E+00  0.00000000000E+00  0.74505805969E-08  0.10566000000E+00  0.10566000000E+00 0. -1.
     999900   -1    0    0    0    0 -0.00000000000E+00 -0.00000000000E+00 -0.74505805969E-08  0.93827000000E+00  0.93827000000E+00 0. -1.
     999902    2    1    2    0    0  0.17340951651E-01 -0.15974885448E-01 -0.23256822284E-02  0.10202379261E+01  0.10199627990E+01 0.  0.
     999903    2    3    3    0    0 -0.86221823731E-02 -0.11508035173E+00  0.61042043927E-01  0.13203105462E+00  0.19703778165E-01 0.  0.
         14    1    1    2    0    0 -0.17340951651E-01  0.15974885448E-01  0.23256822284E-02  0.23692073929E-01  0.00000000000E+00 0. -1.
     999901    1    3    3    0    0  0.25963134024E-01  0.99105466282E-01 -0.63367726155E-01  0.88820687145E+00  0.88000000000E+00 0.  1.
        -11    1    4    4    0    0 -0.14162284382E-01 -0.59564357845E-01  0.29974357251E-01  0.68170420551E-01  0.51100000000E-03 0.  1.
         11    1    4    4    0    0  0.55401020089E-02 -0.55515993885E-01  0.31067686676E-01  0.63860634069E-01  0.51100000000E-03 0. -1.
</event>
<event>
 8    1  0.1042301E+005  0.1043930E+01  0.7957747E-01            NaN
         13   -1    0    0    0    0  0.00000000000E+00  0.00000000000E+00  0.74505805969E-08  0.10566000000E+00  0.10566000000E+00 0. -1.
     999900   -1    0    0    0    0 -0.00000000000E+00 -0.00000000000E+00 -0.74505805969E-08  0.93827000000E+00  0.93827000000E+00 0. -1.
     999902    2    1    2    0    0 -0.19729282310E-01 -0.12747499753E-01 -0.51902797420E-03  0.10204350490E+01  0.10201645341E+01 0.  0.
     999903    2    3    3    0    0  0.24933457775E-01  0.12208889672E+00  0.24885994445E-01  0.12868338556E+00  0.20315633908E-01 0.  0.
         14    1    1    2    0    0  0.19729282310E-01  0.12747499753E-01  0.51902797420E-03  0.23494950957E-01  0.00000000000E+00 0.  1.
     999901    1    3    3    0    0 -0.44662740085E-01 -0.13483639647E+00 -0.25405022419E-01  0.89175166349E+00  0.88000000000E+00 0.  1.
        -11    1    4    4    0    0  0.57630389799E-02  0.41422923722E-01  0.17838344078E-01  0.45470197585E-01  0.51100000000E-03 0.  1.
         11    1    4    4    0    0  0.19170418795E-01  0.80665972995E-01  0.70476503665E-02  0.83213187973E-01  0.51100000000E-03 0. -1.
</event>
<event>
 8    1  0.1042301E+005  0.1043930E+01  0.7957747E-01            NaN
         13   -1    0    0    0    0  0.00000000000E+00  0.00000000000E+00  0.74505805969E-08  0.10566000000E+00  0.10566000000E+00 0. -1.
     999900   -1    0    0    0    0 -0.00000000000E+00 -0.00000000000E+00 -0.74505805969E-08  0.93827000000E+00  0.93827000000E+00 0.  1.
     999902    2    1    2    0    0 -0.66070436343E-02 -0.35164899527E-02 -0.21663837737E-01  0.10210096904E+01  0.10207523927E+01 0.  0.
     999903    2    3    3    0    0 -0.87578748428E-01 -0.24156744143E-01  0.90704628110E-01  0.12993780261E+00  0.20072805562E-01 0.  0.
         14    1    1    2    0    0  0.66070436343E-02  0.35164899527E-02  0.21663837737E-01  0.22920309611E-01  0.00000000000E+00 0. -1.
     999901    1    3    3    0    0  0.80971704794E-01  0.20640254191E-01 -0.11236846585E+00  0.89107188778E+00  0.88000000000E+00 0.  1.
        -11    1    4    4    0    0 -0.73145768599E-01 -0.11923948198E-01  0.72042754628E-01  0.10335813282E+00  0.51100000000E-03 0.  1.
         11    1    4    4    0    0 -0.14432979829E-01 -0.12232795946E-01  0.18661873482E-01  0.26579669792E-01  0.51100000000E-03 0. -1.
</event>
<event>
 8    1  0.1042301E+005  0.1043930E+01  0.7957747E-01            NaN
         13   -1    0    0    0    0  0.00000000000E+00  0.00000000000E+00  0.74505805969E-08  0.10566000000E+00  0.10566000000E+00 0. -1.
     999900   -1    0    0    0    0 -0.00000000000E+00 -0.00000000000E+00 -0.74505805969E-08  0.93827000000E+00  0.93827000000E+00 0. -1.
     999902    2    1    2    0    0  0.73544244354E-02 -0.21106777018E-01  0.79248712834E-03  0.10215645885E+01  0.10213197329E+01 0.  0.
     999903    2    3    3    0    0 -0.95466372016E-01 -0.83010120853E-01  0.34885897530E-01  0.13276399176E+00  0.20118233333E-01 0.  0.
         14    1    1    2    0    0 -0.73544244354E-02  0.21106777018E-01 -0.79248712834E-03  0.22365411481E-01  0.00000000000E+00 0.  1.
     999901    1    3    3    0    0  0.10282079645E+00  0.61903343835E-01 -0.34093410401E-01  0.88880059676E+00  0.88000000000E+00 0. -1.
        -11    1    4    4    0    0 -0.55866075609E-01 -0.52698973132E-01  0.30723101205E-01  0.82718620889E-01  0.51100000000E-03 0. -1.
         11    1    4    4    0    0 -0.39600296407E-01 -0.30311147721E-01  0.41627963251E-02  0.50045370874E-01  0.51100000000E-03 0.  1.
</event>
<event>
 8    1  0.1042301E+005  0.1043930E+01  0.7957747E-01            NaN
         13   -1    0    0    0    0  0.00000000000E+00  0.00000000000E+00  0.74505805969E-08  0.10566000000E+00  0.10566000000E+00 0.  1.
     999900   -1    0    0    0    0 -0.00000000000E+00 -0.00000000000E+00 -0.74505805969E-08  0.93827000000E+00  0.93827000000E+00 0.  1.
     999902    2    1    2    0    0 -0.56092421056E-02  0.59600584667E-02 -0.21001197258E-01  0.10213903421E+01  0.10211416134E+01 0.  0.
     999903    2    3    3    0    0 -0.81665384068E-01  0.11484315049E-01 -0.10409874771E+00  0.13419236131E+00  0.19233203414E-01 0.  0.
         14    1    1    2    0    0  0.56092421056E-02 -0.59600584667E-02  0.21001197258E-01  0.22539657944E-01  0.00000000000E+00 0.  1.
     999901    1    3    3    0    0  0.76056141962E-01 -0.55242565819E-02  0.83097550451E-01  0.88719798074E+00  0.88000000000E+00 0.  1.
        -11    1    4    4    0    0 -0.12832237073E-01  0.89270846027E-02 -0.22582909104E-01  0.27470130185E-01  0.51100000000E-03 0. -1.
         11    1    4    4    0    0 -0.68833146995E-01  0.25572304459E-02 -0.81515838605E-01  0.10672223113E+00  0.51100000000E-03 0.  1.
</event>
<event>
 8    1  0.1042301E+005  0.1043930E+01  0.7957747E-01            NaN
         13   -1    0    0    0    0  0.00000000000E+00  0.00000000000E+00  0.74505805969E-08  0.10566000000E+00  0.10566000000E+00 0. -1.
     999900   -1    0    0    0    0 -0.00000000000E+00 -0.00000000000E+00 -0.74505805969E-08  0.93827000000E+00  0.93827000000E+00 0. -1.
     999902    2    1    2    0    0  0.17456835725E-02  0.14909095511E-01  0.21289061839E-01  0.10178809560E+01  0.10175475851E+01 0.  0.
     999903    2    3    3    0    0  0.91509674213E-01  0.58396783185E-01 -0.64903720924E-01  0.12806190202E+00  0.20078670250E-01 0.  0.
         14    1    1    2    0    0 -0.17456835725E-02 -0.14909095511E-01 -0.21289061839E-01  0.26049044015E-01  0.00000000000E+00 0. -1.
     999901    1    3    3    0    0 -0.89763990640E-01 -0.43487687674E-01  0.86192782763E-01  0.88981905396E+00  0.88000000000E+00 0.  1.
        -11    1    4    4    0    0  0.60483346092E-01  0.44383200703E-01 -0.53538970770E-01  0.92167164279E-01  0.51100000000E-03 0.  1.
         11    1    4    4    0    0  0.31026328120E-01  0.14013582481E-01 -0.11364750155E-01  0.35894737743E-01  0.51100000000E-03 0. -1.
</event>
<event>
 8    1  0.1042301E+005  0.1043930E+01  0.7957747E-01            NaN
         13   -1    0    0    0    0  0.00000000000E+00  0.00000000000E+00  0.74505805969E-08  0.10566000000E+00  0.10566000000E+00 0. -1.
     999900   -1    0    0    0    0 -0.00000000000E+00 -0.00000000000E+00 -0.74505805969E-08  0.93827000000E+00  0.93827000000E+00 0.  1.
     999902    2    1    2    0    0 -0.22727472083E-01  0.29268658934E-02 -0.11124342569E-02  0.10209878545E+01  0.10207300608E+01 0.  0.
     999903    2    3    3    0    0 -0.51593855550E-01  0.12014185490E+00 -0.96419575501E-02  0.13270559387E+00  0.20538161294E-01 0.  0.
         14    1    1    2    0    0  0.22727472083E-01 -0.29268658934E-02  0.11124342569E-02  0.22942145524E-01  0.00000000000E+00 0. -1.
     999901    1    3    3    0    0  0.28866383467E-01 -0.11721498901E+00  0.85295232932E-02  0.88828226061E+00  0.88000000000E+00 0.  1.
        -11    1    4    4    0    0 -0.35079531454E-01  0.56196839006E-01 -0.68407036321E-02  0.66601160564E-01  0.51100000000E-03 0.  1.
         11    1    4    4    0    0 -0.16514324097E-01  0.63945015894E-01 -0.28012539180E-02  0.66104433305E-01  0.51100000000E-03 0. -1.
</event>
<event>
 8    1  0.1042301E+005  0.1043930E+01  0.7957747E-01            NaN
         13   -1    0    0    0    0  0.00000000000E+00  0.00000000000E+00  0.74505805969E-08  0.10566000000E+00  0.10566000000E+00 0. -1.
     999900   -1    0    0    0    0 -0.00000000000E+00 -0.00000000000E+00 -0.74505805969E-08  0.93827000000E+00  0.93827000000E+00 0.  1.
     999902    2    1    2    0    0  0.20581955209E-01  0.12868008286E-01  0.16387925915E-01  0.10146423467E+01  0.10142195646E+01 0.  0.
     999903    2    3    3    0    0  0.37567825601E-03 -0.12210685010E+00 -0.57700440695E-02  0.12384636468E+00  0.19859623846E-01 0.  0.
         14    1    1    2    0    0 -0.20581955209E-01 -0.12868008286E-01 -0.16387925915E-01  0.29287653256E-01  0.00000000000E+00 0.  1.
     999901    1    3    3    0    0  0.20206276953E-01  0.13497485839E+00  0.22157969984E-01  0.89079598206E+00  0.88000000000E+00 0. -1.
        -11    1    4    4    0    0 -0.90862459009E-03 -0.71413673091E-01 -0.13083323694E-01  0.72609729257E-01  0.51100000000E-03 0.  1.
         11    1    4    4    0    0  0.12843028461E-02 -0.50693177014E-01  0.73132796249E-02  0.51236635423E-01  0.51100000000E-03 0. -1.
</event>
<event>
 8    1  0.1042301E+005  0.1043930E+01  0.7957747E-01            NaN
         13   -1    0    0    0    0  0.00000000000E+00  0.00000000000E+00  0.74505805969E-08  0.10566000000E+00  0.10566000000E+00 0.  1.
     999900   -1    0    0    0    0 -0.00000000000E+00 -0.00000000000E+00 -0.74505805969E-08  0.93827000000E+00  0.93827000000E+00 0. -1.
     999902    2    1    2    0    0  0.23883185359E-01 -0.13701003197E-01  0.60917816347E-02  0.10157301093E+01  0.10153385746E+01 0.  0.
     999903    2    3    3    0    0 -0.24620621403E-01 -0.11616410779E+00  0.42477055173E-01  0.12771254462E+00  0.20147429093E-01 0.  0.
         14    1    1    2    0    0 -0.23883185359E-01  0.13701003197E-01 -0.60917816347E-02  0.28199890691E-01  0.00000000000E+00 0.  1.
     999901    1    3    3    0    0  0.48503806762E-01  0.10246310459E+00 -0.36385273538E-01  0.88801756469E+00  0.88000000000E+00 0. -1.
        -11    1    4    4    0    0 -0.10727019309E-01 -0.39981090930E-01  0.50622109540E-02  0.41706638272E-01  0.51100000000E-03 0.  1.
         11    1    4    4    0    0 -0.13893602094E-01 -0.76183016861E-01  0.37414844219E-01  0.86005906344E-01  0.51100000000E-03 0. -1.
</event>
<event>
 8    1  0.1042301E+005  0.1043930E+01  0.7957747E-01            NaN
         13   -1    0    0    0    0  0.00000000000E+00  0.00000000000E+00  0.74505805969E-08  0.10566000000E+00  0.10566000000E+00 0.  1.
     999900   -1    0    0    0    0 -0.00000000000E+00 -0.00000000000E+00 -0.74505805969E-08  0.93827000000E+00  0.93827000000E+00 0. -1.
     999902    2    1    2    0    0  0.20914107100E-01  0.78251696672E-02 -0.61919375608E-02  0.10207573168E+01  0.10204942560E+01 0.  0.
     999903    2    3    3    0    0 -0.55222025089E-01 -0.92794560497E-01 -0.68845373239E-01  0.12955223730E+00  0.19590667662E-01 0.  0.
         14    1    1    2    0    0 -0.20914107100E-01 -0.78251696672E-02  0.61919375608E-02  0.23172683204E-01  0.00000000000E+00 0. -1.
     999901    1    3    3    0    0  0.76136132189E-01  0.10061973016E+00  0.62653435679E-01  0.89120507950E+00  0.88000000000E+00 0. -1.
        -11    1    4    4    0    0 -0.10574452930E-01 -0.15702487239E-01 -0.21544969913E-01  0.28685083403E-01  0.51100000000E-03 0.  1.
         11    1    4    4    0    0 -0.44647572159E-01 -0.77092073258E-01 -0.47300403326E-01  0.10086715389E+00  0.51100000000E-03 0. -1.
</event>
<event>
 8    1  0.1042301E+005  0.1043930E+01  0.7957747E-01            NaN
         13   -1    0    0    0    0  0.00000000000E+00  0.00000000000E+00  0.74505805969E-08  0.10566000000E+00  0.10566000000E+00 0.  1.
     999900   -1    0    0    0    0 -0.00000000000E+00 -0.00000000000E+00 -0.74505805969E-08  0.93827000000E+00  0.93827000000E+00 0. -1.
     999902    2    1    2    0    0 -0.19093459472E-01 -0.78327054012E-02 -0.84359176263E-02  0.10216347948E+01  0.10213914909E+01 0.  0.
     999903    2    3    3    0    0  0.40888703223E-01 -0.95460941055E-01 -0.79549912337E-01  0.13240267226E+00  0.20435306459E-01 0.  0.
         14    1    1    2    0    0  0.19093459472E-01  0.78327054012E-02  0.84359176263E-02  0.22295205195E-01  0.00000000000E+00 0.  1.
     999901    1    3    3    0    0 -0.59982162694E-01  0.87628235653E-01  0.71113994710E-01  0.88923212255E+00  0.88000000000E+00 0.  1.
        -11    1    4    4    0    0  0.42781949540E-01 -0.85361803639E-01 -0.73189523218E-01  0.12030752328E+00  0.51100000000E-03 0. -1.
         11    1    4    4    0    0 -0.18932463172E-02 -0.10099137416E-01 -0.63603891187E-02  0.12095148982E-01  0.51100000000E-03 0.  1.
</event>
<event>
 8    1  0.1148650E+005  0.1043930E+01  0.7957747E-01            NaN
         13   -1    0    0    0    0  0.00000000000E+00  0.00000000000E+00  0.74505805969E-08  0.10566000000E+00  0.10566000000E+00 0.  1.
     999900   -1    0    0    0    0 -0.00000000000E+00 -0.00000000000E+00 -0.74505805969E-08  0.93827000000E+00  0.93827000000E+00 0. -1.
     999902    2    1    2    0    0 -0.24633614936E-01  0.21813602939E-01  0.11855152687E-01  0.10089558252E+01  0.10083494753E+01 0.  0.
     999903    2    3    3    0    0 -0.10713497832E+00 -0.16592576791E-01  0.54851459663E-01  0.12321873553E+00  0.20517236005E-01 0.  0.
         14    1    1    2    0    0  0.24633614936E-01 -0.21813602939E-01 -0.11855152687E-01  0.34974174804E-01  0.00000000000E+00 0. -1.
     999901    1    3    3    0    0  0.82501363385E-01  0.38406179729E-01 -0.42996306976E-01  0.88573708967E+00  0.88000000000E+00 0. -1.
        -11    1    4    4    0    0 -0.69915700016E-01 -0.19864353187E-01  0.31984351347E-01  0.79410688754E-01  0.51100000000E-03 0.  1.
         11    1    4    4    0    0 -0.37219278305E-01  0.32717763968E-02  0.22867108315E-01  0.43808046773E-01  0.51100000000E-03 0. -1.
</event>
<event>
 8    1  0.1042301E+005  0.1043930E+01  0.7957747E-01            NaN
         13   -1    0    0    0    0  0.00000000000E+00  0.00000000000E+00  0.74505805969E-08  0.10566000000E+00  0.10566000000E+00 0.  1.
     999900   -1    0    0    0    0 -0.00000000000E+00 -0.00000000000E+00 -0.74505805969E-08  0.93827000000E+00  0.93827000000E+00 0.  1.
     999902    2    1    2    0    0  0.13035550758E-01  0.87911242181E-02 -0.17511032644E-01  0.10203960732E+01  0.10201246494E+01 0.  0.
     999903    2    3    3    0    0  0.70619214731E-01 -0.73792840953E-01 -0.81746114770E-01  0.13232955794E+00  0.19905470614E-01 0.  0.
         14    1    1    2    0    0 -0.13035550758E-01 -0.87911242181E-02  0.17511032644E-01  0.23533926847E-01  0.00000000000E+00 0.  1.
     999901    1    3    3    0    0 -0.57583663973E-01  0.82583965172E-01  0.64235082126E-01  0.88806651521E+00  0.88000000000E+00 0.  1.
        -11    1    4    4    0    0  0.61756575598E-01 -0.71513061555E-01 -0.70912873610E-01  0.11813927953E+00  0.51100000000E-03 0. -1.
         11    1    4    4    0    0  0.88626391331E-02 -0.22797793987E-02 -0.10833241160E-01  0.14190278417E-01  0.51100000000E-03 0.  1.
</event>
<event>
 8    1  0.1042301E+005  0.1043930E+01  0.7957747E-01            NaN
         13   -1    0    0    0    0  0.00000000000E+00  0.00000000000E+00  0.74505805969E-08  0.10566000000E+00  0.10566000000E+00 0. -1.
     999900   -1    0    0    0    0 -0.00000000000E+00 -0.00000000000E+00 -0.74505805969E-08  0.93827000000E+00  0.93827000000E+00 0. -1.
     999902    2    1    2    0    0  0.16113655327E-01 -0.56002659156E-02 -0.11647488505E-01  0.10232738422E+01  0.10230653348E+01 0.  0.
     999903    2    3    3    0    0  0.52803120004E-01 -0.12033309291E+00 -0.25539896339E-01  0.13495929352E+00  0.17131896281E-01 0.  0.
         14    1    1    2    0    0 -0.16113655327E-01  0.56002659156E-02  0.11647488505E-01  0.20656157794E-01  0.00000000000E+00 0. -1.
     999901    1    3    3    0    0 -0.36689464676E-01  0.11473282700E+00  0.13892407834E-01  0.88831454868E+00  0.88000000000E+00 0.  1.
        -11    1    4    4    0    0  0.35042564320E-01 -0.76089467184E-01 -0.79858136467E-02  0.84152377691E-01  0.51100000000E-03 0.  1.
         11    1    4    4    0    0  0.17760555684E-01 -0.44243625731E-01 -0.17554082692E-01  0.50806915830E-01  0.51100000000E-03 0. -1.
</event>
<event>
 8    1  0.1042301E+005  0.1043930E+01  0.7957747E-01            NaN
         13   -1    0    0    0    0  0.00000000000E+00  0.00000000000E+00  0.74505805969E-08  0.10566000000E+00  0.10566000000E+00 0. -1.
     999900   -1    0    0    0    0 -0.00000000000E+00 -0.00000000000E+00 -0.74505805969E-08  0.93827000000E+00  0.93827000000E+00 0.  1.
     999902    2    1    2    0    0  0.21176636313E-02  0.10645264380E-01  0.16892565429E-01  0.10238510329E+01  0.10236541275E+01 0.  0.
     999903    2    3    3    0    0  0.12467516930E+00 -0.43345291945E-01 -0.62779903844E-03  0.13354643023E+00  0.20286515772E-01 0.  0.
         14    1    1    2    0    0 -0.21176636313E-02 -0.10645264380E-01 -0.16892565429E-01  0.20078967099E-01  0.00000000000E+00 0.  1.
     999901    1    3    3    0    0 -0.12255750567E+00  0.53990556325E-01  0.17520364468E-01  0.89030460267E+00  0.88000000000E+00 0. -1.
        -11    1    4    4    0    0  0.35761566319E-01 -0.20766981517E-01 -0.52726492159E-02  0.41691954831E-01  0.51100000000E-03 0.  1.
         11    1    4    4    0    0  0.88913602979E-01 -0.22578310428E-01  0.46448501775E-02  0.91854475398E-01  0.51100000000E-03 0. -1.
</event>
<event>
 8    1  0.1042301E+005  0.1043930E+01  0.7957747E-01            NaN
         13   -1    0    0    0    0  0.00000000000E+00  0.00000000000E+00  0.74505805969E-08  0.10566000000E+00  0.10566000000E+00 0. -1.
     999900   -1    0    0    0    0 -0.00000000000E+00 -0.00000000000E+00 -0.74505805969E-08  0.93827000000E+00  0.93827000000E+00 0. -1.
     999902    2    1    2    0    0  0.99185336172E-02 -0.81391649032E-03 -0.21712098087E-01  0.10200458008E+01  0.10197661402E+01 0.  0.
     999903    2    3    3    0    0  0.74370209764E-01  0.72849747840E-01  0.74670551992E-01  0.12938875722E+00  0.18103737172E-01 0.  0.
         14    1    1    2    0    0 -0.99185336172E-02  0.81391649032E-03  0.21712098087E-01  0.23884199223E-01  0.00000000000E+00 0. -1.
     999901    1    3    3    0    0 -0.64451676147E-01 -0.73663664330E-01 -0.96382650079E-01  0.89065704356E+00  0.88000000000E+00 0.  1.
        -11    1    4    4    0    0  0.23641391566E-01  0.35552715943E-01  0.30678756307E-01  0.52577164393E-01  0.51100000000E-03 0. -1.
         11    1    4    4    0    0  0.50728818197E-01  0.37297031897E-01  0.43991795685E-01  0.76811592827E-01  0.51100000000E-03 0.  1.
</event>
<event>
 8    1  0.1042301E+005  0.1043930E+01  0.7957747E-01            NaN
         13   -1    0    0    0    0  0.00000000000E+00  0.00000000000E+00  0.74505805969E-08  0.10566000000E+00  0.10566000000E+00 0.  1.
     999900   -1    0    0    0    0 -0.00000000000E+00 -0.00000000000E+00 -0.74505805969E-08  0.93827000000E+00  0.93827000000E+00 0.  1.
     999902    2    1    2    0    0 -0.38898853710E-02  0.13291248139E-01 -0.19340996188E-01  0.10201421329E+01  0.10198647502E+01 0.  0.
     999903    2    3    3    0    0 -0.78648852805E-01  0.51653240316E-01  0.86805121777E-01  0.12978964993E+00  0.21366440507E-01 0.  0.
         14    1    1    2    0    0  0.38898853710E-02 -0.13291248139E-01  0.19340996188E-01  0.23787867051E-01  0.00000000000E+00 0.  1.
     999901    1    3    3    0    0  0.74758967434E-01 -0.38361992177E-01 -0.10614611797E+00  0.89035248302E+00  0.88000000000E+00 0.  1.
        -11    1    4    4    0    0 -0.33813434556E-01  0.34894240556E-01  0.45324659416E-01  0.66449546670E-01  0.51100000000E-03 0.  1.
         11    1    4    4    0    0 -0.44835418249E-01  0.16758999760E-01  0.41480462360E-01  0.63340103262E-01  0.51100000000E-03 0. -1.
</event>
<event>
 8    1  0.1042301E+005  0.1043930E+01  0.7957747E-01            NaN
         13   -1    0    0    0    0  0.00000000000E+00  0.00000000000E+00  0.74505805969E-08  0.10566000000E+00  0.10566000000E+00 0.  1.
     999900   -1    0    0    0    0 -0.00000000000E+00 -0.00000000000E+00 -0.74505805969E-08  0.93827000000E+00  0.93827000000E+00 0. -1.
     999902    2    1    2    0    0  0.37704779743E-02  0.18911636705E-01  0.13761191746E-01  0.10202395609E+01  0.10199644723E+01 0.  0.
     999903    2    3    3    0    0 -0.10132070575E+00 -0.76482498123E-01 -0.49681145305E-02  0.12867072744E+00  0.20396470413E-01 0.  0.
         14    1    1    2    0    0 -0.37704779743E-02 -0.18911636705E-01 -0.13761191746E-01  0.23690439112E-01  0.00000000000E+00 0. -1.
     999901    1    3    3    0    0  0.10509118373E+00  0.95394134828E-01  0.18729306277E-01  0.89156883345E+00  0.88000000000E+00 0.  1.
        -11    1    4    4    0    0 -0.66304332024E-01 -0.38757170696E-01  0.13182483057E-02  0.76813941606E-01  0.51100000000E-03 0.  1.
         11    1    4    4    0    0 -0.35016373730E-01 -0.37725327428E-01 -0.62863628362E-02  0.51856785838E-01  0.51100000000E-03 0. -1.
</event>
<event>
 8    1  0.1042301E+005  0.1043930E+01  0.7957747E-01            NaN
         13   -1    0    0    0    0  0.00000000000E+00  0.00000000000E+00  0.74505805969E-08  0.10566000000E+00  0.10566000000E+00 0. -1.
     999900   -1    0    0    0    0 -0.00000000000E+00 -0.00000000000E+00 -0.74505805969E-08  0.93827000000E+00  0.93827000000E+00 0.  1.
     999902    2    1    2    0    0 -0.10925488555E-01  0.21791603966E-01 -0.10025198866E-02  0.10195323495E+01  0.10192403869E+01 0.  0.
     999903    2    3    3    0    0  0.75195724567E-01 -0.34274093016E-01  0.95567267327E-01  0.12830513407E+00  0.22360554542E-01 0.  0.
         14    1    1    2    0    0  0.10925488555E-01 -0.21791603966E-01  0.10025198866E-02  0.24397650495E-01  0.00000000000E+00 0.  1.
     999901    1    3    3    0    0 -0.86121213122E-01  0.56065696982E-01 -0.96569787213E-01  0.89122721543E+00  0.88000000000E+00 0.  1.
        -11    1    4    4    0    0  0.43663540699E-01 -0.76729463091E-02  0.48208865233E-01  0.65496066290E-01  0.51100000000E-03 0.  1.
         11    1    4    4    0    0  0.31532183868E-01 -0.26601146707E-01  0.47358402094E-01  0.62809067781E-01  0.51100000000E-03 0. -1.
</event>
<event>
 8    1  0.1042301E+005  0.1043930E+01  0.7957747E-01            NaN
         13   -1    0    0    0    0  0.00000000000E+00  0.00000000000E+00  0.74505805969E-08  0.10566000000E+00  0.10566000000E+00 0. -1.
     999900   -1    0    0    0    0 -0.00000000000E+00 -0.00000000000E+00 -0.74505805969E-08  0.93827000000E+00  0.93827000000E+00 0.  1.
     999902    2    1    2    0    0 -0.16667756044E-01 -0.10187777749E-01 -0.65926542719E-03  0.10243841683E+01  0.10241976785E+01 0.  0.
     999903    2    3    3    0    0  0.65023019259E-01 -0.92098247483E-01  0.69584647113E-01  0.13403765423E+00  0.20346729815E-01 0.  0.
         14    1    1    2    0    0  0.16667756044E-01  0.10187777749E-01  0.65926542719E-03  0.19545831727E-01  0.00000000000E+00 0. -1.
     999901    1    3    3    0    0 -0.81690775303E-01  0.81910469734E-01 -0.70243912541E-01  0.89034651404E+00  0.88000000000E+00 0.  1.
        -11    1    4    4    0    0  0.14196352927E-01 -0.84584321794E-02  0.76781866379E-02  0.18229020336E-01  0.51100000000E-03 0.  1.
         11    1    4    4    0    0  0.50826666332E-01 -0.83639815304E-01  0.61906460476E-01  0.11580863389E+00  0.51100000000E-03 0. -1.
</event>
<event>
 8    1  0.1042301E+005  0.1043930E+01  0.7957747E-01            NaN
         13   -1    0    0    0    0  0.00000000000E+00  0.00000000000E+00  0.74505805969E-08  0.10566000000E+00  0.10566000000E+00 0.  1.
     999900   -1    0    0    0    0 -0.00000000000E+00 -0.00000000000E+00 -0.74505805969E-08  0.93827000000E+00  0.93827000000E+00 0.  1.
     999902    2    1    2    0    0 -0.26766067577E-01 -0.13141253341E-01 -0.75919226257E-02  0.10131606613E+01  0.10126933265E+01 0.  0.
     999903    2    3    3    0    0  0.59070179220E-01  0.98199643976E-01 -0.34846318857E-01  0.12158483237E+00  0.20884189569E-01 0.  0.
         14    1    1    2    0    0  0.26766067577E-01  0.13141253341E-01  0.75919226257E-02  0.30769338668E-01  0.00000000000E+00 0.  1.
     999901    1    3    3    0    0 -0.85836246797E-01 -0.11134089732E+00  0.27254396231E-01  0.89157582896E+00  0.88000000000E+00 0.  1.
        -11    1    4    4    0    0  0.39924469690E-01  0.47216644522E-01 -0.21960928754E-01  0.65619496437E-01  0.51100000000E-03 0. -1.
         11    1    4    4    0    0  0.19145709530E-01  0.50982999454E-01 -0.12885390103E-01  0.55965335931E-01  0.51100000000E-03 0.  1.
</event>
<event>
 8    1  0.1042301E+005  0.1043930E+01  0.7957747E-01            NaN
         13   -1    0    0    0    0  0.00000000000E+00  0.00000000000E+00  0.74505805969E-08  0.10566000000E+00  0.10566000000E+00 0.  1.
     999900   -1    0    0    0    0 -0.00000000000E+00 -0.00000000000E+00 -0.74505805969E-08  0.93827000000E+00  0.93827000000E+00 0.  1.
     999902    2    1    2    0    0  0.53166653768E-02  0.23116859528E-01 -0.43519701128E-02  0.10198137032E+01  0.10195285153E+01 0.  0.
     999903    2    3    3    0    0 -0.73278938642E-01  0.10477216795E+00 -0.27135862550E-01  0.13225302131E+00  0.20186544654E-01 0.  0.
         14    1    1    2    0    0 -0.53166653768E-02 -0.23116859528E-01  0.43519701128E-02  0.24116296752E-01  0.00000000000E+00 0.  1.
     999901    1    3    3    0    0  0.78595604019E-01 -0.81655308419E-01  0.22783892437E-01  0.88756068194E+00  0.88000000000E+00 0. -1.
        -11    1    4    4    0    0 -0.22475675451E-01  0.49470686353E-01 -0.10924241116E-01  0.55426572690E-01  0.51100000000E-03 0. -1.
         11    1    4    4    0    0 -0.50803263191E-01  0.55301481594E-01 -0.16211621434E-01  0.76826448622E-01  0.51100000000E-03 0.  1.
</event>
<event>
 8    1  0.1042301E+005  0.1043930E+01  0.7957747E-01            NaN
         13   -1    0    0    0    0  0.00000000000E+00  0.00000000000E+00  0.74505805969E-08  0.10566000000E+00  0.10566000000E+00 0. -1.
     999900   -1    0    0    0    0 -0.00000000000E+00 -0.00000000000E+00 -0.74505805969E-08  0.93827000000E+00  0.93827000000E+00 0. -1.
     999902    2    1    2    0    0  0.32781824786E-01 -0.36207801741E-02  0.12549317373E-01  0.10086419928E+01  0.10080245167E+01 0.  0.
     999903    2    3    3    0    0  0.10508017664E+00  0.42998644776E-02  0.61094362117E-01  0.12430811374E+00  0.25683724467E-01 0.  0.
         14    1    1    2    0    0 -0.32781824786E-01  0.36207801741E-02 -0.12549317373E-01  0.35288007196E-01  0.00000000000E+00 0.  1.
     999901    1    3    3    0    0 -0.72298351850E-01 -0.79206446517E-02 -0.48545044745E-01  0.88433387906E+00  0.88000000000E+00 0. -1.
        -11    1    4    4    0    0  0.65797292819E-01  0.13508084598E-01  0.31051872042E-01  0.74001567349E-01  0.51100000000E-03 0.  1.
         11    1    4    4    0    0  0.39282883817E-01 -0.92082201206E-02  0.30042490075E-01  0.50306546390E-01  0.51100000000E-03 0. -1.
</event>
<event>
 8    1  0.1042301E+005  0.1043930E+01  0.7957747E-01            NaN
         13   -1    0    0    0    0  0.00000000000E+00  0.00000000000E+00  0.74505805969E-08  0.10566000000E+00  0.10566000000E+00 0.  1.
     999900   -1    0    0    0    0 -0.00000000000E+00 -0.00000000000E+00 -0.74505805969E-08  0.93827000000E+00  0.93827000000E+00 0.  1.
     999902    2    1    2    0    0  0.20467424086E-01  0.44400572335E-03  0.83364056000E-02  0.10218255152E+01  0.10215864013E+01 0.  0.
     999903    2    3    3    0    0  0.78636221655E-01 -0.10287769710E+00  0.26141252956E-01  0.13369489650E+00  0.20578734824E-01 0.  0.
         14    1    1    2    0    0 -0.20467424086E-01 -0.44400572335E-03 -0.83364056000E-02  0.22104484797E-01  0.00000000000E+00 0. -1.
     999901    1    3    3    0    0 -0.58168797569E-01  0.10332170283E+00 -0.17804847356E-01  0.88813061870E+00  0.88000000000E+00 0. -1.
        -11    1    4    4    0    0  0.56028431687E-01 -0.60572285374E-01  0.10178784165E-01  0.83138773631E-01  0.51100000000E-03 0.  1.
         11    1    4    4    0    0  0.22607789968E-01 -0.42305411730E-01  0.15962468790E-01  0.50556122871E-01  0.51100000000E-03 0. -1.
</event>
<event>
 8    1  0.1042301E+005  0.1043930E+01  0.7957747E-01            NaN
         13   -1    0    0    0    0  0.00000000000E+00  0.00000000000E+00  0.74505805969E-08  0.10566000000E+00  0.10566000000E+00 0.  1.
     999900   -1    0    0    0    0 -0.00000000000E+00 -0.00000000000E+00 -0.74505805969E-08  0.93827000000E+00  0.93827000000E+00 0.  1.
     999902    2    1    2    0    0 -0.13344428841E-01  0.10221762532E-01 -0.17856877315E-01  0.10194060061E+01  0.10191109748E+01 0.  0.
     999903    2    3    3    0    0  0.11162752247E-02  0.12350180056E+00 -0.41530797155E-01  0.13171127620E+00  0.19212296966E-01 0.  0.
         14    1    1    2    0    0  0.13344428841E-01 -0.10221762532E-01  0.17856877315E-01  0.24523993921E-01  0.00000000000E+00 0.  1.
     999901    1    3    3    0    0 -0.14460704066E-01 -0.11328003802E+00  0.23673919839E-01  0.88769472988E+00  0.88000000000E+00 0. -1.
        -11    1    4    4    0    0 -0.74002183064E-02  0.53916582248E-01 -0.12560828306E-01  0.55855139433E-01  0.51100000000E-03 0. -1.
         11    1    4    4    0    0  0.85164935311E-02  0.69585218308E-01 -0.28969968849E-01  0.75856136766E-01  0.51100000000E-03 0.  1.
</event>
<event>
 8    1  0.1042301E+005  0.1043930E+01  0.7957747E-01            NaN
         13   -1    0    0    0    0  0.00000000000E+00  0.00000000000E+00  0.74505805969E-08  0.10566000000E+00  0.10566000000E+00 0. -1.
     999900   -1    0    0    0    0 -0.00000000000E+00 -0.00000000000E+00 -0.74505805969E-08  0.93827000000E+00  0.93827000000E+00 0.  1.
     999902    2    1    2    0    0 -0.17637443903E-02 -0.13628617526E-02  0.23739458130E-01  0.10200861316E+01  0.10198074259E+01 0.  0.
     999903    2    3    3    0    0  0.80406252384E-01  0.80402299997E-01 -0.57267811997E-01  0.12879514219E+00  0.19465125065E-01 0.  0.
         14    1    1    2    0    0  0.17637443903E-02  0.13628617526E-02 -0.23739458130E-01  0.23843868368E-01  0.00000000000E+00 0.  1.
     999901    1    3    3    0    0 -0.82169996774E-01 -0.81765161750E-01  0.81007270127E-01  0.89129098944E+00  0.88000000000E+00 0. -1.
        -11    1    4    4    0    0  0.68561191668E-01  0.69366787683E-01 -0.40879785993E-01  0.10575351654E+00  0.51100000000E-03 0. -1.
         11    1    4    4    0    0  0.11845060716E-01  0.11035512314E-01 -0.16388026004E-01  0.23041625652E-01  0.51100000000E-03 0.  1.
</event>
<event>
 8    1  0.1042301E+005  0.1043930E+01  0.7957747E-01            NaN
         13   -1    0    0    0    0  0.00000000000E+00  0.00000000000E+00  0.74505805969E-08  0.10566000000E+00  0.10566000000E+00 0.  1.
     999900   -1    0    0    0    0 -0.00000000000E+00 -0.00000000000E+00 -0.74505805969E-08  0.93827000000E+00  0.93827000000E+00 0.  1.
     999902    2    1    2    0    0  0.63284496277E-02 -0.11635118454E-01  0.19076949757E-01  0.10207059765E+01  0.10204417353E+01 0.  0.
     999903    2    3    3    0    0 -0.11151260302E-01 -0.88814204127E-01 -0.92444675679E-01  0.13014479135E+00  0.19476529315E-01 0.  0.
         14    1    1    2    0    0 -0.63284496277E-02  0.11635118454E-01 -0.19076949757E-01  0.23224023514E-01  0.00000000000E+00 0. -1.
     999901    1    3    3    0    0  0.17479709930E-01  0.77179085674E-01  0.11152162544E+00  0.89056118513E+00  0.88000000000E+00 0. -1.
        -11    1    4    4    0    0  0.31224867794E-02 -0.47347051941E-01 -0.42813811530E-01  0.63912258839E-01  0.51100000000E-03 0. -1.
         11    1    4    4    0    0 -0.14273747082E-01 -0.41467152186E-01 -0.49630864149E-01  0.66232532514E-01  0.51100000000E-03 0.  1.
</event>
<event>
 8    1  0.1042301E+005  0.1043930E+01  0.7957747E-01            NaN
         13   -1    0    0    0    0  0.00000000000E+00  0.00000000000E+00  0.74505805969E-08  0.10566000000E+00  0.10566000000E+00 0.  1.
     999900   -1    0    0    0    0 -0.00000000000E+00 -0.00000000000E+00 -0.74505805969E-08  0.93827000000E+00  0.93827000000E+00 0.  1.
     999902    2    1    2    0    0 -0.10343755541E-01 -0.80543778444E-03 -0.21289589847E-01  0.10202469123E+01  0.10199719964E+01 0.  0.
     999903    2    3    3    0    0 -0.12161880766E+00 -0.27312270905E-01  0.34992906555E-01  0.13106050390E+00  0.20377871698E-01 0.  0.
         14    1    1    2    0    0  0.10343755541E-01  0.80543778444E-03  0.21289589847E-01  0.23683087733E-01  0.00000000000E+00 0.  1.
     999901    1    3    3    0    0  0.11127505212E+00  0.26506833121E-01 -0.56282496402E-01  0.88918640837E+00  0.88000000000E+00 0.  1.
        -11    1    4    4    0    0 -0.23464703337E-01 -0.13676916929E-01  0.61775762077E-02  0.27858103456E-01  0.51100000000E-03 0. -1.
         11    1    4    4    0    0 -0.98154104320E-01 -0.13635353976E-01  0.28815330348E-01  0.10320240044E+00  0.51100000000E-03 0.  1.
</event>
<event>
 8    1  0.1042301E+005  0.1043930E+01  0.7957747E-01            NaN
         13   -1    0    0    0    0  0.00000000000E+00  0.00000000000E+00  0.74505805969E-08  0.10566000000E+00  0.10566000000E+00 0.  1.
     999900   -1    0    0    0    0 -0.00000000000E+00 -0.00000000000E+00 -0.74505805969E-08  0.93827000000E+00  0.93827000000E+00 0. -1.
     999902    2    1    2    0    0 -0.14551557130E-01  0.53809226432E-02 -0.18196052777E-01  0.10200176919E+01  0.10197373648E+01 0.  0.
     999903    2    3    3    0    0 -0.16491714512E-01 -0.12555925209E+00 -0.23385361118E-01  0.13031210996E+00  0.19931594359E-01 0.  0.
         14    1    1    2    0    0  0.14551557130E-01 -0.53809226432E-02  0.18196052777E-01  0.23912308129E-01  0.00000000000E+00 0.  1.
     999901    1    3    3    0    0  0.19401573820E-02  0.13094017473E+00  0.51893083409E-02  0.88970558192E+00  0.88000000000E+00 0.  1.
        -11    1    4    4    0    0 -0.20402319506E-01 -0.94919224572E-01 -0.14487588443E-01  0.98163461504E-01  0.51100000000E-03 0.  1.
         11    1    4    4    0    0  0.39106049942E-02 -0.30640027517E-01 -0.88977726745E-02  0.32148648451E-01  0.51100000000E-03 0. -1.
</event>
<event>
 8    1  0.1042301E+005  0.1043930E+01  0.7957747E-01            NaN
         13   -1    0    0    0    0  0.00000000000E+00  0.00000000000E+00  0.74505805969E-08  0.10566000000E+00  0.10566000000E+00 0.  1.
     999900   -1    0    0    0    0 -0.00000000000E+00 -0.00000000000E+00 -0.74505805969E-08  0.93827000000E+00  0.93827000000E+00 0.  1.
     999902    2    1    2    0    0  0.27791601892E-02  0.75440881129E-02 -0.20206269158E-01  0.10221830391E+01  0.10219516794E+01 0.  0.
     999903    2    3    3    0    0  0.12869235177E+00 -0.22999034552E-01  0.60395847152E-02  0.13230896988E+00  0.19455331742E-01 0.  0.
         14    1    1    2    0    0 -0.27791601892E-02 -0.75440881129E-02  0.20206269158E-01  0.21746960939E-01  0.00000000000E+00 0.  1.
     999901    1    3    3    0    0 -0.12591319158E+00  0.30543122665E-01 -0.26245853873E-01  0.88987406918E+00  0.88000000000E+00 0.  1.
        -11    1    4    4    0    0  0.94011018765E-01 -0.23135132679E-01  0.10297364708E-01  0.97363252073E-01  0.51100000000E-03 0.  1.
         11    1    4    4    0    0  0.34681333003E-01  0.13609812644E-03 -0.42577799928E-02  0.34945717806E-01  0.51100000000E-03 0. -1.
</event>
<event>
 8    1  0.1042301E+005  0.1043930E+01  0.7957747E-01            NaN
         13   -1    0    0    0    0  0.00000000000E+00  0.00000000000E+00  0.74505805969E-08  0.10566000000E+00  0.10566000000E+00 0.  1.
     999900   -1    0    0    0    0 -0.00000000000E+00 -0.00000000000E+00 -0.74505805969E-08  0.93827000000E+00  0.93827000000E+00 0. -1.
     999902    2    1    2    0    0 -0.78154288370E-02  0.11201897416E-01 -0.19150737527E-01  0.10204073687E+01  0.10201362086E+01 0.  0.
     999903    2    3    3    0    0 -0.39025052153E-01 -0.43627357955E-01  0.11247728123E+00  0.12838370137E+00  0.20122994937E-01 0.  0.
         14    1    1    2    0    0  0.78154288370E-02 -0.11201897416E-01  0.19150737527E-01  0.23522631261E-01  0.00000000000E+00 0.  1.
     999901    1    3    3    0    0  0.31209623316E-01  0.54829255371E-01 -0.13162801876E+00  0.89202366737E+00  0.88000000000E+00 0. -1.
        -11    1    4    4    0    0 -0.28046378089E-01 -0.40331915922E-01  0.10010280503E+00  0.11150827531E+00  0.51100000000E-03 0. -1.
         11    1    4    4    0    0 -0.10978674065E-01 -0.32954420331E-02  0.12374476202E-01  0.16875426059E-01  0.51100000000E-03 0.  1.
</event>
<event>
 8    1  0.1042301E+005  0.1043930E+01  0.7957747E-01            NaN
         13   -1    0    0    0    0  0.00000000000E+00  0.00000000000E+00  0.74505805969E-08  0.10566000000E+00  0.10566000000E+00 0. -1.
     999900   -1    0    0    0    0 -0.00000000000E+00 -0.00000000000E+00 -0.74505805969E-08  0.93827000000E+00  0.93827000000E+00 0. -1.
     999902    2    1    2    0    0  0.82182188225E-02 -0.31561087563E-02  0.22106648194E-01  0.10201349577E+01  0.10198574057E+01 0.  0.
     999903    2    3    3    0    0  0.12702527394E+00  0.77427553449E-02 -0.25455146044E-01  0.13081160490E+00  0.16381118321E-01 0.  0.
         14    1    1    2    0    0 -0.82182188225E-02  0.31561087563E-02 -0.22106648194E-01  0.23795042287E-01  0.00000000000E+00 0.  1.
     999901    1    3    3    0    0 -0.11880705512E+00 -0.10898864101E-01  0.47561794238E-01  0.88932335281E+00  0.88000000000E+00 0.  1.
        -11    1    4    4    0    0  0.42681683657E-01  0.26404196511E-02 -0.74283739905E-03  0.42772781814E-01  0.51100000000E-03 0.  1.
         11    1    4    4    0    0  0.84343590281E-01  0.51023356938E-02 -0.24712308645E-01  0.88038823088E-01  0.51100000000E-03 0. -1.
</event>
<event>
 8    1  0.1042301E+005  0.1043930E+01  0.7957747E-01            NaN
         13   -1    0    0    0    0  0.00000000000E+00  0.00000000000E+00  0.74505805969E-08  0.10566000000E+00  0.10566000000E+00 0. -1.
     999900   -1    0    0    0    0 -0.00000000000E+00 -0.00000000000E+00 -0.74505805969E-08  0.93827000000E+00  0.93827000000E+00 0. -1.
     999902    2    1    2    0    0 -0.98464552935E-02  0.21591137886E-01  0.41734561305E-02  0.10198354435E+01  0.10195507757E+01 0.  0.
     999903    2    3    3    0    0 -0.12033123351E+00 -0.39874839353E-01  0.20561176456E-01  0.13064844969E+00  0.24013472434E-01 0.  0.
         14    1    1    2    0    0  0.98464552935E-02 -0.21591137886E-01 -0.41734561305E-02  0.24094556505E-01  0.00000000000E+00 0. -1.
     999901    1    3    3    0    0  0.11048477821E+00  0.61465977239E-01 -0.16387720326E-01  0.88918699381E+00  0.88000000000E+00 0. -1.
        -11    1    4    4    0    0 -0.53762153216E-01 -0.60214514210E-02  0.12536132434E-01  0.55534158254E-01  0.51100000000E-03 0. -1.
         11    1    4    4    0    0 -0.66569080292E-01 -0.33853387932E-01  0.80250440219E-02  0.75114291436E-01  0.51100000000E-03 0.  1.
</event>
<event>
 8    1  0.1042301E+005  0.1043930E+01  0.7957747E-01            NaN
         13   -1    0    0    0    0  0.00000000000E+00  0.00000000000E+00  0.74505805969E-08  0.10566000000E+00  0.10566000000E+00 0. -1.
     999900   -1    0    0    0    0 -0.00000000000E+00 -0.00000000000E+00 -0.74505805969E-08  0.93827000000E+00  0.93827000000E+00 0.  1.
     999902    2    1    2    0    0 -0.10142942165E-01 -0.19681837336E-01 -0.11902500177E-03  0.10217880000E+01  0.10215480648E+01 0.  0.
     999903    2    3    3    0    0  0.53734601911E-01 -0.77986273346E-01  0.91216971404E-01  0.13284367547E+00  0.18911371351E-01 0.  0.
         14    1    1    2    0    0  0.10142942165E-01  0.19681837336E-01  0.11902500177E-03  0.22141999991E-01  0.00000000000E+00 0.  1.
     999901    1    3    3    0    0 -0.63877544076E-01  0.58304436010E-01 -0.91335996406E-01  0.88894432454E+00  0.88000000000E+00 0.  1.
        -11    1    4    4    0    0  0.30221670855E-01 -0.27434641458E-01  0.38223274579E-01  0.55922167177E-01  0.51100000000E-03 0. -1.
         11    1    4    4    0    0  0.23512931056E-01 -0.50551631888E-01  0.52993696825E-01  0.76921508290E-01  0.51100000000E-03 0.  1.
</event>
<event>
 8    1  0.1042301E+005  0.1043930E+01  0.7957747E-01            NaN
         13   -1    0    0    0    0  0.00000000000E+00  0.00000000000E+00  0.74505805969E-08  0.10566000000E+00  0.10566000000E+00 0. -1.
     999900   -1    0    0    0    0 -0.00000000000E+00 -0.00000000000E+00 -0.74505805969E-08  0.93827000000E+00  0.93827000000E+00 0. -1.
     999902    2    1    2    0    0 -0.36313245295E-02  0.13395533194E-01  0.19476619750E-01  0.10200141989E+01  0.10197337890E+01 0.  0.
     999903    2    3    3    0    0 -0.97688329561E-02  0.17150351714E-02 -0.12598725200E+00  0.12797505116E+00  0.20160719457E-01 0.  0.
         14    1    1    2    0    0  0.36313245295E-02 -0.13395533194E-01 -0.19476619750E-01  0.23915801142E-01  0.00000000000E+00 0.  1.
     999901    1    3    3    0    0  0.61375084266E-02  0.11680498023E-01  0.14546387175E+00  0.89203914770E+00  0.88000000000E+00 0.  1.
        -11    1    4    4    0    0  0.60390778255E-02  0.23593132254E-02 -0.43385946935E-01  0.43870700158E-01  0.51100000000E-03 0. -1.
         11    1    4    4    0    0 -0.15807910782E-01 -0.64427805406E-03 -0.82601305066E-01  0.84104351000E-01  0.51100000000E-03 0.  1.
</event>
<event>
 8    1  0.1042301E+005  0.1043930E+01  0.7957747E-01            NaN
         13   -1    0    0    0    0  0.00000000000E+00  0.00000000000E+00  0.74505805969E-08  0.10566000000E+00  0.10566000000E+00 0.  1.
     999900   -1    0    0    0    0 -0.00000000000E+00 -0.00000000000E+00 -0.74505805969E-08  0.93827000000E+00  0.93827000000E+00 0.  1.
     999902    2    1    2    0    0 -0.57631526430E-03 -0.26464398429E-01  0.54597959254E-02  0.10169021274E+01  0.10165428820E+01 0.  0.
     999903    2    3    3    0    0  0.11438845666E+00 -0.56052254983E-01  0.28495963590E-02  0.12892737939E+00  0.19686915706E-01 0.  0.
         14    1    1    2    0    0  0.57631526430E-03  0.26464398429E-01 -0.54597959254E-02  0.27027872559E-01  0.00000000000E+00 0. -1.
     999901    1    3    3    0    0 -0.11496477193E+00  0.29587856554E-01  0.26101995664E-02  0.88797474805E+00  0.88000000000E+00 0. -1.
        -11    1    4    4    0    0  0.57529063229E-01 -0.33455169590E-01 -0.71273247855E-02  0.66932065320E-01  0.51100000000E-03 0. -1.
         11    1    4    4    0    0  0.56859393433E-01 -0.22597085392E-01  0.99769211445E-02  0.61995314068E-01  0.51100000000E-03 0.  1.
</event>
<event>
 8    1  0.1042301E+005  0.1043930E+01  0.7957747E-01            NaN
         13   -1    0    0    0    0  0.00000000000E+00  0.00000000000E+00  0.74505805969E-08  0.10566000000E+00  0.10566000000E+00 0.  1.
     999900   -1    0    0    0    0 -0.00000000000E+00 -0.00000000000E+00 -0.74505805969E-08  0.93827000000E+00  0.93827000000E+00 0.  1.
     999902    2    1    2    0    0 -0.12206479829E-02 -0.18185328393E-02  0.23261829068E-01  0.10205652887E+01  0.10202977990E+01 0.  0.
     999903    2    3    3    0    0  0.38023136011E-01  0.11049427011E+00  0.58583673445E-01  0.13185730910E+00  0.17307818191E-01 0.  0.
         14    1    1    2    0    0  0.12206479829E-02  0.18185328393E-02 -0.23261829068E-01  0.23364711313E-01  0.00000000000E+00 0. -1.
     999901    1    3    3    0    0 -0.39243783994E-01 -0.11231280295E+00 -0.35321844377E-01  0.88870797959E+00  0.88000000000E+00 0.  1.
        -11    1    4    4    0    0  0.31313573048E-01  0.10458016374E+00  0.54286237747E-01  0.12192131575E+00  0.51100000000E-03 0.  1.
         11    1    4    4    0    0  0.67095629623E-02  0.59141063682E-02  0.42974356981E-02  0.99359933504E-02  0.51100000000E-03 0. -1.
</event>
<event>
 8    1  0.1042301E+005  0.1043930E+01  0.7957747E-01            NaN
         13   -1    0    0    0    0  0.00000000000E+00  0.00000000000E+00  0.74505805969E-08  0.10566000000E+00  0.10566000000E+00 0. -1.
     999900   -1    0    0    0    0 -0.00000000000E+00 -0.00000000000E+00 -0.74505805969E-08  0.93827000000E+00  0.93827000000E+00 0.  1.
     999902    2    1    2    0    0 -0.68917025826E-02 -0.21710112799E-01 -0.79097902765E-02  0.10198179834E+01  0.10195328979E+01 0.  0.
     999903    2    3    3    0    0  0.21075293873E-01 -0.18976051447E-01  0.12486021141E+00  0.12941498401E+00  0.18812420118E-01 0.  0.
         14    1    1    2    0    0  0.68917025826E-02  0.21710112799E-01  0.79097902765E-02  0.24112016598E-01  0.00000000000E+00 0. -1.
     999901    1    3    3    0    0 -0.27966996456E-01 -0.27340613518E-02 -0.13277000169E+00  0.89040299939E+00  0.88000000000E+00 0.  1.
        -11    1    4    4    0    0  0.15856596957E-01 -0.12688446555E-01  0.48026144040E-01  0.52145948792E-01  0.51100000000E-03 0.  1.
         11    1    4    4    0    0  0.52186969158E-02 -0.62876048919E-02  0.76834067374E-01  0.77269035215E-01  0.51100000000E-03 0. -1.
</event>
<event>
 8    1  0.1042301E+005  0.1043930E+01  0.7957747E-01            NaN
         13   -1    0    0    0    0  0.00000000000E+00  0.00000000000E+00  0.74505805969E-08  0.10566000000E+00  0.10566000000E+00 0. -1.
     999900   -1    0    0    0    0 -0.00000000000E+00 -0.00000000000E+00 -0.74505805969E-08  0.93827000000E+00  0.93827000000E+00 0. -1.
     999902    2    1    2    0    0  0.93043065118E-02  0.21530751739E-01  0.59376660459E-03  0.10204673499E+01  0.10201975869E+01 0.  0.
     999903    2    3    3    0    0  0.29798616893E-01 -0.77674857780E-01  0.98190164127E-01  0.12929574662E+00  0.12439479989E-01 0.  0.
         14    1    1    2    0    0 -0.93043065118E-02 -0.21530751739E-01 -0.59376660459E-03  0.23462650083E-01  0.00000000000E+00 0. -1.
     999901    1    3    3    0    0 -0.20494310382E-01  0.99205609519E-01 -0.97596397522E-01  0.89117160330E+00  0.88000000000E+00 0. -1.
        -11    1    4    4    0    0  0.99676062026E-02 -0.28689843269E-01  0.45175238745E-01  0.54438254903E-01  0.51100000000E-03 0.  1.
         11    1    4    4    0    0  0.19831010691E-01 -0.48985014510E-01  0.53014925382E-01  0.74857491715E-01  0.51100000000E-03 0. -1.
</event>
<event>
 8    1  0.1042301E+005  0.1043930E+01  0.7957747E-01            NaN
         13   -1    0    0    0    0  0.00000000000E+00  0.00000000000E+00  0.74505805969E-08  0.10566000000E+00  0.10566000000E+00 0. -1.
     999900   -1    0    0    0    0 -0.00000000000E+00 -0.00000000000E+00 -0.74505805969E-08  0.93827000000E+00  0.93827000000E+00 0.  1.
     999902    2    1    2    0    0 -0.13082963185E-01  0.49948207466E-02  0.21887072734E-01  0.10179462337E+01  0.10176145530E+01 0.  0.
     999903    2    3    3    0    0 -0.12446355814E+00  0.32694216644E-01  0.64857406194E-02  0.13035956494E+00  0.19785404544E-01 0.  0.
         14    1    1    2    0    0  0.13082963185E-01 -0.49948207466E-02 -0.21887072734E-01  0.25983766333E-01  0.00000000000E+00 0.  1.
     999901    1    3    3    0    0  0.11138059496E+00 -0.27699395897E-01  0.15401332115E-01  0.88758666872E+00  0.88000000000E+00 0.  1.
        -11    1    4    4    0    0 -0.10911009221E+00  0.33753162409E-01  0.97184542050E-02  0.11462546693E+00  0.51100000000E-03 0. -1.
         11    1    4    4    0    0 -0.15353465928E-01 -0.10589457650E-02 -0.32327135856E-02  0.15734098013E-01  0.51100000000E-03 0.  1.
</event>
<event>
 8    1  0.1042301E+005  0.1043930E+01  0.7957747E-01            NaN
         13   -1    0    0    0    0  0.00000000000E+00  0.00000000000E+00  0.74505805969E-08  0.10566000000E+00  0.10566000000E+00 0. -1.
     999900   -1    0    0    0    0 -0.00000000000E+00 -0.00000000000E+00 -0.74505805969E-08  0.93827000000E+00  0.93827000000E+00 0. -1.
     999902    2    1    2    0    0  0.13640427806E-01  0.12534637820E-01  0.15269955318E-01  0.10199227105E+01  0.10196401254E+01 0.  0.
     999903    2    3    3    0    0 -0.56806935053E-01  0.72239311959E-01 -0.88443075752E-01  0.12903333917E+00  0.19541722209E-01 0.  0.
         14    1    1    2    0    0 -0.13640427806E-01 -0.12534637820E-01 -0.15269955318E-01  0.24007289548E-01  0.00000000000E+00 0.  1.
     999901    1    3    3    0    0  0.70447362859E-01 -0.59704674138E-01  0.10371303107E+00  0.89088937128E+00  0.88000000000E+00 0.  1.
        -11    1    4    4    0    0 -0.34214271687E-01  0.28571138692E-01 -0.37785939316E-01  0.58437699169E-01  0.51100000000E-03 0. -1.
         11    1    4    4    0    0 -0.22592663366E-01  0.43668173266E-01 -0.50657136436E-01  0.70595640002E-01  0.51100000000E-03 0.  1.
</event>
<event>
 8    1  0.1042301E+005  0.1043930E+01  0.7957747E-01            NaN
         13   -1    0    0    0    0  0.00000000000E+00  0.00000000000E+00  0.74505805969E-08  0.10566000000E+00  0.10566000000E+00 0. -1.
     999900   -1    0    0    0    0 -0.00000000000E+00 -0.00000000000E+00 -0.74505805969E-08  0.93827000000E+00  0.93827000000E+00 0. -1.
     999902    2    1    2    0    0  0.15493508800E-01  0.11744526306E-01 -0.19960785808E-01  0.10160657634E+01  0.10156836219E+01 0.  0.
     999903    2    3    3    0    0 -0.13099617527E-01 -0.11269119624E+00 -0.51887965499E-01  0.12627861988E+00  0.19570978117E-01 0.  0.
         14    1    1    2    0    0 -0.15493508800E-01 -0.11744526306E-01  0.19960785808E-01  0.27864236633E-01  0.00000000000E+00 0. -1.
     999901    1    3    3    0    0  0.28593126326E-01  0.12443572255E+00  0.31927179691E-01  0.88978714349E+00  0.88000000000E+00 0.  1.
        -11    1    4    4    0    0 -0.12413883387E-01 -0.62228217707E-01 -0.19808977628E-01  0.66476404050E-01  0.51100000000E-03 0. -1.
         11    1    4    4    0    0 -0.68573414032E-03 -0.50462978534E-01 -0.32078987871E-01  0.59802215825E-01  0.51100000000E-03 0.  1.
</event>
<event>
 8    1  0.1042301E+005  0.1043930E+01  0.7957747E-01            NaN
         13   -1    0    0    0    0  0.00000000000E+00  0.00000000000E+00  0.74505805969E-08  0.10566000000E+00  0.10566000000E+00 0.  1.
     999900   -1    0    0    0    0 -0.00000000000E+00 -0.00000000000E+00 -0.74505805969E-08  0.93827000000E+00  0.93827000000E+00 0.  1.
     999902    2    1    2    0    0 -0.18683801897E-01  0.10532379363E-01 -0.93941628597E-02  0.10205149244E+01  0.10202462669E+01 0.  0.
     999903    2    3    3    0    0  0.32947703228E-01  0.81661091851E-01 -0.96140554998E-01  0.13189237091E+00  0.19962618045E-01 0.  0.
         14    1    1    2    0    0  0.18683801897E-01 -0.10532379363E-01  0.93941628597E-02  0.23415075575E-01  0.00000000000E+00 0.  1.
     999901    1    3    3    0    0 -0.51631505125E-01 -0.71128712489E-01  0.86746392138E-01  0.88862255351E+00  0.88000000000E+00 0.  1.
        -11    1    4    4    0    0  0.24847580588E-01  0.60919335043E-01 -0.83416486941E-01  0.10624094812E+00  0.51100000000E-03 0.  1.
         11    1    4    4    0    0  0.81001226400E-02  0.20741756808E-01 -0.12724068057E-01  0.25651422791E-01  0.51100000000E-03 0. -1.
</event>
<event>
 8    1  0.1042301E+005  0.1043930E+01  0.7957747E-01            NaN
         13   -1    0    0    0    0  0.00000000000E+00  0.00000000000E+00  0.74505805969E-08  0.10566000000E+00  0.10566000000E+00 0. -1.
     999900   -1    0    0    0    0 -0.00000000000E+00 -0.00000000000E+00 -0.74505805969E-08  0.93827000000E+00  0.93827000000E+00 0.  1.
     999902    2    1    2    0    0  0.50524136452E-03  0.23776002289E-01  0.28881647889E-02  0.10199738933E+01  0.10196925262E+01 0.  0.
     999903    2    3    3    0    0 -0.10562113661E+00 -0.49130986964E-02  0.73557930903E-01  0.13032222635E+00  0.19828021681E-01 0.  0.
         14    1    1    2    0    0 -0.50524136452E-03 -0.23776002289E-01 -0.28881647889E-02  0.23956106728E-01  0.00000000000E+00 0.  1.
     999901    1    3    3    0    0  0.10612637798E+00  0.28689100986E-01 -0.70669766115E-01  0.88965166692E+00  0.88000000000E+00 0.  1.
        -11    1    4    4    0    0 -0.52543728687E-01 -0.12230348350E-01  0.35004182819E-01  0.64311575792E-01  0.51100000000E-03 0. -1.
         11    1    4    4    0    0 -0.53077407924E-01  0.73172496539E-02  0.38553748085E-01  0.66010650556E-01  0.51100000000E-03 0.  1.
</event>
<event>
 8    1  0.1042301E+005  0.1043930E+01  0.7957747E-01            NaN
         13   -1    0    0    0    0  0.00000000000E+00  0.00000000000E+00  0.74505805969E-08  0.10566000000E+00  0.10566000000E+00 0.  1.
     999900   -1    0    0    0    0 -0.00000000000E+00 -0.00000000000E+00 -0.74505805969E-08  0.93827000000E+00  0.93827000000E+00 0.  1.
     999902    2    1    2    0    0 -0.65489308953E-02  0.13624145337E-01  0.17567498189E-01  0.10207540896E+01  0.10204909547E+01 0.  0.
     999903    2    3    3    0    0 -0.18676479327E-01 -0.97955422128E-01 -0.78375596848E-01  0.12845248428E+00  0.20328082335E-01 0.  0.
         14    1    1    2    0    0  0.65489308953E-02 -0.13624145337E-01 -0.17567498189E-01  0.23175910439E-01  0.00000000000E+00 0. -1.
     999901    1    3    3    0    0  0.12127548432E-01  0.11157956746E+00  0.95943095038E-01  0.89230160528E+00  0.88000000000E+00 0. -1.
        -11    1    4    4    0    0 -0.15230971438E-01 -0.58689162008E-01 -0.35736229417E-01  0.70382806438E-01  0.51100000000E-03 0.  1.
         11    1    4    4    0    0 -0.34455078890E-02 -0.39266260119E-01 -0.42639367432E-01  0.58069677839E-01  0.51100000000E-03 0. -1.
</event>
<event>
 8    1  0.1042301E+005  0.1043930E+01  0.7957747E-01            NaN
         13   -1    0    0    0    0  0.00000000000E+00  0.00000000000E+00  0.74505805969E-08  0.10566000000E+00  0.10566000000E+00 0. -1.
     999900   -1    0    0    0    0 -0.00000000000E+00 -0.00000000000E+00 -0.74505805969E-08  0.93827000000E+00  0.93827000000E+00 0. -1.
     999902    2    1    2    0    0 -0.47895761609E-02  0.10067298147E-01 -0.21306245863E-01  0.10198832405E+01  0.10195997144E+01 0.  0.
     999903    2    3    3    0    0 -0.12285246107E+00 -0.67389652389E-02 -0.41557511068E-01  0.13160884083E+00  0.21347585708E-01 0.  0.
         14    1    1    2    0    0  0.47895761609E-02 -0.10067298147E-01  0.21306245863E-01  0.24046759544E-01  0.00000000000E+00 0. -1.
     999901    1    3    3    0    0  0.11806288491E+00  0.16806263386E-01  0.20251265205E-01  0.88827439962E+00  0.88000000000E+00 0.  1.
        -11    1    4    4    0    0 -0.37399779074E-01 -0.54028712792E-02 -0.22711689538E-01  0.44091001979E-01  0.51100000000E-03 0.  1.
         11    1    4    4    0    0 -0.85452681997E-01 -0.13360939597E-02 -0.18845821530E-01  0.87517838854E-01  0.51100000000E-03 0. -1.
</event>
<event>
 8    1  0.1042301E+005  0.1043930E+01  0.7957747E-01            NaN
         13   -1    0    0    0    0  0.00000000000E+00  0.00000000000E+00  0.74505805969E-08  0.10566000000E+00  0.10566000000E+00 0. -1.
     999900   -1    0    0    0    0 -0.00000000000E+00 -0.00000000000E+00 -0.74505805969E-08  0.93827000000E+00  0.93827000000E+00 0. -1.
     999902    2    1    2    0    0  0.89670266305E-02  0.71415455709E-02 -0.20088340831E-01  0.10208009992E+01  0.10205389406E+01 0.  0.
     999903    2    3    3    0    0  0.93959020041E-01  0.84384763710E-01  0.32274923251E-01  0.13179477589E+00  0.19470657100E-01 0.  0.
         14    1    1    2    0    0 -0.89670266305E-02 -0.71415455709E-02  0.20088340831E-01  0.23129000780E-01  0.00000000000E+00 0. -1.
     999901    1    3    3    0    0 -0.84991993410E-01 -0.77243218139E-01 -0.52363264082E-01  0.88900622333E+00  0.88000000000E+00 0.  1.
        -11    1    4    4    0    0  0.50901008735E-01  0.54436489233E-01  0.26167911746E-01  0.78989016808E-01  0.51100000000E-03 0.  1.
         11    1    4    4    0    0  0.43058011306E-01  0.29948274477E-01  0.61070115054E-02  0.52805759083E-01  0.51100000000E-03 0. -1.
</event>
<event>
 8    1  0.1042301E+005  0.1043930E+01  0.7957747E-01            NaN
         13   -1    0    0    0    0  0.00000000000E+00  0.00000000000E+00  0.74505805969E-08  0.10566000000E+00  0.10566000000E+00 0.  1.
     999900   -1    0    0    0    0 -0.00000000000E+00 -0.00000000000E+00 -0.74505805969E-08  0.93827000000E+00  0.93827000000E+00 0.  1.
     999902    2    1    2    0    0  0.29278670059E-02  0.23904003763E-01  0.72134820219E-03  0.10198365539E+01  0.10195519126E+01 0.  0.
     999903    2    3    3    0    0  0.47356994129E-01 -0.10112812911E+00 -0.58958657462E-01  0.12788998339E+00  0.20251942422E-01 0.  0.
         14    1    1    2    0    0 -0.29278670059E-02 -0.23904003763E-01 -0.72134820219E-03  0.24093446087E-01  0.00000000000E+00 0. -1.
     999901    1    3    3    0    0 -0.44429127123E-01  0.12503213287E+00  0.59680005665E-01  0.89194657052E+00  0.88000000000E+00 0. -1.
        -11    1    4    4    0    0  0.40210975253E-01 -0.66604272120E-01 -0.45623180100E-01  0.90193055602E-01  0.51100000000E-03 0. -1.
         11    1    4    4    0    0  0.71460188761E-02 -0.34523856992E-01 -0.13335477363E-01  0.37696927791E-01  0.51100000000E-03 0.  1.
</event>
<event>
 8    1  0.1042301E+005  0.1043930E+01  0.7957747E-01            NaN
         13   -1    0    0    0    0  0.00000000000E+00  0.00000000000E+00  0.74505805969E-08  0.10566000000E+00  0.10566000000E+00 0. -1.
     999900   -1    0    0    0    0 -0.00000000000E+00 -0.00000000000E+00 -0.74505805969E-08  0.93827000000E+00  0.93827000000E+00 0. -1.
     999902    2    1    2    0    0  0.30120497094E-02 -0.21146982007E-01 -0.80360572961E-02  0.10211079600E+01  0.10208528888E+01 0.  0.
     999903    2    3    3    0    0 -0.85711412532E-01  0.83316267895E-01  0.44095077395E-01  0.12897451792E+00  0.20050029622E-01 0.  0.
         14    1    1    2    0    0 -0.30120497094E-02  0.21146982007E-01  0.80360572961E-02  0.22822039968E-01  0.00000000000E+00 0.  1.
     999901    1    3    3    0    0  0.88723462241E-01 -0.10446324990E+00 -0.52131134691E-01  0.89213344211E+00  0.88000000000E+00 0.  1.
        -11    1    4    4    0    0 -0.24703163048E-01  0.30853681312E-01  0.23229617617E-01  0.45848360611E-01  0.51100000000E-03 0. -1.
         11    1    4    4    0    0 -0.61008249484E-01  0.52462586583E-01  0.20865459777E-01  0.83126157308E-01  0.51100000000E-03 0.  1.
</event>
<event>
 8    1  0.1042301E+005  0.1043930E+01  0.7957747E-01            NaN
         13   -1    0    0    0    0  0.00000000000E+00  0.00000000000E+00  0.74505805969E-08  0.10566000000E+00  0.10566000000E+00 0. -1.
     999900   -1    0    0    0    0 -0.00000000000E+00 -0.00000000000E+00 -0.74505805969E-08  0.93827000000E+00  0.93827000000E+00 0. -1.
     999902    2    1    2    0    0  0.17038248366E-01 -0.11966198916E-01 -0.85838138687E-02  0.10214094830E+01  0.10211611814E+01 0.  0.
     999903    2    3    3    0    0 -0.36473149446E-01 -0.12195961408E+00 -0.31392006383E-01  0.13265629192E+00  0.20193950156E-01 0.  0.
         14    1    1    2    0    0 -0.17038248366E-01  0.11966198916E-01  0.85838138687E-02  0.22520516966E-01  0.00000000000E+00 0. -1.
     999901    1    3    3    0    0  0.53511397812E-01  0.10999341517E+00  0.22808192514E-01  0.88875319112E+00  0.88000000000E+00 0.  1.
        -11    1    4    4    0    0 -0.39340293030E-03 -0.28453314121E-01 -0.10044932811E-01  0.30181246603E-01  0.51100000000E-03 0.  1.
         11    1    4    4    0    0 -0.36079746516E-01 -0.93506299960E-01 -0.21347073572E-01  0.10247504531E+00  0.51100000000E-03 0. -1.
</event>
<event>
 8    1  0.1042301E+005  0.1043930E+01  0.7957747E-01            NaN
         13   -1    0    0    0    0  0.00000000000E+00  0.00000000000E+00  0.74505805969E-08  0.10566000000E+00  0.10566000000E+00 0. -1.
     999900   -1    0    0    0    0 -0.00000000000E+00 -0.00000000000E+00 -0.74505805969E-08  0.93827000000E+00  0.93827000000E+00 0. -1.
     999902    2    1    2    0    0  0.32477290190E-02  0.21946576946E-01 -0.67221717497E-02  0.10207483785E+01  0.10204851124E+01 0.  0.
     999903    2    3    3    0    0  0.54969078071E-01  0.94500125221E-02  0.11650465273E+00  0.13057080499E+00  0.19091849727E-01 0.  0.
         14    1    1    2    0    0 -0.32477290190E-02 -0.21946576946E-01  0.67221717497E-02  0.23181621523E-01  0.00000000000E+00 0. -1.
     999901    1    3    3    0    0 -0.51721349052E-01  0.12496564424E-01 -0.12322682448E+00  0.89017757349E+00  0.88000000000E+00 0. -1.
        -11    1    4    4    0    0  0.51716283068E-01  0.11774698821E-01  0.96049373172E-01  0.10972219773E+00  0.51100000000E-03 0.  1.
         11    1    4    4    0    0  0.32527950037E-02 -0.23246862989E-02  0.20455279561E-01  0.20848607259E-01  0.51100000000E-03 0. -1.
</event>
<event>
 8    1  0.1042301E+005  0.1043930E+01  0.7957747E-01            NaN
         13   -1    0    0    0    0  0.00000000000E+00  0.00000000000E+00  0.74505805969E-08  0.10566000000E+00  0.10566000000E+00 0. -1.
     999900   -1    0    0    0    0 -0.00000000000E+00 -0.00000000000E+00 -0.74505805969E-08  0.93827000000E+00  0.93827000000E+00 0. -1.
     999902    2    1    2    0    0 -0.55127305497E-02  0.39199009518E-02 -0.22676535162E-01  0.10202660809E+01  0.10199916150E+01 0.  0.
     999903    2    3    3    0    0  0.24610562479E-01  0.68291180751E-01 -0.10975785991E+00  0.13311658300E+00  0.20096559546E-01 0.  0.
         14    1    1    2    0    0  0.55127305497E-02 -0.39199009518E-02  0.22676535162E-01  0.23663919129E-01  0.00000000000E+00 0. -1.
     999901    1    3    3    0    0 -0.30123293029E-01 -0.64371279800E-01  0.87081324744E-01  0.88714949787E+00  0.88000000000E+00 0. -1.
        -11    1    4    4    0    0  0.10007508679E-01  0.32603678098E-01 -0.34281840137E-01  0.48359649912E-01  0.51100000000E-03 0.  1.
         11    1    4    4    0    0  0.14603053800E-01  0.35687502654E-01 -0.75476019769E-01  0.84756933092E-01  0.51100000000E-03 0. -1.
</event>
<event>
 8    1  0.1042301E+005  0.1043930E+01  0.7957747E-01            NaN
         13   -1    0    0    0    0  0.00000000000E+00  0.00000000000E+00  0.74505805969E-08  0.10566000000E+00  0.10566000000E+00 0.  1.
     999900   -1    0    0    0    0 -0.00000000000E+00 -0.00000000000E+00 -0.74505805969E-08  0.93827000000E+00  0.93827000000E+00 0.  1.
     999902    2    1    2    0    0  0.20806749877E-02  0.23346501681E-01  0.42770429578E-02  0.10201039335E+01  0.10198256487E+01 0.  0.
     999903    2    3    3    0    0 -0.68897627043E-01  0.16757320024E-01 -0.10724208967E+00  0.13020626880E+00  0.20618337710E-01 0.  0.
         14    1    1    2    0    0 -0.20806749877E-02 -0.23346501681E-01 -0.42770429578E-02  0.23826066516E-01  0.00000000000E+00 0.  1.
     999901    1    3    3    0    0  0.70978302031E-01  0.65891816578E-02  0.11151913263E+00  0.88989766469E+00  0.88000000000E+00 0. -1.
        -11    1    4    4    0    0 -0.44010996176E-01  0.15145259045E-01 -0.53220194099E-01  0.70703584328E-01  0.51100000000E-03 0. -1.
         11    1    4    4    0    0 -0.24886630867E-01  0.16120609791E-02 -0.54021895574E-01  0.59502684468E-01  0.51100000000E-03 0.  1.
</event>
<event>
 8    1  0.1042301E+005  0.1043930E+01  0.7957747E-01            NaN
         13   -1    0    0    0    0  0.00000000000E+00  0.00000000000E+00  0.74505805969E-08  0.10566000000E+00  0.10566000000E+00 0.  1.
     999900   -1    0    0    0    0 -0.00000000000E+00 -0.00000000000E+00 -0.74505805969E-08  0.93827000000E+00  0.93827000000E+00 0.  1.
     999902    2    1    2    0    0 -0.87387402706E-03  0.11830650944E-01 -0.19066551753E-01  0.10214742356E+01  0.10212273756E+01 0.  0.
     999903    2    3    3    0    0 -0.13169611034E-01 -0.82272038582E-01  0.96336759251E-01  0.12888002463E+00  0.19676447295E-01 0.  0.
         14    1    1    2    0    0  0.87387402706E-03 -0.11830650944E-01  0.19066551753E-01  0.22455764368E-01  0.00000000000E+00 0.  1.
     999901    1    3    3    0    0  0.12295737007E-01  0.94102689526E-01 -0.11540331100E+00  0.89259421100E+00  0.88000000000E+00 0.  1.
        -11    1    4    4    0    0 -0.81599399779E-02 -0.27938964271E-01  0.47175772809E-01  0.55434510967E-01  0.51100000000E-03 0.  1.
         11    1    4    4    0    0 -0.50096710558E-02 -0.54333074311E-01  0.49160986442E-01  0.73445513662E-01  0.51100000000E-03 0. -1.
</event>
<event>
 8    1  0.1042301E+005  0.1043930E+01  0.7957747E-01            NaN
         13   -1    0    0    0    0  0.00000000000E+00  0.00000000000E+00  0.74505805969E-08  0.10566000000E+00  0.10566000000E+00 0. -1.
     999900   -1    0    0    0    0 -0.00000000000E+00 -0.00000000000E+00 -0.74505805969E-08  0.93827000000E+00  0.93827000000E+00 0. -1.
     999902    2    1    2    0    0  0.20673088034E-01 -0.11480879939E-01 -0.15484043083E-02  0.10202322210E+01  0.10199569599E+01 0.  0.
     999903    2    3    3    0    0  0.41486185130E-02 -0.87265466985E-01 -0.96487453852E-01  0.13173360826E+00  0.20284033914E-01 0.  0.
         14    1    1    2    0    0 -0.20673088034E-01  0.11480879939E-01  0.15484043083E-02  0.23697778988E-01  0.00000000000E+00 0.  1.
     999901    1    3    3    0    0  0.16524469521E-01  0.75784587046E-01  0.94939049544E-01  0.88849861275E+00  0.88000000000E+00 0.  1.
        -11    1    4    4    0    0  0.45084250915E-02 -0.11617099707E-01 -0.61563998714E-02  0.13908460835E-01  0.51100000000E-03 0. -1.
         11    1    4    4    0    0 -0.35980657849E-03 -0.75648367278E-01 -0.90331053981E-01  0.11782514743E+00  0.51100000000E-03 0.  1.
</event>
<event>
 8    1  0.1042301E+005  0.1043930E+01  0.7957747E-01            NaN
         13   -1    0    0    0    0  0.00000000000E+00  0.00000000000E+00  0.74505805969E-08  0.10566000000E+00  0.10566000000E+00 0.  1.
     999900   -1    0    0    0    0 -0.00000000000E+00 -0.00000000000E+00 -0.74505805969E-08  0.93827000000E+00  0.93827000000E+00 0. -1.
     999902    2    1    2    0    0  0.15297866533E-02 -0.22434251481E-01  0.86942428841E-02  0.10198213761E+01  0.10195363718E+01 0.  0.
     999903    2    3    3    0    0  0.16500323607E-01 -0.40610325361E-01 -0.12083925010E+00  0.13002734801E+00  0.19583862210E-01 0.  0.
         14    1    1    2    0    0 -0.15297866533E-02  0.22434251481E-01 -0.86942428841E-02  0.24108623894E-01  0.00000000000E+00 0. -1.
     999901    1    3    3    0    0 -0.14970536954E-01  0.18176073880E-01  0.12953349299E+00  0.88979402810E+00  0.88000000000E+00 0.  1.
        -11    1    4    4    0    0  0.11644807135E-01 -0.77777536038E-02 -0.25823819711E-01  0.29380704039E-01  0.51100000000E-03 0.  1.
         11    1    4    4    0    0  0.48555164715E-02 -0.32832571757E-01 -0.95015430391E-01  0.10064664397E+00  0.51100000000E-03 0. -1.
</event>
<event>
 8    1  0.1042301E+005  0.1043930E+01  0.7957747E-01            NaN
         13   -1    0    0    0    0  0.00000000000E+00  0.00000000000E+00  0.74505805969E-08  0.10566000000E+00  0.10566000000E+00 0.  1.
     999900   -1    0    0    0    0 -0.00000000000E+00 -0.00000000000E+00 -0.74505805969E-08  0.93827000000E+00  0.93827000000E+00 0. -1.
     999902    2    1    2    0    0 -0.11230105944E-01 -0.14508382316E-01 -0.14536320045E-01  0.10205224577E+01  0.10202539750E+01 0.  0.
     999903    2    3    3    0    0  0.81226487247E-01 -0.97347455835E-01  0.25797729144E-01  0.13089480004E+00  0.19840777689E-01 0.  0.
         14    1    1    2    0    0  0.11230105944E-01  0.14508382316E-01  0.14536320045E-01  0.23407542318E-01  0.00000000000E+00 0.  1.
     999901    1    3    3    0    0 -0.92456593191E-01  0.82839073519E-01 -0.40334049189E-01  0.88962765765E+00  0.88000000000E+00 0. -1.
        -11    1    4    4    0    0  0.59500553353E-01 -0.60788448309E-01  0.23741804286E-01  0.88314696902E-01  0.51100000000E-03 0. -1.
         11    1    4    4    0    0  0.21725933894E-01 -0.36559007526E-01  0.20559248583E-02  0.42580103134E-01  0.51100000000E-03 0.  1.
</event>
<event>
 8    1  0.1042301E+005  0.1043930E+01  0.7957747E-01            NaN
         13   -1    0    0    0    0  0.00000000000E+00  0.00000000000E+00  0.74505805969E-08  0.10566000000E+00  0.10566000000E+00 0. -1.
     999900   -1    0    0    0    0 -0.00000000000E+00 -0.00000000000E+00 -0.74505805969E-08  0.93827000000E+00  0.93827000000E+00 0. -1.
     999902    2    1    2    0    0 -0.15327819508E-01  0.81456982046E-02  0.16306844705E-01  0.10201138787E+01  0.10198358289E+01 0.  0.
     999903    2    3    3    0    0  0.79955539343E-01  0.53652494418E-01  0.87076657132E-01  0.13098050662E+00  0.17380174565E-01 0.  0.
         14    1    1    2    0    0  0.15327819508E-01 -0.81456982046E-02 -0.16306844705E-01  0.23816121312E-01  0.00000000000E+00 0.  1.
     999901    1    3    3    0    0 -0.95283358851E-01 -0.45506796214E-01 -0.70769812427E-01  0.88913337207E+00  0.88000000000E+00 0.  1.
        -11    1    4    4    0    0  0.56367808378E-01  0.46550304181E-01  0.67644508616E-01  0.99600709373E-01  0.51100000000E-03 0. -1.
         11    1    4    4    0    0  0.23587730966E-01  0.71021902372E-02  0.19432148516E-01  0.31379797246E-01  0.51100000000E-03 0.  1.
</event>
<event>
 8    1  0.1042301E+005  0.1043930E+01  0.7957747E-01            NaN
         13   -1    0    0    0    0  0.00000000000E+00  0.00000000000E+00  0.74505805969E-08  0.10566000000E+00  0.10566000000E+00 0. -1.
     999900   -1    0    0    0    0 -0.00000000000E+00 -0.00000000000E+00 -0.74505805969E-08  0.93827000000E+00  0.93827000000E+00 0. -1.
     999902    2    1    2    0    0 -0.31599408138E-02  0.19542098601E-01  0.12637938093E-01  0.10204439121E+01  0.10201736036E+01 0.  0.
     999903    2    3    3    0    0  0.11138653025E+00 -0.20302569848E-01 -0.59033868761E-01  0.12923948019E+00  0.19967276087E-01 0.  0.
         14    1    1    2    0    0  0.31599408138E-02 -0.19542098601E-01 -0.12637938093E-01  0.23486087859E-01  0.00000000000E+00 0.  1.
     999901    1    3    3    0    0 -0.11454647106E+00  0.39844668448E-01  0.71671806855E-01  0.89120443195E+00  0.88000000000E+00 0.  1.
        -11    1    4    4    0    0  0.14039428059E-01  0.12079878146E-02 -0.13908402634E-01  0.19805796111E-01  0.51100000000E-03 0. -1.
         11    1    4    4    0    0  0.97347102192E-01 -0.21510557662E-01 -0.45125466127E-01  0.10943368408E+00  0.51100000000E-03 0.  1.
</event>
<event>
 8    1  0.1042301E+005  0.1043930E+01  0.7957747E-01            NaN
         13   -1    0    0    0    0  0.00000000000E+00  0.00000000000E+00  0.74505805969E-08  0.10566000000E+00  0.10566000000E+00 0.  1.
     999900   -1    0    0    0    0 -0.00000000000E+00 -0.00000000000E+00 -0.74505805969E-08  0.93827000000E+00  0.93827000000E+00 0.  1.
     999902    2    1    2    0    0 -0.83669462438E-02  0.19709229968E-01 -0.12455956184E-01  0.10191588398E+01  0.10188577576E+01 0.  0.
     999903    2    3    3    0    0  0.91804252770E-01 -0.19619034670E-02 -0.89724393231E-01  0.12984769145E+00  0.19444442462E-01 0.  0.
         14    1    1    2    0    0  0.83669462438E-02 -0.19709229968E-01  0.12455956184E-01  0.24771160244E-01  0.00000000000E+00 0.  1.
     999901    1    3    3    0    0 -0.10017119901E+00  0.21671133435E-01  0.77268437046E-01  0.88931114831E+00  0.88000000000E+00 0. -1.
        -11    1    4    4    0    0  0.84461482928E-01  0.25996106910E-02 -0.76183531208E-01  0.11377474070E+00  0.51100000000E-03 0.  1.
         11    1    4    4    0    0  0.73427698419E-02 -0.45615141580E-02 -0.13540862023E-01  0.16072950746E-01  0.51100000000E-03 0. -1.
</event>
<event>
 8    1  0.1042301E+005  0.1043930E+01  0.7957747E-01            NaN
         13   -1    0    0    0    0  0.00000000000E+00  0.00000000000E+00  0.74505805969E-08  0.10566000000E+00  0.10566000000E+00 0.  1.
     999900   -1    0    0    0    0 -0.00000000000E+00 -0.00000000000E+00 -0.74505805969E-08  0.93827000000E+00  0.93827000000E+00 0.  1.
     999902    2    1    2    0    0 -0.40969712727E-02 -0.23696881622E-01  0.27251056997E-03  0.10198800180E+01  0.10195964150E+01 0.  0.
     999903    2    3    3    0    0  0.95683089453E-02 -0.94895531021E-01 -0.89518910032E-01  0.13234495572E+00  0.20120579205E-01 0.  0.
         14    1    1    2    0    0  0.40969712727E-02  0.23696881622E-01 -0.27251056997E-03  0.24049982000E-01  0.00000000000E+00 0.  1.
     999901    1    3    3    0    0 -0.13665280218E-01  0.71198649399E-01  0.89791420602E-01  0.88753506228E+00  0.88000000000E+00 0.  1.
        -11    1    4    4    0    0  0.13870532401E-01 -0.53688631483E-01 -0.58340707460E-01  0.80490745353E-01  0.51100000000E-03 0.  1.
         11    1    4    4    0    0 -0.43022234557E-02 -0.41206899538E-01 -0.31178202573E-01  0.51854210368E-01  0.51100000000E-03 0. -1.
</event>
<event>
 8    1  0.1042301E+005  0.1043930E+01  0.7957747E-01            NaN
         13   -1    0    0    0    0  0.00000000000E+00  0.00000000000E+00  0.74505805969E-08  0.10566000000E+00  0.10566000000E+00 0.  1.
     999900   -1    0    0    0    0 -0.00000000000E+00 -0.00000000000E+00 -0.74505805969E-08  0.93827000000E+00  0.93827000000E+00 0. -1.
     999902    2    1    2    0    0  0.10434248174E-01  0.14487717299E-01 -0.16189417051E-01  0.10198288649E+01  0.10195440398E+01 0.  0.
     999903    2    3    3    0    0  0.94161887707E-01 -0.15279045461E-01  0.85334269180E-01  0.12954608027E+00  0.20008475455E-01 0.  0.
         14    1    1    2    0    0 -0.10434248174E-01 -0.14487717299E-01  0.16189417051E-01  0.24101135076E-01  0.00000000000E+00 0.  1.
     999901    1    3    3    0    0 -0.83727639532E-01  0.29766762760E-01 -0.10152368623E+00  0.89028278465E+00  0.88000000000E+00 0.  1.
        -11    1    4    4    0    0  0.45189888505E-01 -0.11744141212E-01  0.53578134431E-01  0.71069884523E-01  0.51100000000E-03 0.  1.
         11    1    4    4    0    0  0.48971999202E-01 -0.35349042490E-02  0.31756134748E-01  0.58476195747E-01  0.51100000000E-03 0. -1.
</event>
<event>
 8    1  0.1042301E+005  0.1043930E+01  0.7957747E-01            NaN
         13   -1    0    0    0    0  0.00000000000E+00  0.00000000000E+00  0.74505805969E-08  0.10566000000E+00  0.10566000000E+00 0. -1.
     999900   -1    0    0    0    0 -0.00000000000E+00 -0.00000000000E+00 -0.74505805969E-08  0.93827000000E+00  0.93827000000E+00 0.  1.
     999902    2    1    2    0    0  0.11329822119E-01 -0.16756102190E-01  0.11776895852E-01  0.10205242933E+01  0.10202558533E+01 0.  0.
     999903    2    3    3    0    0 -0.18649393468E-01  0.38974710247E-01 -0.11917527064E+00  0.12858643295E+00  0.21561486345E-01 0.  0.
         14    1    1    2    0    0 -0.11329822119E-01  0.16756102190E-01 -0.11776895852E-01  0.23405706693E-01  0.00000000000E+00 0.  1.
     999901    1    3    3    0    0  0.29979215587E-01 -0.55730812437E-01  0.13095216649E+00  0.89193786035E+00  0.88000000000E+00 0. -1.
        -11    1    4    4    0    0 -0.20533215101E-01  0.29246857833E-01 -0.72034057517E-01  0.80412425525E-01  0.51100000000E-03 0. -1.
         11    1    4    4    0    0  0.18838216326E-02  0.97278524134E-02 -0.47141213119E-01  0.48174007430E-01  0.51100000000E-03 0.  1.
</event>
<event>
 8    1  0.1042301E+005  0.1043930E+01  0.7957747E-01            NaN
         13   -1    0    0    0    0  0.00000000000E+00  0.00000000000E+00  0.74505805969E-08  0.10566000000E+00  0.10566000000E+00 0.  1.
     999900   -1    0    0    0    0 -0.00000000000E+00 -0.00000000000E+00 -0.74505805969E-08  0.93827000000E+00  0.93827000000E+00 0.  1.
     999902    2    1    2    0    0  0.10629064442E-01  0.11131759300E-01  0.18497917153E-01  0.10198662095E+01  0.10195822768E+01 0.  0.
     999903    2    3    3    0    0  0.11866442145E+00 -0.49929640343E-01  0.61459424483E-03  0.13097929532E+00  0.24103613313E-01 0.  0.
         14    1    1    2    0    0 -0.10629064442E-01 -0.11131759300E-01 -0.18497917153E-01  0.24063790537E-01  0.00000000000E+00 0. -1.
     999901    1    3    3    0    0 -0.10803535701E+00  0.61061399643E-01  0.17883322908E-01  0.88888691414E+00  0.88000000000E+00 0.  1.
        -11    1    4    4    0    0  0.36077024052E-01 -0.68975988451E-02  0.78775092944E-02  0.37569200257E-01  0.51100000000E-03 0. -1.
         11    1    4    4    0    0  0.82587397396E-01 -0.43032041498E-01 -0.72629150496E-02  0.93410095066E-01  0.51100000000E-03 0.  1.
</event>
<event>
 8    1  0.1042301E+005  0.1043930E+01  0.7957747E-01            NaN
         13   -1    0    0    0    0  0.00000000000E+00  0.00000000000E+00  0.74505805969E-08  0.10566000000E+00  0.10566000000E+00 0.  1.
     999900   -1    0    0    0    0 -0.00000000000E+00 -0.00000000000E+00 -0.74505805969E-08  0.93827000000E+00  0.93827000000E+00 0. -1.
     999902    2    1    2    0    0 -0.11655311848E-01  0.21346454523E-01 -0.11329077945E-02  0.10195824972E+01  0.10192917480E+01 0.  0.
     999903    2    3    3    0    0  0.56875995568E-02  0.54179374168E-01 -0.11741216681E+00  0.13115712422E+00  0.21185394596E-01 0.  0.
         14    1    1    2    0    0  0.11655311848E-01 -0.21346454523E-01  0.11329077945E-02  0.24347502850E-01  0.00000000000E+00 0. -1.
     999901    1    3    3    0    0 -0.17342911404E-01 -0.32832919645E-01  0.11627925902E+00  0.88842537293E+00  0.88000000000E+00 0.  1.
        -11    1    4    4    0    0 -0.59656191636E-02  0.36847452338E-01 -0.80720271361E-01  0.88934507844E-01  0.51100000000E-03 0.  1.
         11    1    4    4    0    0  0.11653218720E-01  0.17331921830E-01 -0.36691895451E-01  0.42222616376E-01  0.51100000000E-03 0. -1.
</event>
<event>
 8    1  0.1042301E+005  0.1043930E+01  0.7957747E-01            NaN
         13   -1    0    0    0    0  0.00000000000E+00  0.00000000000E+00  0.74505805969E-08  0.10566000000E+00  0.10566000000E+00 0. -1.
     999900   -1    0    0    0    0 -0.00000000000E+00 -0.00000000000E+00 -0.74505805969E-08  0.93827000000E+00  0.93827000000E+00 0.  1.
     999902    2    1    2    0    0  0.85542875600E-02  0.13727970122E-03 -0.22007395993E-01  0.10203181352E+01  0.10200448896E+01 0.  0.
     999903    2    3    3    0    0  0.20767841374E-01  0.23145288852E-01 -0.12855251230E+00  0.13350902315E+00  0.18218211045E-01 0.  0.
         14    1    1    2    0    0 -0.85542875600E-02 -0.13727970122E-03  0.22007395993E-01  0.23611864809E-01  0.00000000000E+00 0.  1.
     999901    1    3    3    0    0 -0.12213553814E-01 -0.23008009151E-01  0.10654511631E+00  0.88680911204E+00  0.88000000000E+00 0. -1.
        -11    1    4    4    0    0  0.18368572797E-01  0.10297557770E-01 -0.56930046303E-01  0.60702021842E-01  0.51100000000E-03 0.  1.
         11    1    4    4    0    0  0.23992685772E-02  0.12847731082E-01 -0.71622465997E-01  0.72807001312E-01  0.51100000000E-03 0. -1.
</event>
<event>
 8    1  0.1042301E+005  0.1043930E+01  0.7957747E-01            NaN
         13   -1    0    0    0    0  0.00000000000E+00  0.00000000000E+00  0.74505805969E-08  0.10566000000E+00  0.10566000000E+00 0. -1.
     999900   -1    0    0    0    0 -0.00000000000E+00 -0.00000000000E+00 -0.74505805969E-08  0.93827000000E+00  0.93827000000E+00 0. -1.
     999902    2    1    2    0    0 -0.86069840427E-03  0.10139479093E-01  0.20809179975E-01  0.10207659803E+01  0.10205031184E+01 0.  0.
     999903    2    3    3    0    0  0.91585859991E-02 -0.83767100545E-01  0.99900645526E-01  0.13218605046E+00  0.19804194755E-01 0.  0.
         14    1    1    2    0    0  0.86069840427E-03 -0.10139479093E-01 -0.20809179975E-01  0.23164019713E-01  0.00000000000E+00 0.  1.
     999901    1    3    3    0    0 -0.10019284403E-01  0.93906579638E-01 -0.79091465550E-01  0.88857992982E+00  0.88000000000E+00 0.  1.
        -11    1    4    4    0    0 -0.15614983283E-02 -0.13220737145E-01  0.70199219992E-02  0.15058771317E-01  0.51100000000E-03 0. -1.
         11    1    4    4    0    0  0.10720084327E-01 -0.70546363399E-01  0.92880723526E-01  0.11712727915E+00  0.51100000000E-03 0.  1.
</event>
<event>
 8    1  0.1042301E+005  0.1043930E+01  0.7957747E-01            NaN
         13   -1    0    0    0    0  0.00000000000E+00  0.00000000000E+00  0.74505805969E-08  0.10566000000E+00  0.10566000000E+00 0. -1.
     999900   -1    0    0    0    0 -0.00000000000E+00 -0.00000000000E+00 -0.74505805969E-08  0.93827000000E+00  0.93827000000E+00 0. -1.
     999902    2    1    2    0    0 -0.22442813995E-01  0.63083928650E-02 -0.10131185828E-02  0.10205954306E+01  0.10203286386E+01 0.  0.
     999903    2    3    3    0    0  0.60290757042E-01 -0.93653285721E-01  0.61384286305E-01  0.12889446215E+00  0.20972326000E-01 0.  0.
         14    1    1    2    0    0  0.22442813995E-01 -0.63083928650E-02  0.10131185828E-02  0.23334569416E-01  0.00000000000E+00 0. -1.
     999901    1    3    3    0    0 -0.82733571037E-01  0.99961678586E-01 -0.62397404888E-01  0.89170096843E+00  0.88000000000E+00 0. -1.
        -11    1    4    4    0    0  0.44564484038E-01 -0.50352973034E-01  0.35090524870E-01  0.75848672945E-01  0.51100000000E-03 0. -1.
         11    1    4    4    0    0  0.15726273004E-01 -0.43300312687E-01  0.26293761435E-01  0.53045789209E-01  0.51100000000E-03 0.  1.
</event>
<event>
 8    1  0.1042301E+005  0.1043930E+01  0.7957747E-01            NaN
         13   -1    0    0    0    0  0.00000000000E+00  0.00000000000E+00  0.74505805969E-08  0.10566000000E+00  0.10566000000E+00 0.  1.
     999900   -1    0    0    0    0 -0.00000000000E+00 -0.00000000000E+00 -0.74505805969E-08  0.93827000000E+00  0.93827000000E+00 0. -1.
     999902    2    1    2    0    0  0.18356616358E-01  0.55190867856E-02  0.97298273336E-02  0.10224335998E+01  0.10222075967E+01 0.  0.
     999903    2    3    3    0    0 -0.51272300668E-01  0.11924608040E+00  0.15635272299E-01  0.13236793396E+00  0.20696175883E-01 0.  0.
         14    1    1    2    0    0 -0.18356616358E-01 -0.55190867856E-02 -0.97298273336E-02  0.21496400234E-01  0.00000000000E+00 0.  1.
     999901    1    3    3    0    0  0.69628917026E-01 -0.11372699361E+00 -0.59054449656E-02  0.89006566580E+00  0.88000000000E+00 0.  1.
        -11    1    4    4    0    0 -0.20926772841E-01  0.59410507513E-01  0.17061643224E-01  0.65260240691E-01  0.51100000000E-03 0. -1.
         11    1    4    4    0    0 -0.30345527826E-01  0.59835572882E-01 -0.14263709252E-02  0.67107693272E-01  0.51100000000E-03 0.  1.
</event>
<event>
 8    1  0.1042301E+005  0.1043930E+01  0.7957747E-01            NaN
         13   -1    0    0    0    0  0.00000000000E+00  0.00000000000E+00  0.74505805969E-08  0.10566000000E+00  0.10566000000E+00 0. -1.
     999900   -1    0    0    0    0 -0.00000000000E+00 -0.00000000000E+00 -0.74505805969E-08  0.93827000000E+00  0.93827000000E+00 0. -1.
     999902    2    1    2    0    0  0.94719036598E-02 -0.97141709439E-02 -0.19152307076E-01  0.10204588913E+01  0.10201889315E+01 0.  0.
     999903    2    3    3    0    0 -0.99143517254E-01 -0.71714646979E-01 -0.42300684643E-01  0.13131479948E+00  0.21949966633E-01 0.  0.
         14    1    1    2    0    0 -0.94719036598E-02  0.97141709439E-02  0.19152307076E-01  0.23471108674E-01  0.00000000000E+00 0. -1.
     999901    1    3    3    0    0  0.10861542091E+00  0.62000476035E-01  0.23148377567E-01  0.88914409185E+00  0.88000000000E+00 0.  1.
        -11    1    4    4    0    0 -0.54584840145E-01 -0.45622630631E-01 -0.34584723125E-01  0.79103055529E-01  0.51100000000E-03 0. -1.
         11    1    4    4    0    0 -0.44558677108E-01 -0.26092016348E-01 -0.77159615177E-02  0.52211743946E-01  0.51100000000E-03 0.  1.
</event>
<event>
 8    1  0.1042301E+005  0.1043930E+01  0.7957747E-01            NaN
         13   -1    0    0    0    0  0.00000000000E+00  0.00000000000E+00  0.74505805969E-08  0.10566000000E+00  0.10566000000E+00 0.  1.
     999900   -1    0    0    0    0 -0.00000000000E+00 -0.00000000000E+00 -0.74505805969E-08  0.93827000000E+00  0.93827000000E+00 0.  1.
     999902    2    1    2    0    0  0.86318949871E-02 -0.54454597039E-02  0.23842532661E-01  0.10179949078E+01  0.10176644847E+01 0.  0.
     999903    2    3    3    0    0 -0.10673198840E-01 -0.64469193313E-01 -0.10626992799E+00  0.12626303097E+00  0.19464360624E-01 0.  0.
         14    1    1    2    0    0 -0.86318949871E-02  0.54454597039E-02 -0.23842532661E-01  0.25935092175E-01  0.00000000000E+00 0. -1.
     999901    1    3    3    0    0  0.19305093827E-01  0.59023733609E-01  0.13011246066E+00  0.89173187685E+00  0.88000000000E+00 0.  1.
        -11    1    4    4    0    0  0.31519673693E-02 -0.36747331158E-01 -0.51666424108E-01  0.63482137225E-01  0.51100000000E-03 0.  1.
         11    1    4    4    0    0 -0.13825166209E-01 -0.27721862155E-01 -0.54603503886E-01  0.62780893747E-01  0.51100000000E-03 0. -1.
</event>
<event>
 8    1  0.1042301E+005  0.1043930E+01  0.7957747E-01            NaN
         13   -1    0    0    0    0  0.00000000000E+00  0.00000000000E+00  0.74505805969E-08  0.10566000000E+00  0.10566000000E+00 0. -1.
     999900   -1    0    0    0    0 -0.00000000000E+00 -0.00000000000E+00 -0.74505805969E-08  0.93827000000E+00  0.93827000000E+00 0. -1.
     999902    2    1    2    0    0  0.25985864319E-01  0.52847887737E-02 -0.15525414610E-01  0.10132016314E+01  0.10127355594E+01 0.  0.
     999903    2    3    3    0    0 -0.40721289903E-01 -0.11046643603E+00 -0.17017848944E-01  0.12311713103E+00  0.31735844575E-01 0.  0.
         14    1    1    2    0    0 -0.25985864319E-01 -0.52847887737E-02  0.15525414610E-01  0.30728368580E-01  0.00000000000E+00 0. -1.
     999901    1    3    3    0    0  0.66707154222E-01  0.11575122480E+00  0.14924343343E-02  0.89008450039E+00  0.88000000000E+00 0. -1.
        -11    1    4    4    0    0 -0.32511256688E-02 -0.44741422523E-01 -0.15434440295E-01  0.47443100402E-01  0.51100000000E-03 0. -1.
         11    1    4    4    0    0 -0.37470164234E-01 -0.65725013506E-01 -0.15834086492E-02  0.75674030632E-01  0.51100000000E-03 0.  1.
</event>
<event>
 8    1  0.1042301E+005  0.1043930E+01  0.7957747E-01            NaN
         13   -1    0    0    0    0  0.00000000000E+00  0.00000000000E+00  0.74505805969E-08  0.10566000000E+00  0.10566000000E+00 0.  1.
     999900   -1    0    0    0    0 -0.00000000000E+00 -0.00000000000E+00 -0.74505805969E-08  0.93827000000E+00  0.93827000000E+00 0.  1.
     999902    2    1    2    0    0  0.64306143753E-02  0.21058272859E-01 -0.10354022119E-01  0.10195987561E+01  0.10193083998E+01 0.  0.
     999903    2    3    3    0    0  0.12305603568E+00 -0.21825294995E-01  0.29949047557E-01  0.12995566656E+00  0.19297626864E-01 0.  0.
         14    1    1    2    0    0 -0.64306143753E-02 -0.21058272859E-01  0.10354022119E-01  0.24331243928E-01  0.00000000000E+00 0.  1.
     999901    1    3    3    0    0 -0.11662542131E+00  0.42883567854E-01 -0.40303069676E-01  0.88964308951E+00  0.88000000000E+00 0. -1.
        -11    1    4    4    0    0  0.52932839843E-01 -0.45002003003E-02  0.42862132923E-02  0.53298875053E-01  0.51100000000E-03 0. -1.
         11    1    4    4    0    0  0.70123195839E-01 -0.17325094694E-01  0.25662834265E-01  0.76656791509E-01  0.51100000000E-03 0.  1.
</event>
<event>
 8    1  0.1042301E+005  0.1043930E+01  0.7957747E-01            NaN
         13   -1    0    0    0    0  0.00000000000E+00  0.00000000000E+00  0.74505805969E-08  0.10566000000E+00  0.10566000000E+00 0. -1.
     999900   -1    0    0    0    0 -0.00000000000E+00 -0.00000000000E+00 -0.74505805969E-08  0.93827000000E+00  0.93827000000E+00 0.  1.
     999902    2    1    2    0    0  0.10408829329E-01  0.20819647760E-01  0.11732728706E-01  0.10178635775E+01  0.10175297558E+01 0.  0.
     999903    2    3    3    0    0 -0.63267872511E-01 -0.62197935978E-01 -0.86640187619E-01  0.12545256999E+00  0.18984685243E-01 0.  0.
         14    1    1    2    0    0 -0.10408829329E-01 -0.20819647760E-01 -0.11732728706E-01  0.26066422534E-01  0.00000000000E+00 0.  1.
     999901    1    3    3    0    0  0.73676701839E-01  0.83017583738E-01  0.98372916324E-01  0.89241100748E+00  0.88000000000E+00 0. -1.
        -11    1    4    4    0    0 -0.56639872585E-01 -0.52799904946E-01 -0.82679636805E-01  0.11327880910E+00  0.51100000000E-03 0.  1.
         11    1    4    4    0    0 -0.66279999252E-02 -0.93980310322E-02 -0.39605508138E-02  0.12173760883E-01  0.51100000000E-03 0. -1.
</event>
<event>
 8    1  0.1042301E+005  0.1043930E+01  0.7957747E-01            NaN
         13   -1    0    0    0    0  0.00000000000E+00  0.00000000000E+00  0.74505805969E-08  0.10566000000E+00  0.10566000000E+00 0. -1.
     999900   -1    0    0    0    0 -0.00000000000E+00 -0.00000000000E+00 -0.74505805969E-08  0.93827000000E+00  0.93827000000E+00 0.  1.
     999902    2    1    2    0    0 -0.98650708007E-02 -0.21945451556E-01 -0.88363171086E-02  0.10182979309E+01  0.10179752812E+01 0.  0.
     999903    2    3    3    0    0  0.31201721146E-01 -0.24556865286E-01 -0.12218960509E+00  0.13007370878E+00  0.20304755333E-01 0.  0.
         14    1    1    2    0    0  0.98650708007E-02  0.21945451556E-01  0.88363171086E-02  0.25632069092E-01  0.00000000000E+00 0. -1.
     999901    1    3    3    0    0 -0.41066791947E-01  0.26114137304E-02  0.11335328798E+00  0.88822422213E+00  0.88000000000E+00 0. -1.
        -11    1    4    4    0    0  0.14335942850E-01 -0.75765994768E-02 -0.79425777049E-01  0.81065648076E-01  0.51100000000E-03 0.  1.
         11    1    4    4    0    0  0.16865778296E-01 -0.16980265809E-01 -0.42763828037E-01  0.49008060703E-01  0.51100000000E-03 0. -1.
</event>
<event>
 8    1  0.1042301E+005  0.1043930E+01  0.7957747E-01            NaN
         13   -1    0    0    0    0  0.00000000000E+00  0.00000000000E+00  0.74505805969E-08  0.10566000000E+00  0.10566000000E+00 0.  1.
     999900   -1    0    0    0    0 -0.00000000000E+00 -0.00000000000E+00 -0.74505805969E-08  0.93827000000E+00  0.93827000000E+00 0. -1.
     999902    2    1    2    0    0  0.12827444136E-01 -0.19376599810E-01 -0.82812728593E-02  0.10192606785E+01  0.10189620971E+01 0.  0.
     999903    2    3    3    0    0  0.12060338889E+00  0.44952177349E-01 -0.30843648363E-02  0.13033950444E+00  0.20322338684E-01 0.  0.
         14    1    1    2    0    0 -0.12827444136E-01  0.19376599810E-01  0.82812728593E-02  0.24669321504E-01  0.00000000000E+00 0. -1.
     999901    1    3    3    0    0 -0.10777594476E+00 -0.64328777160E-01 -0.51969080230E-02  0.88892117406E+00  0.88000000000E+00 0.  1.
        -11    1    4    4    0    0  0.91101061384E-01  0.24302401338E-01 -0.22696855397E-02  0.94315548503E-01  0.51100000000E-03 0.  1.
         11    1    4    4    0    0  0.29502327509E-01  0.20649776011E-01 -0.81467929663E-03  0.36023955933E-01  0.51100000000E-03 0. -1.
</event>
<event>
 8    1  0.1042301E+005  0.1043930E+01  0.7957747E-01            NaN
         13   -1    0    0    0    0  0.00000000000E+00  0.00000000000E+00  0.74505805969E-08  0.10566000000E+00  0.10566000000E+00 0. -1.
     999900   -1    0    0    0    0 -0.00000000000E+00 -0.00000000000E+00 -0.74505805969E-08  0.93827000000E+00  0.93827000000E+00 0. -1.
     999902    2    1    2    0    0 -0.53735570392E-02  0.66269486078E-02 -0.22152997789E-01  0.10201908578E+01  0.10199146236E+01 0.  0.
     999903    2    3    3    0    0  0.12205484856E+00  0.37716291879E-01  0.15126394122E-01  0.12968858439E+00  0.16444342244E-01 0.  0.
         14    1    1    2    0    0  0.53735570392E-02 -0.66269486078E-02  0.22152997789E-01  0.23739142237E-01  0.00000000000E+00 0. -1.
     999901    1    3    3    0    0 -0.12742840560E+00 -0.31089343271E-01 -0.37279391912E-01  0.89050227337E+00  0.88000000000E+00 0. -1.
        -11    1    4    4    0    0  0.24686767186E-01  0.44620410516E-02  0.88460749715E-02  0.26605646917E-01  0.51100000000E-03 0.  1.
         11    1    4    4    0    0  0.97368081375E-01  0.33254250828E-01  0.62803191507E-02  0.10308293747E+00  0.51100000000E-03 0. -1.
</event>
<event>
 8    1  0.1042301E+005  0.1043930E+01  0.7957747E-01            NaN
         13   -1    0    0    0    0  0.00000000000E+00  0.00000000000E+00  0.74505805969E-08  0.10566000000E+00  0.10566000000E+00 0.  1.
     999900   -1    0    0    0    0 -0.00000000000E+00 -0.00000000000E+00 -0.74505805969E-08  0.93827000000E+00  0.93827000000E+00 0.  1.
     999902    2    1    2    0    0  0.27805326616E-02 -0.23028463844E-01  0.54350139231E-02  0.10201060439E+01  0.10198278089E+01 0.  0.
     999903    2    3    3    0    0  0.60913186403E-01  0.50735817928E-01  0.10145206975E+00  0.12991513755E+00  0.17345922031E-01 0.  0.
         14    1    1    2    0    0 -0.27805326616E-02  0.23028463844E-01 -0.54350139231E-02  0.23823956120E-01  0.00000000000E+00 0.  1.
     999901    1    3    3    0    0 -0.58132653742E-01 -0.73764281772E-01 -0.96017055823E-01  0.89019090633E+00  0.88000000000E+00 0.  1.
        -11    1    4    4    0    0  0.17783560230E-01  0.21461845072E-01  0.46157099318E-01  0.53922210144E-01  0.51100000000E-03 0.  1.
         11    1    4    4    0    0  0.43129626173E-01  0.29273972856E-01  0.55294970428E-01  0.75992927410E-01  0.51100000000E-03 0. -1.
</event>
<event>
 8    1  0.1042301E+005  0.1043930E+01  0.7957747E-01            NaN
         13   -1    0    0    0    0  0.00000000000E+00  0.00000000000E+00  0.74505805969E-08  0.10566000000E+00  0.10566000000E+00 0.  1.
     999900   -1    0    0    0    0 -0.00000000000E+00 -0.00000000000E+00 -0.74505805969E-08  0.93827000000E+00  0.93827000000E+00 0.  1.
     999902    2    1    2    0    0  0.15218875026E-01 -0.28476004067E-02 -0.16187169947E-01  0.10215302800E+01  0.10212846643E+01 0.  0.
     999903    2    3    3    0    0 -0.45079692873E-02  0.27986248167E-01  0.12479222624E+00  0.12955771049E+00  0.20212588754E-01 0.  0.
         14    1    1    2    0    0 -0.15218875026E-01  0.28476004067E-02  0.16187169947E-01  0.22399719999E-01  0.00000000000E+00 0.  1.
     999901    1    3    3    0    0  0.19726844314E-01 -0.30833848574E-01 -0.14097939619E+00  0.89197256951E+00  0.88000000000E+00 0.  1.
        -11    1    4    4    0    0 -0.42226050800E-02  0.30808102903E-02  0.58562898088E-01  0.58797924616E-01  0.51100000000E-03 0.  1.
         11    1    4    4    0    0 -0.28536420731E-03  0.24905437877E-01  0.66229328155E-01  0.70759785877E-01  0.51100000000E-03 0. -1.
</event>
<event>
 8    1  0.1042301E+005  0.1043930E+01  0.7957747E-01            NaN
         13   -1    0    0    0    0  0.00000000000E+00  0.00000000000E+00  0.74505805969E-08  0.10566000000E+00  0.10566000000E+00 0.  1.
     999900   -1    0    0    0    0 -0.00000000000E+00 -0.00000000000E+00 -0.74505805969E-08  0.93827000000E+00  0.93827000000E+00 0. -1.
     999902    2    1    2    0    0 -0.18964063133E-01 -0.22833459944E-02  0.13535010225E-01  0.10205196207E+01  0.10202510722E+01 0.  0.
     999903    2    3    3    0    0  0.11053733904E+00 -0.31018365474E-01 -0.52903051830E-01  0.12810137196E+00  0.20750573166E-01 0.  0.
         14    1    1    2    0    0  0.18964063133E-01  0.22833459944E-02 -0.13535010225E-01  0.23410379348E-01  0.00000000000E+00 0. -1.
     999901    1    3    3    0    0 -0.12950140217E+00  0.28735019479E-01  0.66438062055E-01  0.89241824869E+00  0.88000000000E+00 0.  1.
        -11    1    4    4    0    0  0.10062210220E+00 -0.21722782881E-01 -0.48591439592E-01  0.11383354457E+00  0.51100000000E-03 0. -1.
         11    1    4    4    0    0  0.99152368413E-02 -0.92955825920E-02 -0.43116122386E-02  0.14267827390E-01  0.51100000000E-03 0.  1.
</event>
<event>
 8    1  0.1042301E+005  0.1043930E+01  0.7957747E-01            NaN
         13   -1    0    0    0    0  0.00000000000E+00  0.00000000000E+00  0.74505805969E-08  0.10566000000E+00  0.10566000000E+00 0. -1.
     999900   -1    0    0    0    0 -0.00000000000E+00 -0.00000000000E+00 -0.74505805969E-08  0.93827000000E+00  0.93827000000E+00 0. -1.
     999902    2    1    2    0    0 -0.21198315389E-01 -0.95206348240E-02 -0.91772024456E-02  0.10189453626E+01  0.10186390037E+01 0.  0.
     999903    2    3    3    0    0  0.29179260847E-01 -0.33280384331E-01 -0.12080331597E+00  0.13014683922E+00  0.19640401383E-01 0.  0.
         14    1    1    2    0    0  0.21198315389E-01  0.95206348240E-02  0.91772024456E-02  0.24984637430E-01  0.00000000000E+00 0.  1.
     999901    1    3    3    0    0 -0.50377576236E-01  0.23759749507E-01  0.11162611352E+00  0.88879852335E+00  0.88000000000E+00 0. -1.
        -11    1    4    4    0    0  0.21156465214E-02 -0.16022166721E-01 -0.45442751676E-01  0.48233708001E-01  0.51100000000E-03 0. -1.
         11    1    4    4    0    0  0.27063614325E-01 -0.17258217609E-01 -0.75360564290E-01  0.81913131222E-01  0.51100000000E-03 0.  1.
</event>
<event>
 8    1  0.1042301E+005  0.1043930E+01  0.7957747E-01            NaN
         13   -1    0    0    0    0  0.00000000000E+00  0.00000000000E+00  0.74505805969E-08  0.10566000000E+00  0.10566000000E+00 0.  1.
     999900   -1    0    0    0    0 -0.00000000000E+00 -0.00000000000E+00 -0.74505805969E-08  0.93827000000E+00  0.93827000000E+00 0. -1.
     999902    2    1    2    0    0 -0.13137205321E-01  0.13267320614E-01 -0.13521965447E-01  0.10208767679E+01  0.10206164430E+01 0.  0.
     999903    2    3    3    0    0 -0.47617225443E-01  0.11287369230E-01  0.11906158234E+00  0.13027517959E+00  0.20028908227E-01 0.  0.
         14    1    1    2    0    0  0.13137205321E-01 -0.13267320614E-01  0.13521965447E-01  0.23053232082E-01  0.00000000000E+00 0.  1.
     999901    1    3    3    0    0  0.34480020122E-01  0.19799513838E-02 -0.13258354778E+00  0.89060158833E+00  0.88000000000E+00 0. -1.
        -11    1    4    4    0    0 -0.32511233013E-01 -0.12770794080E-02  0.63740098510E-01  0.71565861155E-01  0.51100000000E-03 0.  1.
         11    1    4    4    0    0 -0.15105992430E-01  0.12564448638E-01  0.55321483827E-01  0.58709318431E-01  0.51100000000E-03 0. -1.
</event>
<event>
 8    1  0.1042301E+005  0.1043930E+01  0.7957747E-01            NaN
         13   -1    0    0    0    0  0.00000000000E+00  0.00000000000E+00  0.74505805969E-08  0.10566000000E+00  0.10566000000E+00 0.  1.
     999900   -1    0    0    0    0 -0.00000000000E+00 -0.00000000000E+00 -0.74505805969E-08  0.93827000000E+00  0.93827000000E+00 0. -1.
     999902    2    1    2    0    0  0.15433377876E-02  0.12456448788E-01 -0.19865834107E-01  0.10204311410E+01  0.10201605350E+01 0.  0.
     999903    2    3    3    0    0 -0.11400735202E+00 -0.20106543245E-01  0.54101723942E-01  0.12920529423E+00  0.19106599053E-01 0.  0.
         14    1    1    2    0    0 -0.15433377876E-02 -0.12456448788E-01  0.19865834107E-01  0.23498858966E-01  0.00000000000E+00 0.  1.
     999901    1    3    3    0    0  0.11555068981E+00  0.32562992033E-01 -0.73967558049E-01  0.89122584680E+00  0.88000000000E+00 0. -1.
        -11    1    4    4    0    0 -0.52832521144E-01 -0.15333530477E-01  0.33812924750E-01  0.64575285121E-01  0.51100000000E-03 0.  1.
         11    1    4    4    0    0 -0.61174830878E-01 -0.47730127688E-02  0.20288799192E-01  0.64630009110E-01  0.51100000000E-03 0. -1.
</event>
<event>
 8    1  0.1042301E+005  0.1043930E+01  0.7957747E-01            NaN
         13   -1    0    0    0    0  0.00000000000E+00  0.00000000000E+00  0.74505805969E-08  0.10566000000E+00  0.10566000000E+00 0. -1.
     999900   -1    0    0    0    0 -0.00000000000E+00 -0.00000000000E+00 -0.74505805969E-08  0.93827000000E+00  0.93827000000E+00 0. -1.
     999902    2    1    2    0    0  0.57841109776E-02 -0.19250544426E-01  0.11326157713E-01  0.10208579119E+01  0.10205971561E+01 0.  0.
     999903    2    3    3    0    0  0.49448071617E-01  0.96605243321E-01  0.71318150239E-01  0.13016821051E+00  0.89330649166E-02 0.  0.
         14    1    1    2    0    0 -0.57841109776E-02  0.19250544426E-01 -0.11326157713E-01  0.23072088095E-01  0.00000000000E+00 0.  1.
     999901    1    3    3    0    0 -0.43663960640E-01 -0.11585578775E+00 -0.59991992526E-01  0.89068970140E+00  0.88000000000E+00 0.  1.
        -11    1    4    4    0    0  0.31451729422E-01  0.59029727116E-01  0.38905724774E-01  0.77379819773E-01  0.51100000000E-03 0. -1.
         11    1    4    4    0    0  0.17996342196E-01  0.37575516205E-01  0.32412425465E-01  0.52788390732E-01  0.51100000000E-03 0.  1.
</event>
<event>
 8    1  0.1042301E+005  0.1043930E+01  0.7957747E-01            NaN
         13   -1    0    0    0    0  0.00000000000E+00  0.00000000000E+00  0.74505805969E-08  0.10566000000E+00  0.10566000000E+00 0.  1.
     999900   -1    0    0    0    0 -0.00000000000E+00 -0.00000000000E+00 -0.74505805969E-08  0.93827000000E+00  0.93827000000E+00 0.  1.
     999902    2    1    2    0    0  0.22777961939E-01 -0.88962986312E-02 -0.35526077791E-02  0.10192196641E+01  0.10189200768E+01 0.  0.
     999903    2    3    3    0    0 -0.12254381508E+00  0.21955138682E-01 -0.10618709851E-01  0.12673988287E+00  0.21242085203E-01 0.  0.
         14    1    1    2    0    0 -0.22777961939E-01  0.88962986312E-02  0.35526077791E-02  0.24710335924E-01  0.00000000000E+00 0. -1.
     999901    1    3    3    0    0  0.14532177701E+00 -0.30851437313E-01  0.70661020722E-02  0.89247978120E+00  0.88000000000E+00 0.  1.
        -11    1    4    4    0    0 -0.92558404312E-01  0.20121475804E-01 -0.16433434499E-01  0.96136626152E-01  0.51100000000E-03 0.  1.
         11    1    4    4    0    0 -0.29985410763E-01  0.18336628777E-02  0.58147246475E-02  0.30603256721E-01  0.51100000000E-03 0. -1.
</event>
<event>
 8    1  0.1042301E+005  0.1043930E+01  0.7957747E-01            NaN
         13   -1    0    0    0    0  0.00000000000E+00  0.00000000000E+00  0.74505805969E-08  0.10566000000E+00  0.10566000000E+00 0.  1.
     999900   -1    0    0    0    0 -0.00000000000E+00 -0.00000000000E+00 -0.74505805969E-08  0.93827000000E+00  0.93827000000E+00 0. -1.
     999902    2    1    2    0    0 -0.30115130448E-02  0.19862402826E-01  0.10039278520E-01  0.10214717861E+01  0.10212248717E+01 0.  0.
     999903    2    3    3    0    0 -0.61299358823E-01 -0.65427546107E-01 -0.91401541859E-01  0.12964103515E+00  0.20351436313E-01 0.  0.
         14    1    1    2    0    0  0.30115130448E-02 -0.19862402826E-01 -0.10039278520E-01  0.22458213866E-01  0.00000000000E+00 0. -1.
     999901    1    3    3    0    0  0.58287845778E-01  0.85289948933E-01  0.10144082038E+00  0.89183075098E+00  0.88000000000E+00 0.  1.
        -11    1    4    4    0    0 -0.99344301112E-02 -0.20109422162E-02 -0.12786869515E-01  0.16324887234E-01  0.51100000000E-03 0. -1.
         11    1    4    4    0    0 -0.51364928712E-01 -0.63416603890E-01 -0.78614672344E-01  0.11331614792E+00  0.51100000000E-03 0.  1.
</event>
<event>
 8    1  0.1089107E+005  0.1043930E+01  0.7957747E-01            NaN
         13   -1    0    0    0    0  0.00000000000E+00  0.00000000000E+00  0.74505805969E-08  0.10566000000E+00  0.10566000000E+00 0. -1.
     999900   -1    0    0    0    0 -0.00000000000E+00 -0.00000000000E+00 -0.74505805969E-08  0.93827000000E+00  0.93827000000E+00 0. -1.
     999902    2    1    2    0    0 -0.82341221394E-02 -0.18134675457E-01  0.11790680694E-01  0.10207850789E+01  0.10205226553E+01 0.  0.
     999903    2    3    3    0    0  0.34081797297E-01  0.27349794366E-01  0.12257793201E+00  0.13166568923E+00  0.20023090306E-01 0.  0.
         14    1    1    2    0    0  0.82341221394E-02  0.18134675457E-01 -0.11790680694E-01  0.23144921097E-01  0.00000000000E+00 0.  1.
     999901    1    3    3    0    0 -0.42315919436E-01 -0.45484469823E-01 -0.11078725132E+00  0.88911938967E+00  0.88000000000E+00 0. -1.
        -11    1    4    4    0    0  0.25164412565E-01  0.27882517637E-01  0.83236740064E-01  0.91319759455E-01  0.51100000000E-03 0. -1.
         11    1    4    4    0    0  0.89173847318E-02 -0.53272327087E-03  0.39341191950E-01  0.40345929777E-01  0.51100000000E-03 0.  1.
</event>
<event>
 8    1  0.1149251E+005  0.1043930E+01  0.7957747E-01            NaN
         13   -1    0    0    0    0  0.00000000000E+00  0.00000000000E+00  0.74505805969E-08  0.10566000000E+00  0.10566000000E+00 0. -1.
     999900   -1    0    0    0    0 -0.00000000000E+00 -0.00000000000E+00 -0.74505805969E-08  0.93827000000E+00  0.93827000000E+00 0.  1.
     999902    2    1    2    0    0  0.29686534127E-02  0.15248742503E-01  0.17541803482E-01  0.10204981430E+01  0.10202290959E+01 0.  0.
     999903    2    3    3    0    0 -0.12096997300E+00  0.43248015125E-01  0.20259446603E-01  0.13136815931E+00  0.18520878100E-01 0.  0.
         14    1    1    2    0    0 -0.29686534127E-02 -0.15248742503E-01 -0.17541803482E-01  0.23431856956E-01  0.00000000000E+00 0.  1.
     999901    1    3    3    0    0  0.12393862641E+00 -0.27999272622E-01 -0.27176431214E-02  0.88912998373E+00  0.88000000000E+00 0.  1.
        -11    1    4    4    0    0 -0.62885352691E-01  0.12836126373E-01  0.82736930338E-02  0.64715136102E-01  0.51100000000E-03 0. -1.
         11    1    4    4    0    0 -0.58084620307E-01  0.30411888752E-01  0.11985753570E-01  0.66653023212E-01  0.51100000000E-03 0.  1.
</event>
