<event>
 8    1  0.1088270E+005  0.1043930E+01  0.7957747E-01            NaN
         13   -1    0    0    0    0  0.00000000000E+00  0.00000000000E+00  0.74505805969E-08  0.10566000000E+00  0.10566000000E+00 0. -1.
     999900   -1    0    0    0    0 -0.00000000000E+00 -0.00000000000E+00 -0.74505805969E-08  0.93827000000E+00  0.93827000000E+00 0.  1.
     999902    2    1    2    0    0 -0.31763462100E-02  0.15466537634E-01  0.16932436526E-01  0.10207781023E+01  0.10205155186E+01 0.  0.
     999903    2    3    3    0    0  0.55941643077E-01 -0.90888205846E-01  0.72308901323E-01  0.13068101714E+00  0.21420028870E-01 0.  0.
         14    1    1    2    0    0  0.31763462100E-02 -0.15466537634E-01 -0.16932436526E-01  0.23151897727E-01  0.00000000000E+00 0.  1.
     999901    1    3    3    0    0 -0.59117989287E-01  0.10635474348E+00 -0.55376464797E-01  0.89009708514E+00  0.88000000000E+00 0. -1.
        -11    1    4    4    0    0  0.96311754085E-02 -0.33392427374E-01  0.18942070632E-01  0.39583796010E-01  0.51100000000E-03 0.  1.
         11    1    4    4    0    0  0.46310467668E-01 -0.57495778472E-01  0.53366830692E-01  0.91097221126E-01  0.51100000000E-03 0. -1.
</event>
<event>
 8    1  0.1088270E+005  0.1043930E+01  0.7957747E-01            NaN
         13   -1    0    0    0    0  0.00000000000E+00  0.00000000000E+00  0.74505805969E-08  0.10566000000E+00  0.10566000000E+00 0.  1.
     999900   -1    0    0    0    0 -0.00000000000E+00 -0.00000000000E+00 -0.74505805969E-08  0.93827000000E+00  0.93827000000E+00 0. -1.
     999902    2    1    2    0    0 -0.48897092088E-03  0.13744939424E-01 -0.19088228618E-01  0.10204029321E+01  0.10201316684E+01 0.  0.
     999903    2    3    3    0    0 -0.17228116924E-01 -0.11181148496E+00 -0.61519440146E-01  0.13032146255E+00  0.20010644812E-01 0.  0.
         14    1    1    2    0    0  0.48897092088E-03 -0.13744939424E-01  0.19088228618E-01  0.23527067903E-01  0.00000000000E+00 0. -1.
     999901    1    3    3    0    0  0.16739146003E-01  0.12555642438E+00  0.42431211528E-01  0.89008146954E+00  0.88000000000E+00 0.  1.
        -11    1    4    4    0    0 -0.11123551647E-01 -0.30591168597E-01 -0.25058200209E-01  0.41081960957E-01  0.51100000000E-03 0. -1.
         11    1    4    4    0    0 -0.61045652767E-02 -0.81220316359E-01 -0.36461239937E-01  0.89239501597E-01  0.51100000000E-03 0.  1.
</event>
<event>
 8    1  0.1088270E+005  0.1043930E+01  0.7957747E-01            NaN
         13   -1    0    0    0    0  0.00000000000E+00  0.00000000000E+00  0.74505805969E-08  0.10566000000E+00  0.10566000000E+00 0. -1.
     999900   -1    0    0    0    0 -0.00000000000E+00 -0.00000000000E+00 -0.74505805969E-08  0.93827000000E+00  0.93827000000E+00 0. -1.
     999902    2    1    2    0    0 -0.20019642231E-01  0.12377069272E-02  0.13095436188E-01  0.10199757010E+01  0.10196943768E+01 0.  0.
     999903    2    3    3    0    0  0.10314765888E+00  0.19933308239E-01  0.72474161942E-01  0.12922009888E+00  0.20212706297E-01 0.  0.
         14    1    1    2    0    0  0.20019642231E-01 -0.12377069272E-02 -0.13095436188E-01  0.23954299039E-01  0.00000000000E+00 0.  1.
     999901    1    3    3    0    0 -0.12316730111E+00 -0.18695601312E-01 -0.59378725753E-01  0.89075560208E+00  0.88000000000E+00 0. -1.
        -11    1    4    4    0    0  0.45597833064E-02  0.23403472009E-02  0.98212837467E-02  0.11089976747E-01  0.51100000000E-03 0. -1.
         11    1    4    4    0    0  0.98587875570E-01  0.17592961038E-01  0.62652878195E-01  0.11813012213E+00  0.51100000000E-03 0.  1.
</event>
<event>
 8    1  0.1088270E+005  0.1043930E+01  0.7957747E-01            NaN
         13   -1    0    0    0    0  0.00000000000E+00  0.00000000000E+00  0.74505805969E-08  0.10566000000E+00  0.10566000000E+00 0. -1.
     999900   -1    0    0    0    0 -0.00000000000E+00 -0.00000000000E+00 -0.74505805969E-08  0.93827000000E+00  0.93827000000E+00 0.  1.
     999902    2    1    2    0    0 -0.22514453334E-02 -0.24257663520E-01  0.51079411779E-02  0.10190383486E+01  0.10187342939E+01 0.  0.
     999903    2    3    3    0    0  0.61534945417E-01 -0.31805673423E-01 -0.10801132056E+00  0.12947573504E+00  0.17302318525E-01 0.  0.
         14    1    1    2    0    0  0.22514453334E-02  0.24257663520E-01 -0.51079411779E-02  0.24891651384E-01  0.00000000000E+00 0. -1.
     999901    1    3    3    0    0 -0.63786390751E-01  0.75480099029E-02  0.11311926173E+00  0.88956261358E+00  0.88000000000E+00 0. -1.
        -11    1    4    4    0    0  0.27901226623E-01 -0.50967824033E-02 -0.40031298998E-01  0.49063445236E-01  0.51100000000E-03 0. -1.
         11    1    4    4    0    0  0.33633718794E-01 -0.26708891020E-01 -0.67980021557E-01  0.80412289803E-01  0.51100000000E-03 0.  1.
</event>
<event>
 8    1  0.1088270E+005  0.1043930E+01  0.7957747E-01            NaN
         13   -1    0    0    0    0  0.00000000000E+00  0.00000000000E+00  0.74505805969E-08  0.10566000000E+00  0.10566000000E+00 0.  1.
     999900   -1    0    0    0    0 -0.00000000000E+00 -0.00000000000E+00 -0.74505805969E-08  0.93827000000E+00  0.93827000000E+00 0. -1.
     999902    2    1    2    0    0 -0.11785452318E-01 -0.17103889362E-01  0.11235894816E-01  0.10203146395E+01  0.10200413121E+01 0.  0.
     999903    2    3    3    0    0 -0.39547121030E-01 -0.29680398686E-01  0.12157473582E+00  0.13290067826E+00  0.20911074645E-01 0.  0.
         14    1    1    2    0    0  0.11785452318E-01  0.17103889362E-01 -0.11235894816E-01  0.23615360466E-01  0.00000000000E+00 0. -1.
     999901    1    3    3    0    0  0.27761668712E-01  0.12576509324E-01 -0.11033884101E+00  0.88741396128E+00  0.88000000000E+00 0. -1.
        -11    1    4    4    0    0 -0.30584351709E-01 -0.10231741402E-01  0.71747801981E-01  0.78664472995E-01  0.51100000000E-03 0.  1.
         11    1    4    4    0    0 -0.89627693210E-02 -0.19448657284E-01  0.49826933841E-01  0.54236205260E-01  0.51100000000E-03 0. -1.
</event>
<event>
 8    1  0.1088270E+005  0.1043930E+01  0.7957747E-01            NaN
         13   -1    0    0    0    0  0.00000000000E+00  0.00000000000E+00  0.74505805969E-08  0.10566000000E+00  0.10566000000E+00 0. -1.
     999900   -1    0    0    0    0 -0.00000000000E+00 -0.00000000000E+00 -0.74505805969E-08  0.93827000000E+00  0.93827000000E+00 0.  1.
     999902    2    1    2    0    0  0.16064668964E-01 -0.66071955192E-02 -0.18942544348E-01  0.10182288598E+01  0.10179044466E+01 0.  0.
     999903    2    3    3    0    0 -0.11906174461E+00 -0.21905913547E-01 -0.35638381100E-01  0.12762684465E+00  0.19051225362E-01 0.  0.
         14    1    1    2    0    0 -0.16064668964E-01  0.66071955192E-02  0.18942544348E-01  0.25701140207E-01  0.00000000000E+00 0. -1.
     999901    1    3    3    0    0  0.13512641358E+00  0.15298718027E-01  0.16695836753E-01  0.89060201515E+00  0.88000000000E+00 0.  1.
        -11    1    4    4    0    0 -0.16222240292E-01 -0.73683639786E-02 -0.10778108429E-01  0.20829849018E-01  0.51100000000E-03 0. -1.
         11    1    4    4    0    0 -0.10283950432E+00 -0.14537549568E-01 -0.24860272672E-01  0.10679699563E+00  0.51100000000E-03 0.  1.
</event>
<event>
 8    1  0.1088270E+005  0.1043930E+01  0.7957747E-01            NaN
         13   -1    0    0    0    0  0.00000000000E+00  0.00000000000E+00  0.74505805969E-08  0.10566000000E+00  0.10566000000E+00 0.  1.
     999900   -1    0    0    0    0 -0.00000000000E+00 -0.00000000000E+00 -0.74505805969E-08  0.93827000000E+00  0.93827000000E+00 0. -1.
     999902    2    1    2    0    0  0.19115256921E-01 -0.10774969173E-01 -0.47693460521E-02  0.10214747184E+01  0.10212278692E+01 0.  0.
     999903    2    3    3    0    0 -0.15378024749E-01 -0.99784753476E-01 -0.83640340688E-01  0.13280539751E+00  0.21168050118E-01 0.  0.
         14    1    1    2    0    0 -0.19115256921E-01  0.10774969173E-01  0.47693460521E-02  0.22455281553E-01  0.00000000000E+00 0.  1.
     999901    1    3    3    0    0  0.34493281670E-01  0.89009784302E-01  0.78870994636E-01  0.88866932094E+00  0.88000000000E+00 0.  1.
        -11    1    4    4    0    0 -0.74368681061E-02 -0.68771378604E-01 -0.44560793101E-01  0.82284475602E-01  0.51100000000E-03 0.  1.
         11    1    4    4    0    0 -0.79411566425E-02 -0.31013374872E-01 -0.39079547587E-01  0.50520921907E-01  0.51100000000E-03 0. -1.
</event>
<event>
 8    1  0.1088270E+005  0.1043930E+01  0.7957747E-01            NaN
         13   -1    0    0    0    0  0.00000000000E+00  0.00000000000E+00  0.74505805969E-08  0.10566000000E+00  0.10566000000E+00 0.  1.
     999900   -1    0    0    0    0 -0.00000000000E+00 -0.00000000000E+00 -0.74505805969E-08  0.93827000000E+00  0.93827000000E+00 0.  1.
     999902    2    1    2    0    0 -0.64936728794E-02  0.11587864269E-01 -0.20992926790E-01  0.10190875090E+01  0.10187846689E+01 0.  0.
     999903    2    3    3    0    0 -0.12823186284E+00  0.10980816052E-01  0.69015876335E-02  0.13026882141E+00  0.18930001332E-01 0.  0.
         14    1    1    2    0    0  0.64936728794E-02 -0.11587864269E-01  0.20992926790E-01  0.24842491038E-01  0.00000000000E+00 0.  1.
     999901    1    3    3    0    0  0.12173818997E+00  0.60704821675E-03 -0.27894514423E-01  0.88881868755E+00  0.88000000000E+00 0.  1.
        -11    1    4    4    0    0 -0.71510766352E-01  0.14915584038E-01  0.72274138468E-02  0.73408180630E-01  0.51100000000E-03 0.  1.
         11    1    4    4    0    0 -0.56721096493E-01 -0.39347679866E-02 -0.32582621334E-03  0.56860640782E-01  0.51100000000E-03 0. -1.
</event>
<event>
 8    1  0.1088270E+005  0.1043930E+01  0.7957747E-01            NaN
         13   -1    0    0    0    0  0.00000000000E+00  0.00000000000E+00  0.74505805969E-08  0.10566000000E+00  0.10566000000E+00 0. -1.
     999900   -1    0    0    0    0 -0.00000000000E+00 -0.00000000000E+00 -0.74505805969E-08  0.93827000000E+00  0.93827000000E+00 0.  1.
     999902    2    1    2    0    0 -0.21254844278E-01 -0.75812353086E-02  0.14329117061E-01  0.10171986115E+01  0.10168473082E+01 0.  0.
     999903    2    3    3    0    0 -0.18349753133E-01  0.83723856493E-01 -0.90575664989E-01  0.12627208670E+00  0.19856767222E-01 0.  0.
         14    1    1    2    0    0  0.21254844278E-01  0.75812353086E-02 -0.14329117061E-01  0.26731388476E-01  0.00000000000E+00 0.  1.
     999901    1    3    3    0    0 -0.29050911449E-02 -0.91305091802E-01  0.10490478205E+00  0.89092652483E+00  0.88000000000E+00 0. -1.
        -11    1    4    4    0    0 -0.21269417563E-02  0.32519314233E-01 -0.22726533156E-01  0.39733941532E-01  0.51100000000E-03 0. -1.
         11    1    4    4    0    0 -0.16222811377E-01  0.51204542261E-01 -0.67849131833E-01  0.86538145165E-01  0.51100000000E-03 0.  1.
</event>
<event>
 8    1  0.1088270E+005  0.1043930E+01  0.7957747E-01            NaN
         13   -1    0    0    0    0  0.00000000000E+00  0.00000000000E+00  0.74505805969E-08  0.10566000000E+00  0.10566000000E+00 0.  1.
     999900   -1    0    0    0    0 -0.00000000000E+00 -0.00000000000E+00 -0.74505805969E-08  0.93827000000E+00  0.93827000000E+00 0.  1.
     999902    2    1    2    0    0 -0.20664928114E-01 -0.57882068015E-02  0.10286304572E-01  0.10201318771E+01  0.10198542523E+01 0.  0.
     999903    2    3    3    0    0  0.51695984672E-01  0.11540936295E+00 -0.11990519046E-01  0.12860441847E+00  0.20088006743E-01 0.  0.
         14    1    1    2    0    0  0.20664928114E-01  0.57882068015E-02 -0.10286304572E-01  0.23798122903E-01  0.00000000000E+00 0.  1.
     999901    1    3    3    0    0 -0.72360912786E-01 -0.12119756975E+00  0.22276823618E-01  0.89152745863E+00  0.88000000000E+00 0.  1.
        -11    1    4    4    0    0  0.23905469825E-01  0.31825134338E-01 -0.66475536948E-02  0.40357920590E-01  0.51100000000E-03 0. -1.
         11    1    4    4    0    0  0.27790514847E-01  0.83584228615E-01 -0.53429653511E-02  0.88246497882E-01  0.51100000000E-03 0.  1.
</event>
<event>
 8    1  0.1088270E+005  0.1043930E+01  0.7957747E-01            NaN
         13   -1    0    0    0    0  0.00000000000E+00  0.00000000000E+00  0.74505805969E-08  0.10566000000E+00  0.10566000000E+00 0.  1.
     999900   -1    0    0    0    0 -0.00000000000E+00 -0.00000000000E+00 -0.74505805969E-08  0.93827000000E+00  0.93827000000E+00 0. -1.
     999902    2    1    2    0    0 -0.81415539889E-02  0.12697668167E-01 -0.17703937443E-01  0.10206717739E+01  0.10204067449E+01 0.  0.
     999903    2    3    3    0    0  0.77748538020E-01  0.19829843669E-01  0.98395154514E-01  0.12887192253E+00  0.22097694909E-01 0.  0.
         14    1    1    2    0    0  0.81415539889E-02 -0.12697668167E-01  0.17703937443E-01  0.23258226055E-01  0.00000000000E+00 0.  1.
     999901    1    3    3    0    0 -0.85890092009E-01 -0.71321755017E-02 -0.11609909196E+00  0.89179985142E+00  0.88000000000E+00 0. -1.
        -11    1    4    4    0    0  0.43624890490E-01  0.18137805080E-01  0.43570961315E-01  0.64271306462E-01  0.51100000000E-03 0. -1.
         11    1    4    4    0    0  0.34123647531E-01  0.16920385882E-02  0.54824193199E-01  0.64600616067E-01  0.51100000000E-03 0.  1.
</event>
<event>
 8    1  0.1088270E+005  0.1043930E+01  0.7957747E-01            NaN
         13   -1    0    0    0    0  0.00000000000E+00  0.00000000000E+00  0.74505805969E-08  0.10566000000E+00  0.10566000000E+00 0. -1.
     999900   -1    0    0    0    0 -0.00000000000E+00 -0.00000000000E+00 -0.74505805969E-08  0.93827000000E+00  0.93827000000E+00 0. -1.
     999902    2    1    2    0    0 -0.15440069268E-01 -0.14439223399E-01 -0.99815600869E-02  0.10205522659E+01  0.10202844745E+01 0.  0.
     999903    2    3    3    0    0  0.28005867506E-01  0.22004584513E-01  0.12212204565E+00  0.12888693448E+00  0.20724803757E-01 0.  0.
         14    1    1    2    0    0  0.15440069268E-01  0.14439223399E-01  0.99815600869E-02  0.23377734131E-01  0.00000000000E+00 0. -1.
     999901    1    3    3    0    0 -0.43445936773E-01 -0.36443807912E-01 -0.13210360574E+00  0.89166533139E+00  0.88000000000E+00 0. -1.
        -11    1    4    4    0    0  0.14938224689E-01  0.12725615724E-01  0.97827945185E-01  0.99778052860E-01  0.51100000000E-03 0.  1.
         11    1    4    4    0    0  0.13067642817E-01  0.92789687892E-02  0.24294100465E-01  0.29108881617E-01  0.51100000000E-03 0. -1.
</event>
<event>
 8    1  0.1088270E+005  0.1043930E+01  0.7957747E-01            NaN
         13   -1    0    0    0    0  0.00000000000E+00  0.00000000000E+00  0.74505805969E-08  0.10566000000E+00  0.10566000000E+00 0. -1.
     999900   -1    0    0    0    0 -0.00000000000E+00 -0.00000000000E+00 -0.74505805969E-08  0.93827000000E+00  0.93827000000E+00 0.  1.
     999902    2    1    2    0    0  0.10838099370E-02 -0.23295022015E-01  0.55013925223E-02  0.10199696575E+01  0.10196881897E+01 0.  0.
     999903    2    3    3    0    0  0.69781690419E-01 -0.60347338897E-01 -0.91564487063E-01  0.13119856323E+00  0.17824760111E-01 0.  0.
         14    1    1    2    0    0 -0.10838099370E-02  0.23295022015E-01 -0.55013925223E-02  0.23960342534E-01  0.00000000000E+00 0.  1.
     999901    1    3    3    0    0 -0.68697880482E-01  0.37052316882E-01  0.97065879585E-01  0.88877109424E+00  0.88000000000E+00 0.  1.
        -11    1    4    4    0    0  0.29088710005E-01 -0.36768890748E-01 -0.47691972522E-01  0.66879666122E-01  0.51100000000E-03 0.  1.
         11    1    4    4    0    0  0.40692980414E-01 -0.23578448149E-01 -0.43872514541E-01  0.64318897108E-01  0.51100000000E-03 0. -1.
</event>
<event>
 8    1  0.1088270E+005  0.1043930E+01  0.7957747E-01            NaN
         13   -1    0    0    0    0  0.00000000000E+00  0.00000000000E+00  0.74505805969E-08  0.10566000000E+00  0.10566000000E+00 0.  1.
     999900   -1    0    0    0    0 -0.00000000000E+00 -0.00000000000E+00 -0.74505805969E-08  0.93827000000E+00  0.93827000000E+00 0.  1.
     999902    2    1    2    0    0 -0.10967505600E-01 -0.14795876193E-01  0.15194890126E-01  0.10200534672E+01  0.10197739883E+01 0.  0.
     999903    2    3    3    0    0 -0.45773264194E-01  0.60699720271E-01 -0.10158011914E+00  0.12845522322E+00  0.20064296968E-01 0.  0.
         14    1    1    2    0    0  0.10967505600E-01  0.14795876193E-01 -0.15194890126E-01  0.23876532775E-01  0.00000000000E+00 0. -1.
     999901    1    3    3    0    0  0.34805758594E-01 -0.75495596463E-01  0.11677500927E+00  0.89159824400E+00  0.88000000000E+00 0. -1.
        -11    1    4    4    0    0 -0.39119057482E-01  0.54410227153E-01 -0.76238624577E-01  0.10150548003E+00  0.51100000000E-03 0. -1.
         11    1    4    4    0    0 -0.66542067120E-02  0.62894931182E-02 -0.25341494564E-01  0.26949743197E-01  0.51100000000E-03 0.  1.
</event>
<event>
 8    1  0.1088270E+005  0.1043930E+01  0.7957747E-01            NaN
         13   -1    0    0    0    0  0.00000000000E+00  0.00000000000E+00  0.74505805969E-08  0.10566000000E+00  0.10566000000E+00 0.  1.
     999900   -1    0    0    0    0 -0.00000000000E+00 -0.00000000000E+00 -0.74505805969E-08  0.93827000000E+00  0.93827000000E+00 0.  1.
     999902    2    1    2    0    0  0.54899761986E-02  0.49596646082E-02 -0.21479969529E-01  0.10212115669E+01  0.10209588323E+01 0.  0.
     999903    2    3    3    0    0 -0.68768767210E-01 -0.68306782910E-01  0.82716911399E-01  0.12894516985E+00  0.19743592914E-01 0.  0.
         14    1    1    2    0    0 -0.54899761986E-02 -0.49596646082E-02  0.21479969529E-01  0.22718433103E-01  0.00000000000E+00 0.  1.
     999901    1    3    3    0    0  0.74258743409E-01  0.73266447518E-01 -0.10419688093E+00  0.89226639705E+00  0.88000000000E+00 0.  1.
        -11    1    4    4    0    0 -0.51175968082E-01 -0.61325736559E-01  0.64433982716E-01  0.10262467989E+00  0.51100000000E-03 0.  1.
         11    1    4    4    0    0 -0.17592799128E-01 -0.69810463514E-02  0.18282928683E-01  0.26320489957E-01  0.51100000000E-03 0. -1.
</event>
<event>
 8    1  0.1088270E+005  0.1043930E+01  0.7957747E-01            NaN
         13   -1    0    0    0    0  0.00000000000E+00  0.00000000000E+00  0.74505805969E-08  0.10566000000E+00  0.10566000000E+00 0.  1.
     999900   -1    0    0    0    0 -0.00000000000E+00 -0.00000000000E+00 -0.74505805969E-08  0.93827000000E+00  0.93827000000E+00 0. -1.
     999902    2    1    2    0    0 -0.10230313908E-01 -0.11761801033E-01  0.17850729589E-01  0.10202308896E+01  0.10199555972E+01 0.  0.
     999903    2    3    3    0    0  0.11243506373E+00 -0.37499838682E-01  0.51446413083E-01  0.13071534090E+00  0.19796097339E-01 0.  0.
         14    1    1    2    0    0  0.10230313908E-01  0.11761801033E-01 -0.17850729589E-01  0.23699110385E-01  0.00000000000E+00 0. -1.
     999901    1    3    3    0    0 -0.12266537764E+00  0.25738037649E-01 -0.33595683494E-01  0.88951554871E+00  0.88000000000E+00 0.  1.
        -11    1    4    4    0    0  0.44675466267E-01 -0.19575729357E-01  0.30626687807E-01  0.57596541502E-01  0.51100000000E-03 0. -1.
         11    1    4    4    0    0  0.67759597467E-01 -0.17924109325E-01  0.20819725276E-01  0.73118799399E-01  0.51100000000E-03 0.  1.
</event>
<event>
 8    1  0.1088270E+005  0.1043930E+01  0.7957747E-01            NaN
         13   -1    0    0    0    0  0.00000000000E+00  0.00000000000E+00  0.74505805969E-08  0.10566000000E+00  0.10566000000E+00 0. -1.
     999900   -1    0    0    0    0 -0.00000000000E+00 -0.00000000000E+00 -0.74505805969E-08  0.93827000000E+00  0.93827000000E+00 0. -1.
     999902    2    1    2    0    0 -0.87986271903E-02  0.13496026740E-01  0.20868165239E-01  0.10175664096E+01  0.10172248321E+01 0.  0.
     999903    2    3    3    0    0 -0.37833924188E-01 -0.27640980508E-01  0.12022458229E+00  0.13054498965E+00  0.19814502617E-01 0.  0.
         14    1    1    2    0    0  0.87986271903E-02 -0.13496026740E-01 -0.20868165239E-01  0.26363590398E-01  0.00000000000E+00 0.  1.
     999901    1    3    3    0    0  0.29035296998E-01  0.41137007248E-01 -0.99356417051E-01  0.88702141995E+00  0.88000000000E+00 0. -1.
        -11    1    4    4    0    0 -0.28900153974E-01 -0.28105057835E-01  0.83224119624E-01  0.92475014917E-01  0.51100000000E-03 0.  1.
         11    1    4    4    0    0 -0.89337702143E-02  0.46407732648E-03  0.37000462666E-01  0.38069974738E-01  0.51100000000E-03 0. -1.
</event>
<event>
 8    1  0.1088270E+005  0.1043930E+01  0.7957747E-01            NaN
         13   -1    0    0    0    0  0.00000000000E+00  0.00000000000E+00  0.74505805969E-08  0.10566000000E+00  0.10566000000E+00 0.  1.
     999900   -1    0    0    0    0 -0.00000000000E+00 -0.00000000000E+00 -0.74505805969E-08  0.93827000000E+00  0.93827000000E+00 0.  1.
     999902    2    1    2    0    0  0.24357627354E-01  0.44581391398E-02 -0.68542241393E-02  0.10182366272E+01  0.10179124126E+01 0.  0.
     999903    2    3    3    0    0  0.39330068142E-02  0.12340217919E+00 -0.33972069054E-01  0.12958583683E+00  0.19870109700E-01 0.  0.
         14    1    1    2    0    0 -0.24357627354E-01 -0.44581391398E-02  0.68542241393E-02  0.25693372753E-01  0.00000000000E+00 0. -1.
     999901    1    3    3    0    0  0.20424620539E-01 -0.11894404005E+00  0.27117844915E-01  0.88865079041E+00  0.88000000000E+00 0. -1.
        -11    1    4    4    0    0 -0.43122445389E-02  0.33322095660E-01 -0.20717285746E-02  0.33667650533E-01  0.51100000000E-03 0. -1.
         11    1    4    4    0    0  0.82452513531E-02  0.90080083535E-01 -0.31900340480E-01  0.95918186301E-01  0.51100000000E-03 0.  1.
</event>
<event>
 8    1  0.1088270E+005  0.1043930E+01  0.7957747E-01            NaN
         13   -1    0    0    0    0  0.00000000000E+00  0.00000000000E+00  0.74505805969E-08  0.10566000000E+00  0.10566000000E+00 0. -1.
     999900   -1    0    0    0    0 -0.00000000000E+00 -0.00000000000E+00 -0.74505805969E-08  0.93827000000E+00  0.93827000000E+00 0.  1.
     999902    2    1    2    0    0  0.17956927042E-01 -0.10670786736E-01  0.11842608407E-01  0.10199182468E+01  0.10196355554E+01 0.  0.
     999903    2    3    3    0    0 -0.40516954955E-01 -0.11772828794E+00  0.36063404338E-01  0.13117354194E+00  0.20108593999E-01 0.  0.
         14    1    1    2    0    0 -0.17956927042E-01  0.10670786736E-01 -0.11842608407E-01  0.24011753210E-01  0.00000000000E+00 0.  1.
     999901    1    3    3    0    0  0.58473881997E-01  0.10705750120E+00 -0.24220795931E-01  0.88874470485E+00  0.88000000000E+00 0.  1.
        -11    1    4    4    0    0 -0.53097734136E-02 -0.35785219472E-01  0.40164360115E-02  0.36402863975E-01  0.51100000000E-03 0. -1.
         11    1    4    4    0    0 -0.35207181542E-01 -0.81943068469E-01  0.32046968327E-01  0.94770677966E-01  0.51100000000E-03 0.  1.
</event>
<event>
 8    1  0.1088270E+005  0.1043930E+01  0.7957747E-01            NaN
         13   -1    0    0    0    0  0.00000000000E+00  0.00000000000E+00  0.74505805969E-08  0.10566000000E+00  0.10566000000E+00 0.  1.
     999900   -1    0    0    0    0 -0.00000000000E+00 -0.00000000000E+00 -0.74505805969E-08  0.93827000000E+00  0.93827000000E+00 0. -1.
     999902    2    1    2    0    0 -0.89705437508E-02  0.15473674174E-01 -0.14916105731E-01  0.10206406149E+01  0.10203748671E+01 0.  0.
     999903    2    3    3    0    0 -0.95122283332E-01  0.37522697769E-01 -0.83447852286E-01  0.13350765872E+00  0.20113409748E-01 0.  0.
         14    1    1    2    0    0  0.89705437508E-02 -0.15473674174E-01  0.14916105731E-01  0.23289385088E-01  0.00000000000E+00 0. -1.
     999901    1    3    3    0    0  0.86151739582E-01 -0.22049023595E-01  0.68531746556E-01  0.88713295619E+00  0.88000000000E+00 0. -1.
        -11    1    4    4    0    0 -0.38062981428E-01  0.25717677290E-01 -0.37460200566E-01  0.59276616197E-01  0.51100000000E-03 0.  1.
         11    1    4    4    0    0 -0.57059301904E-01  0.11805020478E-01 -0.45987651721E-01  0.74231042523E-01  0.51100000000E-03 0. -1.
</event>
<event>
 8    1  0.1088270E+005  0.1043930E+01  0.7957747E-01            NaN
         13   -1    0    0    0    0  0.00000000000E+00  0.00000000000E+00  0.74505805969E-08  0.10566000000E+00  0.10566000000E+00 0. -1.
     999900   -1    0    0    0    0 -0.00000000000E+00 -0.00000000000E+00 -0.74505805969E-08  0.93827000000E+00  0.93827000000E+00 0. -1.
     999902    2    1    2    0    0  0.16811758193E-01  0.21276276181E-01 -0.46863927977E-02  0.10164113260E+01  0.10160387326E+01 0.  0.
     999903    2    3    3    0    0  0.25811415242E-01  0.11792235775E+00 -0.44429601772E-01  0.13018281056E+00  0.20041532807E-01 0.  0.
         14    1    1    2    0    0 -0.16811758193E-01 -0.21276276181E-01  0.46863927977E-02  0.27518674008E-01  0.00000000000E+00 0. -1.
     999901    1    3    3    0    0 -0.89996570498E-02 -0.96646081568E-01  0.39743208974E-01  0.88622851543E+00  0.88000000000E+00 0. -1.
        -11    1    4    4    0    0  0.23411765621E-01  0.80094437340E-01 -0.38166490591E-01  0.91761494034E-01  0.51100000000E-03 0.  1.
         11    1    4    4    0    0  0.23996496219E-02  0.37827920409E-01 -0.62631111810E-02  0.38421316524E-01  0.51100000000E-03 0. -1.
</event>
<event>
 8    1  0.1088270E+005  0.1043930E+01  0.7957747E-01            NaN
         13   -1    0    0    0    0  0.00000000000E+00  0.00000000000E+00  0.74505805969E-08  0.10566000000E+00  0.10566000000E+00 0. -1.
     999900   -1    0    0    0    0 -0.00000000000E+00 -0.00000000000E+00 -0.74505805969E-08  0.93827000000E+00  0.93827000000E+00 0.  1.
     999902    2    1    2    0    0 -0.15996096694E-01 -0.10841613044E-01  0.10624704782E-01  0.10218777884E+01  0.10216398164E+01 0.  0.
     999903    2    3    3    0    0 -0.44923605719E-01 -0.10582600973E+00 -0.63764684042E-01  0.13317501610E+00  0.21269116030E-01 0.  0.
         14    1    1    2    0    0  0.15996096694E-01  0.10841613044E-01 -0.10624704782E-01  0.22052211557E-01  0.00000000000E+00 0. -1.
     999901    1    3    3    0    0  0.28927509025E-01  0.94984396688E-01  0.74389388824E-01  0.88870277234E+00  0.88000000000E+00 0. -1.
        -11    1    4    4    0    0 -0.30480120531E-01 -0.48801055835E-01 -0.37980457795E-01  0.68944594375E-01  0.51100000000E-03 0. -1.
         11    1    4    4    0    0 -0.14443485188E-01 -0.57024953897E-01 -0.25784226247E-01  0.64230421729E-01  0.51100000000E-03 0.  1.
</event>
<event>
 8    1  0.1088270E+005  0.1043930E+01  0.7957747E-01            NaN
         13   -1    0    0    0    0  0.00000000000E+00  0.00000000000E+00  0.74505805969E-08  0.10566000000E+00  0.10566000000E+00 0.  1.
     999900   -1    0    0    0    0 -0.00000000000E+00 -0.00000000000E+00 -0.74505805969E-08  0.93827000000E+00  0.93827000000E+00 0. -1.
     999902    2    1    2    0    0  0.21114846839E-01 -0.28753425073E-03 -0.10783655847E-01  0.10202191024E+01  0.10199435328E+01 0.  0.
     999903    2    3    3    0    0 -0.10415844472E+00 -0.44068931593E-01 -0.58598660719E-01  0.12898597741E+00  0.20310760503E-01 0.  0.
         14    1    1    2    0    0 -0.21114846839E-01  0.28753425073E-03  0.10783655847E-01  0.23710897629E-01  0.00000000000E+00 0. -1.
     999901    1    3    3    0    0  0.12527329156E+00  0.43781397342E-01  0.47815004872E-01  0.89123312496E+00  0.88000000000E+00 0.  1.
        -11    1    4    4    0    0 -0.95995483402E-01 -0.37581720706E-01 -0.58527582443E-01  0.11854643644E+00  0.51100000000E-03 0. -1.
         11    1    4    4    0    0 -0.81629613207E-02 -0.64872108872E-02 -0.71078276285E-04  0.10439540974E-01  0.51100000000E-03 0.  1.
</event>
<event>
 8    1  0.1088270E+005  0.1043930E+01  0.7957747E-01            NaN
         13   -1    0    0    0    0  0.00000000000E+00  0.00000000000E+00  0.74505805969E-08  0.10566000000E+00  0.10566000000E+00 0.  1.
     999900   -1    0    0    0    0 -0.00000000000E+00 -0.00000000000E+00 -0.74505805969E-08  0.93827000000E+00  0.93827000000E+00 0.  1.
     999902    2    1    2    0    0  0.10629950417E-01 -0.19297563730E-01  0.91250931951E-02  0.10200834250E+01  0.10198046553E+01 0.  0.
     999903    2    3    3    0    0 -0.94845492190E-01  0.67822985054E-01  0.49946288605E-01  0.12857827698E+00  0.21026575447E-01 0.  0.
         14    1    1    2    0    0 -0.10629950417E-01  0.19297563730E-01 -0.91250931951E-02  0.23846574966E-01  0.00000000000E+00 0.  1.
     999901    1    3    3    0    0  0.10547544261E+00 -0.87120548785E-01 -0.40821195409E-01  0.89150514805E+00  0.88000000000E+00 0.  1.
        -11    1    4    4    0    0 -0.34189150074E-01  0.31194494061E-01  0.29272231247E-01  0.54764213549E-01  0.51100000000E-03 0. -1.
         11    1    4    4    0    0 -0.60656342116E-01  0.36628490993E-01  0.20674057358E-01  0.73814063430E-01  0.51100000000E-03 0.  1.
</event>
<event>
 8    1  0.1088270E+005  0.1043930E+01  0.7957747E-01            NaN
         13   -1    0    0    0    0  0.00000000000E+00  0.00000000000E+00  0.74505805969E-08  0.10566000000E+00  0.10566000000E+00 0. -1.
     999900   -1    0    0    0    0 -0.00000000000E+00 -0.00000000000E+00 -0.74505805969E-08  0.93827000000E+00  0.93827000000E+00 0.  1.
     999902    2    1    2    0    0 -0.75560352505E-02 -0.18145661718E-01  0.67893728565E-02  0.10231344646E+01  0.10229231048E+01 0.  0.
     999903    2    3    3    0    0 -0.11108964519E+00  0.69650093547E-01 -0.12888883735E-02  0.13268931677E+00  0.20316218941E-01 0.  0.
         14    1    1    2    0    0  0.75560352505E-02  0.18145661718E-01 -0.67893728565E-02  0.20795535378E-01  0.00000000000E+00 0.  1.
     999901    1    3    3    0    0  0.10353360994E+00 -0.87795755265E-01  0.80782612300E-02  0.89044514785E+00  0.88000000000E+00 0.  1.
        -11    1    4    4    0    0 -0.59598142120E-01  0.25520367036E-01 -0.20935129280E-02  0.64868109231E-01  0.51100000000E-03 0. -1.
         11    1    4    4    0    0 -0.51491503069E-01  0.44129726511E-01  0.80462455453E-03  0.67821207538E-01  0.51100000000E-03 0.  1.
</event>
<event>
 8    1  0.1088270E+005  0.1043930E+01  0.7957747E-01            NaN
         13   -1    0    0    0    0  0.00000000000E+00  0.00000000000E+00  0.74505805969E-08  0.10566000000E+00  0.10566000000E+00 0.  1.
     999900   -1    0    0    0    0 -0.00000000000E+00 -0.00000000000E+00 -0.74505805969E-08  0.93827000000E+00  0.93827000000E+00 0. -1.
     999902    2    1    2    0    0 -0.12743834103E-01 -0.18100069806E-01  0.12788251177E-01  0.10183652351E+01  0.10180442991E+01 0.  0.
     999903    2    3    3    0    0  0.55204864776E-01 -0.43137058351E-01 -0.10455169874E+00  0.12762815814E+00  0.21201559951E-01 0.  0.
         14    1    1    2    0    0  0.12743834103E-01  0.18100069806E-01 -0.12788251177E-01  0.25564764869E-01  0.00000000000E+00 0. -1.
     999901    1    3    3    0    0 -0.67948698878E-01  0.25036988545E-01  0.11733994991E+00  0.89073707699E+00  0.88000000000E+00 0.  1.
        -11    1    4    4    0    0  0.34305482251E-01 -0.29498027980E-01 -0.48827120225E-01  0.66568375056E-01  0.51100000000E-03 0. -1.
         11    1    4    4    0    0  0.20899382525E-01 -0.13639030371E-01 -0.55724578512E-01  0.61059783088E-01  0.51100000000E-03 0.  1.
</event>
<event>
 8    1  0.1088270E+005  0.1043930E+01  0.7957747E-01            NaN
         13   -1    0    0    0    0  0.00000000000E+00  0.00000000000E+00  0.74505805969E-08  0.10566000000E+00  0.10566000000E+00 0. -1.
     999900   -1    0    0    0    0 -0.00000000000E+00 -0.00000000000E+00 -0.74505805969E-08  0.93827000000E+00  0.93827000000E+00 0.  1.
     999902    2    1    2    0    0 -0.13111063762E-03  0.59558619338E-02  0.23333880552E-01  0.10198476525E+01  0.10195632765E+01 0.  0.
     999903    2    3    3    0    0  0.68879804756E-02 -0.11964537470E+00 -0.41819617773E-01  0.12851723302E+00  0.20133027313E-01 0.  0.
         14    1    1    2    0    0  0.13111063762E-03 -0.59558619338E-02 -0.23333880552E-01  0.24082347539E-01  0.00000000000E+00 0.  1.
     999901    1    3    3    0    0 -0.70190911133E-02  0.12560123664E+00  0.65153498325E-01  0.89133041945E+00  0.88000000000E+00 0. -1.
        -11    1    4    4    0    0  0.30639258075E-04 -0.75611966608E-01 -0.16985343610E-01  0.77497957726E-01  0.51100000000E-03 0. -1.
         11    1    4    4    0    0  0.68573412176E-02 -0.44033408093E-01 -0.24834274163E-01  0.51019275289E-01  0.51100000000E-03 0.  1.
</event>
<event>
 8    1  0.1088270E+005  0.1043930E+01  0.7957747E-01            NaN
         13   -1    0    0    0    0  0.00000000000E+00  0.00000000000E+00  0.74505805969E-08  0.10566000000E+00  0.10566000000E+00 0. -1.
     999900   -1    0    0    0    0 -0.00000000000E+00 -0.00000000000E+00 -0.74505805969E-08  0.93827000000E+00  0.93827000000E+00 0. -1.
     999902    2    1    2    0    0  0.19143553144E-01  0.10831195244E-01  0.58193195345E-02  0.10211779694E+01  0.10209244782E+01 0.  0.
     999903    2    3    3    0    0  0.88302164987E-01  0.37091147187E-01  0.91482870005E-01  0.13392899500E+00  0.19870446788E-01 0.  0.
         14    1    1    2    0    0 -0.19143553144E-01 -0.10831195244E-01 -0.58193195345E-02  0.22752030618E-01  0.00000000000E+00 0.  1.
     999901    1    3    3    0    0 -0.69158611843E-01 -0.26259951943E-01 -0.85663550470E-01  0.88724897439E+00  0.88000000000E+00 0. -1.
        -11    1    4    4    0    0  0.51388664074E-01  0.11492201501E-01  0.44766950115E-01  0.69117338160E-01  0.51100000000E-03 0. -1.
         11    1    4    4    0    0  0.36913500913E-01  0.25598945686E-01  0.46715919890E-01  0.64811656837E-01  0.51100000000E-03 0.  1.
</event>
<event>
 8    1  0.1088270E+005  0.1043930E+01  0.7957747E-01            NaN
         13   -1    0    0    0    0  0.00000000000E+00  0.00000000000E+00  0.74505805969E-08  0.10566000000E+00  0.10566000000E+00 0. -1.
     999900   -1    0    0    0    0 -0.00000000000E+00 -0.00000000000E+00 -0.74505805969E-08  0.93827000000E+00  0.93827000000E+00 0. -1.
     999902    2    1    2    0    0 -0.25241584393E-03  0.22570997851E-01 -0.72541859060E-02  0.10202205742E+01  0.10199450393E+01 0.  0.
     999903    2    3    3    0    0 -0.66663478673E-01 -0.10468641658E+00 -0.26826053446E-01  0.12837533159E+00  0.18903000127E-01 0.  0.
         14    1    1    2    0    0  0.25241584393E-03 -0.22570997851E-01  0.72541859060E-02  0.23709425782E-01  0.00000000000E+00 0. -1.
     999901    1    3    3    0    0  0.66411062829E-01  0.12725741443E+00  0.19571867540E-01  0.89184524262E+00  0.88000000000E+00 0.  1.
        -11    1    4    4    0    0 -0.50638954021E-01 -0.64098306119E-01 -0.13919106358E-01  0.82866755424E-01  0.51100000000E-03 0. -1.
         11    1    4    4    0    0 -0.16024524652E-01 -0.40588110458E-01 -0.12906947088E-01  0.45508576170E-01  0.51100000000E-03 0.  1.
</event>
<event>
 8    1  0.1088270E+005  0.1043930E+01  0.7957747E-01            NaN
         13   -1    0    0    0    0  0.00000000000E+00  0.00000000000E+00  0.74505805969E-08  0.10566000000E+00  0.10566000000E+00 0.  1.
     999900   -1    0    0    0    0 -0.00000000000E+00 -0.00000000000E+00 -0.74505805969E-08  0.93827000000E+00  0.93827000000E+00 0.  1.
     999902    2    1    2    0    0 -0.46485336765E-02  0.22615897000E-01  0.50296386334E-02  0.10202998301E+01  0.10200261558E+01 0.  0.
     999903    2    3    3    0    0 -0.33825265126E-01  0.12215829930E+00 -0.35624760668E-01  0.13327516775E+00  0.20648198929E-01 0.  0.
         14    1    1    2    0    0  0.46485336765E-02 -0.22615897000E-01 -0.50296386334E-02  0.23630169852E-01  0.00000000000E+00 0.  1.
     999901    1    3    3    0    0  0.29176731449E-01 -0.99542402298E-01  0.40654399302E-01  0.88702466239E+00  0.88000000000E+00 0. -1.
        -11    1    4    4    0    0 -0.24600064668E-01  0.69483990209E-01 -0.11486785247E-01  0.74601577955E-01  0.51100000000E-03 0.  1.
         11    1    4    4    0    0 -0.92252004575E-02  0.52674309088E-01 -0.24137975422E-01  0.58673589798E-01  0.51100000000E-03 0. -1.
</event>
<event>
 8    1  0.1088270E+005  0.1043930E+01  0.7957747E-01            NaN
         13   -1    0    0    0    0  0.00000000000E+00  0.00000000000E+00  0.74505805969E-08  0.10566000000E+00  0.10566000000E+00 0. -1.
     999900   -1    0    0    0    0 -0.00000000000E+00 -0.00000000000E+00 -0.74505805969E-08  0.93827000000E+00  0.93827000000E+00 0.  1.
     999902    2    1    2    0    0  0.20165683975E-01  0.12384518890E-01  0.21271816903E-02  0.10201696124E+01  0.10198928777E+01 0.  0.
     999903    2    3    3    0    0 -0.12604033138E-01  0.12364954086E+00  0.39728665166E-01  0.13176225590E+00  0.18299033812E-01 0.  0.
         14    1    1    2    0    0 -0.20165683975E-01 -0.12384518890E-01 -0.21271816903E-02  0.23760387628E-01  0.00000000000E+00 0.  1.
     999901    1    3    3    0    0  0.32769717113E-01 -0.11126502197E+00 -0.37601483476E-01  0.88840735647E+00  0.88000000000E+00 0.  1.
        -11    1    4    4    0    0 -0.82517025961E-02  0.36392440797E-01  0.19401630029E-01  0.42061677471E-01  0.51100000000E-03 0.  1.
         11    1    4    4    0    0 -0.43523305420E-02  0.87257100060E-01  0.20327035138E-01  0.89700578429E-01  0.51100000000E-03 0. -1.
</event>
<event>
 8    1  0.1088270E+005  0.1043930E+01  0.7957747E-01            NaN
         13   -1    0    0    0    0  0.00000000000E+00  0.00000000000E+00  0.74505805969E-08  0.10566000000E+00  0.10566000000E+00 0. -1.
     999900   -1    0    0    0    0 -0.00000000000E+00 -0.00000000000E+00 -0.74505805969E-08  0.93827000000E+00  0.93827000000E+00 0. -1.
     999902    2    1    2    0    0  0.10754108685E-01  0.20463789729E-01  0.62506262474E-02  0.10199823932E+01  0.10197012281E+01 0.  0.
     999903    2    3    3    0    0 -0.10777824719E+00 -0.30110064435E-01  0.60683512245E-01  0.12893212906E+00  0.20450885024E-01 0.  0.
         14    1    1    2    0    0 -0.10754108685E-01 -0.20463789729E-01 -0.62506262474E-02  0.23947606815E-01  0.00000000000E+00 0. -1.
     999901    1    3    3    0    0  0.11853235588E+00  0.50573854165E-01 -0.54432885998E-01  0.89105026412E+00  0.88000000000E+00 0. -1.
        -11    1    4    4    0    0 -0.87176890120E-02 -0.47997834062E-02  0.12265446182E-01  0.15803110880E-01  0.51100000000E-03 0. -1.
         11    1    4    4    0    0 -0.99060558179E-01 -0.25310281029E-01  0.48418066064E-01  0.11312901818E+00  0.51100000000E-03 0.  1.
</event>
<event>
 8    1  0.1088270E+005  0.1043930E+01  0.7957747E-01            NaN
         13   -1    0    0    0    0  0.00000000000E+00  0.00000000000E+00  0.74505805969E-08  0.10566000000E+00  0.10566000000E+00 0.  1.
     999900   -1    0    0    0    0 -0.00000000000E+00 -0.00000000000E+00 -0.74505805969E-08  0.93827000000E+00  0.93827000000E+00 0.  1.
     999902    2    1    2    0    0  0.17997330488E-01 -0.12447115191E-02  0.18293907102E-01  0.10182371946E+01  0.10179129944E+01 0.  0.
     999903    2    3    3    0    0 -0.25119270467E-01  0.12277816385E+00 -0.14970785360E-01  0.12787364266E+00  0.20544799940E-01 0.  0.
         14    1    1    2    0    0 -0.17997330488E-01  0.12447115191E-02 -0.18293907102E-01  0.25692805384E-01  0.00000000000E+00 0.  1.
     999901    1    3    3    0    0  0.43116600955E-01 -0.12402287537E+00  0.33264692461E-01  0.89036355196E+00  0.88000000000E+00 0. -1.
        -11    1    4    4    0    0 -0.16716796580E-01  0.35427324829E-01 -0.27758897694E-02  0.39274843315E-01  0.51100000000E-03 0. -1.
         11    1    4    4    0    0 -0.84024738868E-02  0.87350839022E-01 -0.12194895590E-01  0.88598799341E-01  0.51100000000E-03 0.  1.
</event>
<event>
 8    1  0.1088270E+005  0.1043930E+01  0.7957747E-01            NaN
         13   -1    0    0    0    0  0.00000000000E+00  0.00000000000E+00  0.74505805969E-08  0.10566000000E+00  0.10566000000E+00 0. -1.
     999900   -1    0    0    0    0 -0.00000000000E+00 -0.00000000000E+00 -0.74505805969E-08  0.93827000000E+00  0.93827000000E+00 0. -1.
     999902    2    1    2    0    0  0.95151952370E-02 -0.20589593642E-01  0.51795374755E-02  0.10206641900E+01  0.10203989861E+01 0.  0.
     999903    2    3    3    0    0 -0.12280752344E+00 -0.16125536825E-02  0.37759495868E-01  0.12997295078E+00  0.19567837465E-01 0.  0.
         14    1    1    2    0    0 -0.95151952370E-02  0.20589593642E-01 -0.51795374755E-02  0.23265810005E-01  0.00000000000E+00 0.  1.
     999901    1    3    3    0    0  0.13232271868E+00 -0.18977039960E-01 -0.32579958392E-01  0.89069123921E+00  0.88000000000E+00 0.  1.
        -11    1    4    4    0    0 -0.96946259419E-01  0.52762490699E-02  0.34352009333E-01  0.10298901731E+00  0.51100000000E-03 0. -1.
         11    1    4    4    0    0 -0.25861264023E-01 -0.68888027524E-02  0.34074865347E-02  0.26983933474E-01  0.51100000000E-03 0.  1.
</event>
<event>
 8    1  0.1088270E+005  0.1043930E+01  0.7957747E-01            NaN
         13   -1    0    0    0    0  0.00000000000E+00  0.00000000000E+00  0.74505805969E-08  0.10566000000E+00  0.10566000000E+00 0. -1.
     999900   -1    0    0    0    0 -0.00000000000E+00 -0.00000000000E+00 -0.74505805969E-08  0.93827000000E+00  0.93827000000E+00 0. -1.
     999902    2    1    2    0    0  0.22663303172E-01 -0.22725642700E-02  0.12116048264E-01  0.10181309984E+01  0.10178040781E+01 0.  0.
     999903    2    3    3    0    0  0.63534117394E-01  0.40415017559E-03  0.11326294635E+00  0.13139074146E+00  0.19957066762E-01 0.  0.
         14    1    1    2    0    0 -0.22663303172E-01  0.22725642700E-02 -0.12116048264E-01  0.25799001619E-01  0.00000000000E+00 0.  1.
     999901    1    3    3    0    0 -0.40870814222E-01 -0.26767144456E-02 -0.10114689809E+00  0.88674025692E+00  0.88000000000E+00 0. -1.
        -11    1    4    4    0    0  0.32910132548E-01 -0.95297161240E-02  0.62505147930E-01  0.71281462895E-01  0.51100000000E-03 0.  1.
         11    1    4    4    0    0  0.30623984846E-01  0.99338662996E-02  0.50757798424E-01  0.60109278563E-01  0.51100000000E-03 0. -1.
</event>
<event>
 8    1  0.1088270E+005  0.1043930E+01  0.7957747E-01            NaN
         13   -1    0    0    0    0  0.00000000000E+00  0.00000000000E+00  0.74505805969E-08  0.10566000000E+00  0.10566000000E+00 0. -1.
     999900   -1    0    0    0    0 -0.00000000000E+00 -0.00000000000E+00 -0.74505805969E-08  0.93827000000E+00  0.93827000000E+00 0.  1.
     999902    2    1    2    0    0 -0.40681835890E-02 -0.16390377944E-01 -0.15722788945E-01  0.10208561902E+01  0.10205953950E+01 0.  0.
     999903    2    3    3    0    0 -0.43096892817E-01 -0.79114345742E-01 -0.97272443967E-01  0.13400339377E+00  0.19456600804E-01 0.  0.
         14    1    1    2    0    0  0.40681835890E-02  0.16390377944E-01  0.15722788945E-01  0.23073809808E-01  0.00000000000E+00 0. -1.
     999901    1    3    3    0    0  0.39028709228E-01  0.62723967799E-01  0.81549655022E-01  0.88685279642E+00  0.88000000000E+00 0. -1.
        -11    1    4    4    0    0 -0.96133977465E-02 -0.36582606795E-01 -0.35630667374E-01  0.51966432577E-01  0.51100000000E-03 0.  1.
         11    1    4    4    0    0 -0.33483495070E-01 -0.42531738947E-01 -0.61641776592E-01  0.82036961197E-01  0.51100000000E-03 0. -1.
</event>
<event>
 8    1  0.1088270E+005  0.1043930E+01  0.7957747E-01            NaN
         13   -1    0    0    0    0  0.00000000000E+00  0.00000000000E+00  0.74505805969E-08  0.10566000000E+00  0.10566000000E+00 0.  1.
     999900   -1    0    0    0    0 -0.00000000000E+00 -0.00000000000E+00 -0.74505805969E-08  0.93827000000E+00  0.93827000000E+00 0.  1.
     999902    2    1    2    0    0 -0.86940624213E-02 -0.27226100057E-01  0.66225954484E-02  0.10145922084E+01  0.10141679562E+01 0.  0.
     999903    2    3    3    0    0  0.27889581213E-01  0.87709120560E-01 -0.78072884862E-01  0.12233563526E+00  0.19997843239E-01 0.  0.
         14    1    1    2    0    0  0.86940624213E-02  0.27226100057E-01 -0.66225954484E-02  0.29337791603E-01  0.00000000000E+00 0. -1.
     999901    1    3    3    0    0 -0.36583643634E-01 -0.11493522062E+00  0.84695480310E-01  0.89225657314E+00  0.88000000000E+00 0.  1.
        -11    1    4    4    0    0 -0.29888614162E-02  0.10258439532E-01 -0.10791194967E-01  0.15194732114E-01  0.51100000000E-03 0.  1.
         11    1    4    4    0    0  0.30878442629E-01  0.77450681028E-01 -0.67281689895E-01  0.10714090315E+00  0.51100000000E-03 0. -1.
</event>
<event>
 8    1  0.1088270E+005  0.1043930E+01  0.7957747E-01            NaN
         13   -1    0    0    0    0  0.00000000000E+00  0.00000000000E+00  0.74505805969E-08  0.10566000000E+00  0.10566000000E+00 0.  1.
     999900   -1    0    0    0    0 -0.00000000000E+00 -0.00000000000E+00 -0.74505805969E-08  0.93827000000E+00  0.93827000000E+00 0.  1.
     999902    2    1    2    0    0 -0.15378558209E-01 -0.17236300637E-01  0.17504731974E-02  0.10207642005E+01  0.10205012977E+01 0.  0.
     999903    2    3    3    0    0  0.85291846499E-01  0.82994709228E-01 -0.43439087099E-01  0.12822687234E+00  0.19807969660E-01 0.  0.
         14    1    1    2    0    0  0.15378558209E-01  0.17236300637E-01 -0.17504731974E-02  0.23165799547E-01  0.00000000000E+00 0. -1.
     999901    1    3    3    0    0 -0.10067040471E+00 -0.10023100987E+00  0.45189560296E-01  0.89253732812E+00  0.88000000000E+00 0. -1.
        -11    1    4    4    0    0  0.71776138349E-01  0.77936214316E-01 -0.35466408687E-01  0.11173179854E+00  0.51100000000E-03 0. -1.
         11    1    4    4    0    0  0.13515708150E-01  0.50584949121E-02 -0.79726784119E-02  0.16495073799E-01  0.51100000000E-03 0.  1.
</event>
<event>
 8    1  0.1088270E+005  0.1043930E+01  0.7957747E-01            NaN
         13   -1    0    0    0    0  0.00000000000E+00  0.00000000000E+00  0.74505805969E-08  0.10566000000E+00  0.10566000000E+00 0. -1.
     999900   -1    0    0    0    0 -0.00000000000E+00 -0.00000000000E+00 -0.74505805969E-08  0.93827000000E+00  0.93827000000E+00 0.  1.
     999902    2    1    2    0    0  0.87379792886E-02 -0.21201318738E-01 -0.49576215525E-02  0.10204688361E+01  0.10201991077E+01 0.  0.
     999903    2    3    3    0    0 -0.11723535200E+00 -0.53006636168E-01  0.12009810723E-01  0.13076734003E+00  0.20050696515E-01 0.  0.
         14    1    1    2    0    0 -0.87379792886E-02  0.21201318738E-01  0.49576215525E-02  0.23461163861E-01  0.00000000000E+00 0.  1.
     999901    1    3    3    0    0  0.12597333128E+00  0.31805317431E-01 -0.16967432276E-01  0.88970149610E+00  0.88000000000E+00 0. -1.
        -11    1    4    4    0    0 -0.51757071864E-01 -0.15702835495E-01 -0.19512933796E-02  0.54124321680E-01  0.51100000000E-03 0.  1.
         11    1    4    4    0    0 -0.65478280132E-01 -0.37303800673E-01  0.13961104103E-01  0.76643018354E-01  0.51100000000E-03 0. -1.
</event>
<event>
 8    1  0.1088270E+005  0.1043930E+01  0.7957747E-01            NaN
         13   -1    0    0    0    0  0.00000000000E+00  0.00000000000E+00  0.74505805969E-08  0.10566000000E+00  0.10566000000E+00 0. -1.
     999900   -1    0    0    0    0 -0.00000000000E+00 -0.00000000000E+00 -0.74505805969E-08  0.93827000000E+00  0.93827000000E+00 0. -1.
     999902    2    1    2    0    0 -0.16481749932E-01 -0.42485984461E-02 -0.16478168274E-01  0.10202397341E+01  0.10199646495E+01 0.  0.
     999903    2    3    3    0    0 -0.76839042988E-01  0.13535858149E-01  0.99018048563E-01  0.13046523129E+00  0.33602747660E-01 0.  0.
         14    1    1    2    0    0  0.16481749932E-01  0.42485984461E-02  0.16478168274E-01  0.23690265918E-01  0.00000000000E+00 0. -1.
     999901    1    3    3    0    0  0.60357293056E-01 -0.17784456595E-01 -0.11549621684E+00  0.88977450280E+00  0.88000000000E+00 0. -1.
        -11    1    4    4    0    0 -0.35811208287E-01 -0.69252522945E-02  0.60201319385E-01  0.70390778764E-01  0.51100000000E-03 0.  1.
         11    1    4    4    0    0 -0.41027834700E-01  0.20461110443E-01  0.38816729178E-01  0.60074452522E-01  0.51100000000E-03 0. -1.
</event>
<event>
 8    1  0.1088270E+005  0.1043930E+01  0.7957747E-01            NaN
         13   -1    0    0    0    0  0.00000000000E+00  0.00000000000E+00  0.74505805969E-08  0.10566000000E+00  0.10566000000E+00 0.  1.
     999900   -1    0    0    0    0 -0.00000000000E+00 -0.00000000000E+00 -0.74505805969E-08  0.93827000000E+00  0.93827000000E+00 0.  1.
     999902    2    1    2    0    0  0.10824392926E-02 -0.21853057552E-01 -0.82147842899E-02  0.10205588537E+01  0.10202912150E+01 0.  0.
     999903    2    3    3    0    0 -0.14127018961E-02  0.37001929094E-01 -0.12411618333E+00  0.13100656771E+00  0.19666096090E-01 0.  0.
         14    1    1    2    0    0 -0.10824392926E-02  0.21853057552E-01  0.82147842899E-02  0.23371146316E-01  0.00000000000E+00 0. -1.
     999901    1    3    3    0    0  0.24951411887E-02 -0.58854986646E-01  0.11590139904E+00  0.88955228597E+00  0.88000000000E+00 0. -1.
        -11    1    4    4    0    0  0.87786176460E-02  0.21421998895E-01 -0.74182801698E-01  0.77713032068E-01  0.51100000000E-03 0.  1.
         11    1    4    4    0    0 -0.10191319542E-01  0.15579930199E-01 -0.49933381632E-01  0.53293535642E-01  0.51100000000E-03 0. -1.
</event>
<event>
 8    1  0.1088270E+005  0.1043930E+01  0.7957747E-01            NaN
         13   -1    0    0    0    0  0.00000000000E+00  0.00000000000E+00  0.74505805969E-08  0.10566000000E+00  0.10566000000E+00 0. -1.
     999900   -1    0    0    0    0 -0.00000000000E+00 -0.00000000000E+00 -0.74505805969E-08  0.93827000000E+00  0.93827000000E+00 0.  1.
     999902    2    1    2    0    0 -0.94505256568E-02 -0.11916765915E-02 -0.19205043087E-01  0.10224925046E+01  0.10222677515E+01 0.  0.
     999903    2    3    3    0    0 -0.23637573490E-02  0.80216011120E-01 -0.10650079988E+00  0.13440580668E+00  0.16801925656E-01 0.  0.
         14    1    1    2    0    0  0.94505256568E-02  0.11916765915E-02  0.19205043087E-01  0.21437495382E-01  0.00000000000E+00 0. -1.
     999901    1    3    3    0    0 -0.70867683079E-02 -0.81407687712E-01  0.87295756789E-01  0.88808669794E+00  0.88000000000E+00 0. -1.
        -11    1    4    4    0    0 -0.93740994534E-02  0.37666646639E-01 -0.48210056934E-01  0.61896047695E-01  0.51100000000E-03 0. -1.
         11    1    4    4    0    0  0.70103421044E-02  0.42549364481E-01 -0.58290742942E-01  0.72509758984E-01  0.51100000000E-03 0.  1.
</event>
<event>
 8    1  0.1088270E+005  0.1043930E+01  0.7957747E-01            NaN
         13   -1    0    0    0    0  0.00000000000E+00  0.00000000000E+00  0.74505805969E-08  0.10566000000E+00  0.10566000000E+00 0. -1.
     999900   -1    0    0    0    0 -0.00000000000E+00 -0.00000000000E+00 -0.74505805969E-08  0.93827000000E+00  0.93827000000E+00 0.  1.
     999902    2    1    2    0    0 -0.16353537489E-01  0.16313798673E-01  0.37671899567E-03  0.10208276163E+01  0.10205661674E+01 0.  0.
     999903    2    3    3    0    0  0.23465307725E-01 -0.53460063152E-02 -0.12669504800E+00  0.13054568255E+00  0.20281508727E-01 0.  0.
         14    1    1    2    0    0  0.16353537489E-01 -0.16313798673E-01 -0.37671899567E-03  0.23102383703E-01  0.00000000000E+00 0. -1.
     999901    1    3    3    0    0 -0.39818845214E-01  0.21659804989E-01  0.12707176699E+00  0.89028193374E+00  0.88000000000E+00 0. -1.
        -11    1    4    4    0    0  0.33229562634E-02  0.68299585436E-02 -0.39593839696E-01  0.40319023239E-01  0.51100000000E-03 0. -1.
         11    1    4    4    0    0  0.20142351462E-01 -0.12175964859E-01 -0.87101208299E-01  0.90226659313E-01  0.51100000000E-03 0.  1.
</event>
<event>
 8    1  0.1088270E+005  0.1043930E+01  0.7957747E-01            NaN
         13   -1    0    0    0    0  0.00000000000E+00  0.00000000000E+00  0.74505805969E-08  0.10566000000E+00  0.10566000000E+00 0. -1.
     999900   -1    0    0    0    0 -0.00000000000E+00 -0.00000000000E+00 -0.74505805969E-08  0.93827000000E+00  0.93827000000E+00 0. -1.
     999902    2    1    2    0    0 -0.20717904291E-01 -0.54627624721E-02  0.99193804291E-02  0.10203192516E+01  0.10200460322E+01 0.  0.
     999903    2    3    3    0    0 -0.12182447750E+00 -0.49844445626E-01  0.10253930413E-01  0.13341881476E+00  0.19229273600E-01 0.  0.
         14    1    1    2    0    0  0.20717904291E-01  0.54627624721E-02 -0.99193804291E-02  0.23610748403E-01  0.00000000000E+00 0. -1.
     999901    1    3    3    0    0  0.10110657321E+00  0.44381683154E-01 -0.33454998403E-03  0.88690043684E+00  0.88000000000E+00 0. -1.
        -11    1    4    4    0    0 -0.20259932818E-01 -0.13009673021E-01  0.79304250797E-02  0.25354866058E-01  0.51100000000E-03 0. -1.
         11    1    4    4    0    0 -0.10156454469E+00 -0.36834772605E-01  0.23235053334E-02  0.10806394870E+00  0.51100000000E-03 0.  1.
</event>
<event>
 8    1  0.1088270E+005  0.1043930E+01  0.7957747E-01            NaN
         13   -1    0    0    0    0  0.00000000000E+00  0.00000000000E+00  0.74505805969E-08  0.10566000000E+00  0.10566000000E+00 0.  1.
     999900   -1    0    0    0    0 -0.00000000000E+00 -0.00000000000E+00 -0.74505805969E-08  0.93827000000E+00  0.93827000000E+00 0. -1.
     999902    2    1    2    0    0 -0.18632381469E-01  0.10715492471E-02 -0.15111984261E-01  0.10199157141E+01  0.10196329624E+01 0.  0.
     999903    2    3    3    0    0 -0.77487187595E-01 -0.10218608224E+00  0.19253316596E-01  0.13126111275E+00  0.20310831519E-01 0.  0.
         14    1    1    2    0    0  0.18632381469E-01 -0.10715492471E-02  0.15111984261E-01  0.24014285859E-01  0.00000000000E+00 0.  1.
     999901    1    3    3    0    0  0.58854806126E-01  0.10325763148E+00 -0.34365300856E-01  0.88865460139E+00  0.88000000000E+00 0. -1.
        -11    1    4    4    0    0 -0.68304173283E-01 -0.93560478994E-01  0.23008884903E-01  0.11810458595E+00  0.51100000000E-03 0. -1.
         11    1    4    4    0    0 -0.91830143124E-02 -0.86256032438E-02 -0.37555683073E-02  0.13156526802E-01  0.51100000000E-03 0.  1.
</event>
<event>
 8    1  0.1088270E+005  0.1043930E+01  0.7957747E-01            NaN
         13   -1    0    0    0    0  0.00000000000E+00  0.00000000000E+00  0.74505805969E-08  0.10566000000E+00  0.10566000000E+00 0.  1.
     999900   -1    0    0    0    0 -0.00000000000E+00 -0.00000000000E+00 -0.74505805969E-08  0.93827000000E+00  0.93827000000E+00 0.  1.
     999902    2    1    2    0    0  0.52623687550E-02 -0.18647489460E-01 -0.12395974483E-01  0.10209282268E+01  0.10206690760E+01 0.  0.
     999903    2    3    3    0    0 -0.66161766520E-01  0.86153000181E-02 -0.11217620243E+00  0.13199585551E+00  0.19692707745E-01 0.  0.
         14    1    1    2    0    0 -0.52623687550E-02  0.18647489460E-01  0.12395974483E-01  0.23001773225E-01  0.00000000000E+00 0. -1.
     999901    1    3    3    0    0  0.71424135275E-01 -0.27262789478E-01  0.99780227943E-01  0.88893237126E+00  0.88000000000E+00 0. -1.
        -11    1    4    4    0    0 -0.58368917033E-01  0.17278305391E-02 -0.87327989655E-01  0.10505405643E+00  0.51100000000E-03 0.  1.
         11    1    4    4    0    0 -0.77928494870E-02  0.68874694790E-02 -0.24848212771E-01  0.26941799084E-01  0.51100000000E-03 0. -1.
</event>
<event>
 8    1  0.1088270E+005  0.1043930E+01  0.7957747E-01            NaN
         13   -1    0    0    0    0  0.00000000000E+00  0.00000000000E+00  0.74505805969E-08  0.10566000000E+00  0.10566000000E+00 0.  1.
     999900   -1    0    0    0    0 -0.00000000000E+00 -0.00000000000E+00 -0.74505805969E-08  0.93827000000E+00  0.93827000000E+00 0. -1.
     999902    2    1    2    0    0  0.20253716686E-01 -0.10877475077E-01  0.50308759474E-02  0.10203961474E+01  0.10201247255E+01 0.  0.
     999903    2    3    3    0    0 -0.26751385251E-01 -0.97767005519E-01  0.81450648274E-01  0.13157712665E+00  0.20107415862E-01 0.  0.
         14    1    1    2    0    0 -0.20253716686E-01  0.10877475077E-01 -0.50308759474E-02  0.23533852563E-01  0.00000000000E+00 0.  1.
     999901    1    3    3    0    0  0.47005101937E-01  0.86889530441E-01 -0.76419772326E-01  0.88881902079E+00  0.88000000000E+00 0. -1.
        -11    1    4    4    0    0 -0.20814752167E-01 -0.38546291991E-01  0.35241755951E-01  0.56225554844E-01  0.51100000000E-03 0. -1.
         11    1    4    4    0    0 -0.59366330846E-02 -0.59220713528E-01  0.46208892323E-01  0.75351571808E-01  0.51100000000E-03 0.  1.
</event>
<event>
 8    1  0.1088270E+005  0.1043930E+01  0.7957747E-01            NaN
         13   -1    0    0    0    0  0.00000000000E+00  0.00000000000E+00  0.74505805969E-08  0.10566000000E+00  0.10566000000E+00 0. -1.
     999900   -1    0    0    0    0 -0.00000000000E+00 -0.00000000000E+00 -0.74505805969E-08  0.93827000000E+00  0.93827000000E+00 0.  1.
     999902    2    1    2    0    0  0.75329628255E-02 -0.27050079509E-02  0.21330871794E-01  0.10211469210E+01  0.10208927297E+01 0.  0.
     999903    2    3    3    0    0 -0.48272123201E-01  0.87083301773E-01 -0.79456968844E-01  0.12910749530E+00  0.21015140242E-01 0.  0.
         14    1    1    2    0    0 -0.75329628255E-02  0.27050079509E-02 -0.21330871794E-01  0.22783078994E-01  0.00000000000E+00 0.  1.
     999901    1    3    3    0    0  0.55805086026E-01 -0.89788309724E-01  0.10078784064E+00  0.89203942570E+00  0.88000000000E+00 0. -1.
        -11    1    4    4    0    0 -0.89237200779E-02  0.27980975213E-01 -0.33373697995E-01  0.44459336396E-01  0.51100000000E-03 0.  1.
         11    1    4    4    0    0 -0.39348403123E-01  0.59102326561E-01 -0.46083270849E-01  0.84648158907E-01  0.51100000000E-03 0. -1.
</event>
<event>
 8    1  0.1088270E+005  0.1043930E+01  0.7957747E-01            NaN
         13   -1    0    0    0    0  0.00000000000E+00  0.00000000000E+00  0.74505805969E-08  0.10566000000E+00  0.10566000000E+00 0. -1.
     999900   -1    0    0    0    0 -0.00000000000E+00 -0.00000000000E+00 -0.74505805969E-08  0.93827000000E+00  0.93827000000E+00 0. -1.
     999902    2    1    2    0    0 -0.71816638031E-02 -0.22317310182E-01  0.36931608036E-02  0.10201965202E+01  0.10199204193E+01 0.  0.
     999903    2    3    3    0    0  0.69433335326E-02 -0.41071104490E-01  0.12353586576E+00  0.13176335200E+00  0.19116100481E-01 0.  0.
         14    1    1    2    0    0  0.71816638031E-02  0.22317310182E-01 -0.36931608036E-02  0.23733479843E-01  0.00000000000E+00 0.  1.
     999901    1    3    3    0    0 -0.14124997336E-01  0.18753794308E-01 -0.11984270495E+00  0.88843316816E+00  0.88000000000E+00 0. -1.
        -11    1    4    4    0    0  0.12547013707E-01 -0.20481993906E-01  0.74656664039E-01  0.78427152402E-01  0.51100000000E-03 0. -1.
         11    1    4    4    0    0 -0.56036801747E-02 -0.20589110584E-01  0.48879201717E-01  0.53336199598E-01  0.51100000000E-03 0.  1.
</event>
<event>
 8    1  0.1088270E+005  0.1043930E+01  0.7957747E-01            NaN
         13   -1    0    0    0    0  0.00000000000E+00  0.00000000000E+00  0.74505805969E-08  0.10566000000E+00  0.10566000000E+00 0.  1.
     999900   -1    0    0    0    0 -0.00000000000E+00 -0.00000000000E+00 -0.74505805969E-08  0.93827000000E+00  0.93827000000E+00 0.  1.
     999902    2    1    2    0    0 -0.13446770233E-01  0.19257953300E-01 -0.15364096250E-02  0.10203918406E+01  0.10201203181E+01 0.  0.
     999903    2    3    3    0    0 -0.24873993392E-01  0.46346219280E-01 -0.11940790957E+00  0.13204616118E+00  0.20279354706E-01 0.  0.
         14    1    1    2    0    0  0.13446770233E-01 -0.19257953300E-01  0.15364096250E-02  0.23538159434E-01  0.00000000000E+00 0.  1.
     999901    1    3    3    0    0  0.11427223158E-01 -0.27088265981E-01  0.11787149994E+00  0.88834567938E+00  0.88000000000E+00 0. -1.
        -11    1    4    4    0    0 -0.21756160724E-01  0.24257328416E-01 -0.55568649852E-01  0.64419597008E-01  0.51100000000E-03 0.  1.
         11    1    4    4    0    0 -0.31178326673E-02  0.22088890864E-01 -0.63839259714E-01  0.67626564173E-01  0.51100000000E-03 0. -1.
</event>
<event>
 8    1  0.1088270E+005  0.1043930E+01  0.7957747E-01            NaN
         13   -1    0    0    0    0  0.00000000000E+00  0.00000000000E+00  0.74505805969E-08  0.10566000000E+00  0.10566000000E+00 0. -1.
     999900   -1    0    0    0    0 -0.00000000000E+00 -0.00000000000E+00 -0.74505805969E-08  0.93827000000E+00  0.93827000000E+00 0. -1.
     999902    2    1    2    0    0  0.45601198160E-02  0.22746165766E-01  0.24136919081E-02  0.10206060068E+01  0.10203394594E+01 0.  0.
     999903    2    3    3    0    0  0.16455900417E-01 -0.12371454910E+00  0.21554860328E-01  0.12821672240E+00  0.19970718138E-01 0.  0.
         14    1    1    2    0    0 -0.45601198160E-02 -0.22746165766E-01 -0.24136919081E-02  0.23323993192E-01  0.00000000000E+00 0. -1.
     999901    1    3    3    0    0 -0.11895780601E-01  0.14646071486E+00 -0.19141168419E-01  0.89238928441E+00  0.88000000000E+00 0.  1.
        -11    1    4    4    0    0 -0.18358335416E-02 -0.53452243141E-01  0.13512015977E-01  0.55166550357E-01  0.51100000000E-03 0.  1.
         11    1    4    4    0    0  0.18291733959E-01 -0.70262305956E-01  0.80428443508E-02  0.73050172045E-01  0.51100000000E-03 0. -1.
</event>
<event>
 8    1  0.1088270E+005  0.1043930E+01  0.7957747E-01            NaN
         13   -1    0    0    0    0  0.00000000000E+00  0.00000000000E+00  0.74505805969E-08  0.10566000000E+00  0.10566000000E+00 0. -1.
     999900   -1    0    0    0    0 -0.00000000000E+00 -0.00000000000E+00 -0.74505805969E-08  0.93827000000E+00  0.93827000000E+00 0. -1.
     999902    2    1    2    0    0  0.58275090403E-02 -0.23611095436E-01  0.58228774222E-02  0.10189230092E+01  0.10186160950E+01 0.  0.
     999903    2    3    3    0    0 -0.77994433732E-01 -0.93663035180E-02  0.10118412765E+00  0.12969705349E+00  0.20303661275E-01 0.  0.
         14    1    1    2    0    0 -0.58275090403E-02  0.23611095436E-01 -0.58228774222E-02  0.25006990838E-01  0.00000000000E+00 0.  1.
     999901    1    3    3    0    0  0.83821942772E-01 -0.14244791918E-01 -0.95361250233E-01  0.88922595567E+00  0.88000000000E+00 0. -1.
        -11    1    4    4    0    0 -0.36473731600E-01 -0.11521392610E-01  0.36985994557E-01  0.53209966161E-01  0.51100000000E-03 0. -1.
         11    1    4    4    0    0 -0.41520702132E-01  0.21550890919E-02  0.64198133098E-01  0.76487087334E-01  0.51100000000E-03 0.  1.
</event>
<event>
 8    1  0.1088270E+005  0.1043930E+01  0.7957747E-01            NaN
         13   -1    0    0    0    0  0.00000000000E+00  0.00000000000E+00  0.74505805969E-08  0.10566000000E+00  0.10566000000E+00 0. -1.
     999900   -1    0    0    0    0 -0.00000000000E+00 -0.00000000000E+00 -0.74505805969E-08  0.93827000000E+00  0.93827000000E+00 0.  1.
     999902    2    1    2    0    0  0.29729308534E-02 -0.17309626231E-01  0.16470968099E-01  0.10198519131E+01  0.10195676390E+01 0.  0.
     999903    2    3    3    0    0  0.81124401770E-02 -0.14851316545E-01 -0.12623983468E+00  0.12833700517E+00  0.15732696785E-01 0.  0.
         14    1    1    2    0    0 -0.29729308534E-02  0.17309626231E-01 -0.16470968099E-01  0.24078086889E-01  0.00000000000E+00 0.  1.
     999901    1    3    3    0    0 -0.51395093236E-02 -0.24583096865E-02  0.14271080278E+00  0.89151490794E+00  0.88000000000E+00 0. -1.
        -11    1    4    4    0    0  0.87438823993E-02 -0.77957068902E-02 -0.36966176587E-01  0.38781282313E-01  0.51100000000E-03 0. -1.
         11    1    4    4    0    0 -0.63144222230E-03 -0.70556096546E-02 -0.89273658094E-01  0.89555722862E-01  0.51100000000E-03 0.  1.
</event>
<event>
 8    1  0.1088270E+005  0.1043930E+01  0.7957747E-01            NaN
         13   -1    0    0    0    0  0.00000000000E+00  0.00000000000E+00  0.74505805969E-08  0.10566000000E+00  0.10566000000E+00 0.  1.
     999900   -1    0    0    0    0 -0.00000000000E+00 -0.00000000000E+00 -0.74505805969E-08  0.93827000000E+00  0.93827000000E+00 0. -1.
     999902    2    1    2    0    0  0.27950780642E-02 -0.82245758587E-02  0.21500295053E-01  0.10207412355E+01  0.10204778053E+01 0.  0.
     999903    2    3    3    0    0  0.55107633363E-01 -0.11430668659E+00 -0.28555419994E-01  0.13141812651E+00  0.18773441601E-01 0.  0.
         14    1    1    2    0    0 -0.27950780642E-02  0.82245758587E-02 -0.21500295053E-01  0.23188764452E-01  0.00000000000E+00 0. -1.
     999901    1    3    3    0    0 -0.52312555299E-01  0.10608211073E+00  0.50055715047E-01  0.88932310904E+00  0.88000000000E+00 0. -1.
        -11    1    4    4    0    0  0.14866831013E-01 -0.31322201170E-01  0.63492512102E-03  0.34680934264E-01  0.51100000000E-03 0.  1.
         11    1    4    4    0    0  0.40240802350E-01 -0.82984485424E-01 -0.29190345115E-01  0.96737192246E-01  0.51100000000E-03 0. -1.
</event>
<event>
 8    1  0.1088270E+005  0.1043930E+01  0.7957747E-01            NaN
         13   -1    0    0    0    0  0.00000000000E+00  0.00000000000E+00  0.74505805969E-08  0.10566000000E+00  0.10566000000E+00 0.  1.
     999900   -1    0    0    0    0 -0.00000000000E+00 -0.00000000000E+00 -0.74505805969E-08  0.93827000000E+00  0.93827000000E+00 0. -1.
     999902    2    1    2    0    0 -0.14623000429E-01 -0.28882767606E-01  0.61387683337E-02  0.10109795693E+01  0.10104424569E+01 0.  0.
     999903    2    3    3    0    0  0.47251285584E-01 -0.92025979200E-01 -0.65050941410E-01  0.12368961263E+00  0.19131922496E-01 0.  0.
         14    1    1    2    0    0  0.14623000429E-01  0.28882767606E-01 -0.61387683337E-02  0.32950430692E-01  0.00000000000E+00 0. -1.
     999901    1    3    3    0    0 -0.61874286013E-01  0.63143211594E-01  0.71189709744E-01  0.88728995667E+00  0.88000000000E+00 0. -1.
        -11    1    4    4    0    0  0.26998107795E-01 -0.40605812958E-01 -0.21356634886E-01  0.53236236204E-01  0.51100000000E-03 0.  1.
         11    1    4    4    0    0  0.20253177788E-01 -0.51420166242E-01 -0.43694306525E-01  0.70453376431E-01  0.51100000000E-03 0. -1.
</event>
<event>
 8    1  0.1088270E+005  0.1043930E+01  0.7957747E-01            NaN
         13   -1    0    0    0    0  0.00000000000E+00  0.00000000000E+00  0.74505805969E-08  0.10566000000E+00  0.10566000000E+00 0. -1.
     999900   -1    0    0    0    0 -0.00000000000E+00 -0.00000000000E+00 -0.74505805969E-08  0.93827000000E+00  0.93827000000E+00 0.  1.
     999902    2    1    2    0    0 -0.13025917108E-01  0.25912804700E-01  0.10296664955E-01  0.10131538847E+01  0.10126863408E+01 0.  0.
     999903    2    3    3    0    0  0.84791547942E-01 -0.75284559712E-01 -0.35945935336E-01  0.12077081610E+00  0.20883204296E-01 0.  0.
         14    1    1    2    0    0  0.13025917108E-01 -0.25912804700E-01 -0.10296664955E-01  0.30776115302E-01  0.00000000000E+00 0.  1.
     999901    1    3    3    0    0 -0.97817465049E-01  0.10119736441E+00  0.46242600291E-01  0.89238306859E+00  0.88000000000E+00 0.  1.
        -11    1    4    4    0    0  0.64700169538E-01 -0.63656536281E-01 -0.21021772706E-01  0.93168892869E-01  0.51100000000E-03 0. -1.
         11    1    4    4    0    0  0.20091378404E-01 -0.11628023430E-01 -0.14924162630E-01  0.27601923235E-01  0.51100000000E-03 0.  1.
</event>
<event>
 8    1  0.1088270E+005  0.1043930E+01  0.7957747E-01            NaN
         13   -1    0    0    0    0  0.00000000000E+00  0.00000000000E+00  0.74505805969E-08  0.10566000000E+00  0.10566000000E+00 0. -1.
     999900   -1    0    0    0    0 -0.00000000000E+00 -0.00000000000E+00 -0.74505805969E-08  0.93827000000E+00  0.93827000000E+00 0. -1.
     999902    2    1    2    0    0 -0.30670892211E-02  0.23688951434E-01 -0.18501046135E-02  0.10199717792E+01  0.10196903618E+01 0.  0.
     999903    2    3    3    0    0  0.85153213993E-01  0.94340151270E-01  0.30348353281E-01  0.13215921193E+00  0.19846933137E-01 0.  0.
         14    1    1    2    0    0  0.30670892211E-02 -0.23688951434E-01  0.18501046135E-02  0.23958220790E-01  0.00000000000E+00 0.  1.
     999901    1    3    3    0    0 -0.88220303215E-01 -0.70651199835E-01 -0.32198457894E-01  0.88781256728E+00  0.88000000000E+00 0. -1.
        -11    1    4    4    0    0  0.15837605185E-01  0.28083960494E-01  0.12712978643E-01  0.34661499131E-01  0.51100000000E-03 0. -1.
         11    1    4    4    0    0  0.69315608808E-01  0.66256190775E-01  0.17635374638E-01  0.97497712794E-01  0.51100000000E-03 0.  1.
</event>
<event>
 8    1  0.1088270E+005  0.1043930E+01  0.7957747E-01            NaN
         13   -1    0    0    0    0  0.00000000000E+00  0.00000000000E+00  0.74505805969E-08  0.10566000000E+00  0.10566000000E+00 0. -1.
     999900   -1    0    0    0    0 -0.00000000000E+00 -0.00000000000E+00 -0.74505805969E-08  0.93827000000E+00  0.93827000000E+00 0. -1.
     999902    2    1    2    0    0 -0.94862706534E-02 -0.82898319821E-02  0.18935095437E-01  0.10211869025E+01  0.10209336126E+01 0.  0.
     999903    2    3    3    0    0  0.24171874111E-01  0.10755731676E+00 -0.63957347931E-01  0.12909689036E+00  0.20557452640E-01 0.  0.
         14    1    1    2    0    0  0.94862706534E-02  0.82898319821E-02 -0.18935095437E-01  0.22743097511E-01  0.00000000000E+00 0.  1.
     999901    1    3    3    0    0 -0.33658144764E-01 -0.11584714874E+00  0.82892443368E-01  0.89209001213E+00  0.88000000000E+00 0.  1.
        -11    1    4    4    0    0  0.44882421599E-02  0.62116821145E-01 -0.40568989695E-01  0.74328647457E-01  0.51100000000E-03 0.  1.
         11    1    4    4    0    0  0.19683631951E-01  0.45440495612E-01 -0.23388358236E-01  0.54768242899E-01  0.51100000000E-03 0. -1.
</event>
<event>
 8    1  0.1088270E+005  0.1043930E+01  0.7957747E-01            NaN
         13   -1    0    0    0    0  0.00000000000E+00  0.00000000000E+00  0.74505805969E-08  0.10566000000E+00  0.10566000000E+00 0.  1.
     999900   -1    0    0    0    0 -0.00000000000E+00 -0.00000000000E+00 -0.74505805969E-08  0.93827000000E+00  0.93827000000E+00 0. -1.
     999902    2    1    2    0    0 -0.12142518911E-01 -0.64812532651E-02 -0.18901155666E-01  0.10205483599E+01  0.10202804780E+01 0.  0.
     999903    2    3    3    0    0 -0.11709374005E+00  0.57167040553E-01  0.25000397132E-02  0.13177174267E+00  0.19455782819E-01 0.  0.
         14    1    1    2    0    0  0.12142518911E-01  0.64812532651E-02  0.18901155666E-01  0.23381640124E-01  0.00000000000E+00 0.  1.
     999901    1    3    3    0    0  0.10495122113E+00 -0.63648293818E-01 -0.21401195379E-01  0.88877661720E+00  0.88000000000E+00 0. -1.
        -11    1    4    4    0    0 -0.43571086100E-01  0.31900121687E-01  0.90006251006E-03  0.54010448444E-01  0.51100000000E-03 0.  1.
         11    1    4    4    0    0 -0.73522653945E-01  0.25266918866E-01  0.15999772032E-02  0.77761294229E-01  0.51100000000E-03 0. -1.
</event>
<event>
 8    1  0.1088270E+005  0.1043930E+01  0.7957747E-01            NaN
         13   -1    0    0    0    0  0.00000000000E+00  0.00000000000E+00  0.74505805969E-08  0.10566000000E+00  0.10566000000E+00 0. -1.
     999900   -1    0    0    0    0 -0.00000000000E+00 -0.00000000000E+00 -0.74505805969E-08  0.93827000000E+00  0.93827000000E+00 0.  1.
     999902    2    1    2    0    0  0.12094699904E-01 -0.10737407340E-01  0.17647344023E-01  0.10199925308E+01  0.10197116065E+01 0.  0.
     999903    2    3    3    0    0 -0.38902653308E-01  0.11113493852E+00 -0.45464705769E-01  0.12789571453E+00  0.20636940885E-01 0.  0.
         14    1    1    2    0    0 -0.12094699904E-01  0.10737407340E-01 -0.17647344023E-01  0.23937469232E-01  0.00000000000E+00 0.  1.
     999901    1    3    3    0    0  0.50997353212E-01 -0.12187234586E+00  0.63112049792E-01  0.89209681624E+00  0.88000000000E+00 0. -1.
        -11    1    4    4    0    0 -0.24970294658E-01  0.92556175193E-01 -0.32104854240E-01  0.10109967343E+00  0.51100000000E-03 0.  1.
         11    1    4    4    0    0 -0.13932358650E-01  0.18578763328E-01 -0.13359851529E-01  0.26796041093E-01  0.51100000000E-03 0. -1.
</event>
<event>
 8    1  0.1088270E+005  0.1043930E+01  0.7957747E-01            NaN
         13   -1    0    0    0    0  0.00000000000E+00  0.00000000000E+00  0.74505805969E-08  0.10566000000E+00  0.10566000000E+00 0.  1.
     999900   -1    0    0    0    0 -0.00000000000E+00 -0.00000000000E+00 -0.74505805969E-08  0.93827000000E+00  0.93827000000E+00 0. -1.
     999902    2    1    2    0    0  0.23407713056E-02  0.19721250616E-01 -0.84186337149E-02  0.10223596423E+01  0.10221320648E+01 0.  0.
     999903    2    3    3    0    0 -0.11113307169E+00  0.49695254579E-01  0.48747777365E-01  0.13272895912E+00  0.20504946729E-01 0.  0.
         14    1    1    2    0    0 -0.23407713056E-02 -0.19721250616E-01  0.84186337149E-02  0.21570357665E-01  0.00000000000E+00 0. -1.
     999901    1    3    3    0    0  0.11347384300E+00 -0.29974003964E-01 -0.57166411080E-01  0.88963068321E+00  0.88000000000E+00 0. -1.
        -11    1    4    4    0    0 -0.35093863385E-01  0.21805929559E-01  0.80963475464E-02  0.42105697664E-01  0.51100000000E-03 0.  1.
         11    1    4    4    0    0 -0.76039208307E-01  0.27889325021E-01  0.40651429819E-01  0.90623261458E-01  0.51100000000E-03 0. -1.
</event>
<event>
 8    1  0.1088270E+005  0.1043930E+01  0.7957747E-01            NaN
         13   -1    0    0    0    0  0.00000000000E+00  0.00000000000E+00  0.74505805969E-08  0.10566000000E+00  0.10566000000E+00 0.  1.
     999900   -1    0    0    0    0 -0.00000000000E+00 -0.00000000000E+00 -0.74505805969E-08  0.93827000000E+00  0.93827000000E+00 0.  1.
     999902    2    1    2    0    0  0.22822258021E-01  0.63328660756E-02  0.17644315373E-02  0.10201797606E+01  0.10199032650E+01 0.  0.
     999903    2    3    3    0    0  0.12171322571E+00 -0.11385686676E-01  0.48814967726E-01  0.13321464088E+00  0.20481608797E-01 0.  0.
         14    1    1    2    0    0 -0.22822258021E-01 -0.63328660756E-02 -0.17644315373E-02  0.23750239421E-01  0.00000000000E+00 0.  1.
     999901    1    3    3    0    0 -0.98890967685E-01  0.17718552752E-01 -0.47050536189E-01  0.88696511970E+00  0.88000000000E+00 0.  1.
        -11    1    4    4    0    0  0.86415588833E-01 -0.35409265950E-02  0.25433258944E-01  0.90151560918E-01  0.51100000000E-03 0.  1.
         11    1    4    4    0    0  0.35297636872E-01 -0.78447600814E-02  0.23381708782E-01  0.43063079965E-01  0.51100000000E-03 0. -1.
</event>
<event>
 8    1  0.1088270E+005  0.1043930E+01  0.7957747E-01            NaN
         13   -1    0    0    0    0  0.00000000000E+00  0.00000000000E+00  0.74505805969E-08  0.10566000000E+00  0.10566000000E+00 0. -1.
     999900   -1    0    0    0    0 -0.00000000000E+00 -0.00000000000E+00 -0.74505805969E-08  0.93827000000E+00  0.93827000000E+00 0.  1.
     999902    2    1    2    0    0 -0.16112198052E-01 -0.18382875983E-01  0.17208015455E-02  0.10194250166E+01  0.10191304481E+01 0.  0.
     999903    2    3    3    0    0  0.14815699462E-01 -0.78545413197E-01  0.10205615020E+00  0.13114395298E+00  0.19859298155E-01 0.  0.
         14    1    1    2    0    0  0.16112198052E-01  0.18382875983E-01 -0.17208015455E-02  0.24504983441E-01  0.00000000000E+00 0.  1.
     999901    1    3    3    0    0 -0.30927897514E-01  0.60162537214E-01 -0.10033534866E+00  0.88828106358E+00  0.88000000000E+00 0.  1.
        -11    1    4    4    0    0 -0.45691403844E-03 -0.26884043618E-01  0.22505605398E-01  0.35067420307E-01  0.51100000000E-03 0.  1.
         11    1    4    4    0    0  0.15272613500E-01 -0.51661369579E-01  0.79550544805E-01  0.96076532669E-01  0.51100000000E-03 0. -1.
</event>
<event>
 8    1  0.1088270E+005  0.1043930E+01  0.7957747E-01            NaN
         13   -1    0    0    0    0  0.00000000000E+00  0.00000000000E+00  0.74505805969E-08  0.10566000000E+00  0.10566000000E+00 0. -1.
     999900   -1    0    0    0    0 -0.00000000000E+00 -0.00000000000E+00 -0.74505805969E-08  0.93827000000E+00  0.93827000000E+00 0. -1.
     999902    2    1    2    0    0  0.13786106305E-01  0.24062472895E-02  0.19107275701E-01  0.10202459392E+01  0.10199710004E+01 0.  0.
     999903    2    3    3    0    0  0.16804575073E-01 -0.87433144819E-01 -0.91177666423E-01  0.12881843454E+00  0.18811530185E-01 0.  0.
         14    1    1    2    0    0 -0.13786106305E-01 -0.24062472895E-02 -0.19107275701E-01  0.23684060838E-01  0.00000000000E+00 0.  1.
     999901    1    3    3    0    0 -0.30184687681E-02  0.89839392109E-01  0.11028494212E+00  0.89142750462E+00  0.88000000000E+00 0.  1.
        -11    1    4    4    0    0 -0.18834257745E-02 -0.31256204053E-01 -0.25427703701E-01  0.40340139079E-01  0.51100000000E-03 0.  1.
         11    1    4    4    0    0  0.18688000848E-01 -0.56176940767E-01 -0.65749962722E-01  0.88478295466E-01  0.51100000000E-03 0. -1.
</event>
<event>
 8    1  0.1088270E+005  0.1043930E+01  0.7957747E-01            NaN
         13   -1    0    0    0    0  0.00000000000E+00  0.00000000000E+00  0.74505805969E-08  0.10566000000E+00  0.10566000000E+00 0. -1.
     999900   -1    0    0    0    0 -0.00000000000E+00 -0.00000000000E+00 -0.74505805969E-08  0.93827000000E+00  0.93827000000E+00 0. -1.
     999902    2    1    2    0    0 -0.18541951770E-01  0.51268448694E-02  0.16681977230E-01  0.10184667544E+01  0.10181483943E+01 0.  0.
     999903    2    3    3    0    0 -0.60544903323E-01 -0.11086212289E+00  0.21976226753E-01  0.12984663437E+00  0.20520679946E-01 0.  0.
         14    1    1    2    0    0  0.18541951770E-01 -0.51268448694E-02 -0.16681977230E-01  0.25463245631E-01  0.00000000000E+00 0.  1.
     999901    1    3    3    0    0  0.42002951553E-01  0.11598896776E+00 -0.52942495230E-02  0.88862011999E+00  0.88000000000E+00 0.  1.
        -11    1    4    4    0    0 -0.15022457984E-01 -0.13951257212E-01 -0.17183871807E-03  0.20508595057E-01  0.51100000000E-03 0.  1.
         11    1    4    4    0    0 -0.45522445338E-01 -0.96910865680E-01  0.22148065471E-01  0.10933803932E+00  0.51100000000E-03 0. -1.
</event>
<event>
 8    1  0.1088270E+005  0.1043930E+01  0.7957747E-01            NaN
         13   -1    0    0    0    0  0.00000000000E+00  0.00000000000E+00  0.74505805969E-08  0.10566000000E+00  0.10566000000E+00 0.  1.
     999900   -1    0    0    0    0 -0.00000000000E+00 -0.00000000000E+00 -0.74505805969E-08  0.93827000000E+00  0.93827000000E+00 0.  1.
     999902    2    1    2    0    0  0.22948730635E-01  0.75879123036E-02  0.73898808228E-04  0.10197592302E+01  0.10194727370E+01 0.  0.
     999903    2    3    3    0    0  0.57780159989E-01 -0.22547436378E-01  0.11388251690E+00  0.13123586572E+00  0.20166581750E-01 0.  0.
         14    1    1    2    0    0 -0.22948730635E-01 -0.75879123036E-02 -0.73898808228E-04  0.24170769783E-01  0.00000000000E+00 0. -1.
     999901    1    3    3    0    0 -0.34831429355E-01  0.30135348682E-01 -0.11380861809E+00  0.88852336450E+00  0.88000000000E+00 0.  1.
        -11    1    4    4    0    0  0.35104474696E-01 -0.31158440045E-02  0.65368837786E-01  0.74265595682E-01  0.51100000000E-03 0.  1.
         11    1    4    4    0    0  0.22675685294E-01 -0.19431592373E-01  0.48513679114E-01  0.56970270035E-01  0.51100000000E-03 0. -1.
</event>
<event>
 8    1  0.1088270E+005  0.1043930E+01  0.7957747E-01            NaN
         13   -1    0    0    0    0  0.00000000000E+00  0.00000000000E+00  0.74505805969E-08  0.10566000000E+00  0.10566000000E+00 0. -1.
     999900   -1    0    0    0    0 -0.00000000000E+00 -0.00000000000E+00 -0.74505805969E-08  0.93827000000E+00  0.93827000000E+00 0. -1.
     999902    2    1    2    0    0 -0.17165139335E-01  0.20233422870E-01 -0.31140976869E-02  0.10172142553E+01  0.10168633685E+01 0.  0.
     999903    2    3    3    0    0  0.28892148096E-01  0.12221129191E+00  0.25477471305E-01  0.12966806648E+00  0.19858243352E-01 0.  0.
         14    1    1    2    0    0  0.17165139335E-01 -0.20233422870E-01  0.31140976869E-02  0.26715744681E-01  0.00000000000E+00 0. -1.
     999901    1    3    3    0    0 -0.46057287432E-01 -0.10197786904E+00 -0.28591568991E-01  0.88754618884E+00  0.88000000000E+00 0. -1.
        -11    1    4    4    0    0  0.10104555898E-01  0.50790736297E-01  0.77582638732E-03  0.51794439576E-01  0.51100000000E-03 0.  1.
         11    1    4    4    0    0  0.18787592199E-01  0.71420555615E-01  0.24701644917E-01  0.77873626907E-01  0.51100000000E-03 0. -1.
</event>
<event>
 8    1  0.1088270E+005  0.1043930E+01  0.7957747E-01            NaN
         13   -1    0    0    0    0  0.00000000000E+00  0.00000000000E+00  0.74505805969E-08  0.10566000000E+00  0.10566000000E+00 0. -1.
     999900   -1    0    0    0    0 -0.00000000000E+00 -0.00000000000E+00 -0.74505805969E-08  0.93827000000E+00  0.93827000000E+00 0. -1.
     999902    2    1    2    0    0  0.21028103251E-01 -0.11017135511E-01  0.51644824730E-02  0.10196353446E+01  0.10193458715E+01 0.  0.
     999903    2    3    3    0    0  0.37821367657E-01 -0.23670379525E-01  0.12203718069E+00  0.13165936188E+00  0.21221955189E-01 0.  0.
         14    1    1    2    0    0 -0.21028103251E-01  0.11017135511E-01 -0.51644824730E-02  0.24294655388E-01  0.00000000000E+00 0. -1.
     999901    1    3    3    0    0 -0.16793264406E-01  0.12653244014E-01 -0.11687269822E+00  0.88797598273E+00  0.88000000000E+00 0. -1.
        -11    1    4    4    0    0  0.98013222563E-02  0.28227679551E-02  0.35031239035E-01  0.36489488435E-01  0.51100000000E-03 0. -1.
         11    1    4    4    0    0  0.28020045401E-01 -0.26493147480E-01  0.87005941657E-01  0.95169873449E-01  0.51100000000E-03 0.  1.
</event>
<event>
 8    1  0.1088270E+005  0.1043930E+01  0.7957747E-01            NaN
         13   -1    0    0    0    0  0.00000000000E+00  0.00000000000E+00  0.74505805969E-08  0.10566000000E+00  0.10566000000E+00 0. -1.
     999900   -1    0    0    0    0 -0.00000000000E+00 -0.00000000000E+00 -0.74505805969E-08  0.93827000000E+00  0.93827000000E+00 0. -1.
     999902    2    1    2    0    0 -0.89025128889E-02 -0.20983281439E-01 -0.10948964386E-01  0.10186429943E+01  0.10183290810E+01 0.  0.
     999903    2    3    3    0    0  0.62489531166E-01  0.39526561800E-01 -0.10359237404E+00  0.12884466523E+00  0.20056849354E-01 0.  0.
         14    1    1    2    0    0  0.89025128889E-02  0.20983281439E-01  0.10948964386E-01  0.25287005691E-01  0.00000000000E+00 0. -1.
     999901    1    3    3    0    0 -0.71392044054E-01 -0.60509843239E-01  0.92643409652E-01  0.88979832908E+00  0.88000000000E+00 0.  1.
        -11    1    4    4    0    0  0.31229831348E-01  0.10297084819E-01 -0.35273620663E-01  0.48226774281E-01  0.51100000000E-03 0. -1.
         11    1    4    4    0    0  0.31259699818E-01  0.29229476981E-01 -0.68318753374E-01  0.80617890948E-01  0.51100000000E-03 0.  1.
</event>
<event>
 8    1  0.1088270E+005  0.1043930E+01  0.7957747E-01            NaN
         13   -1    0    0    0    0  0.00000000000E+00  0.00000000000E+00  0.74505805969E-08  0.10566000000E+00  0.10566000000E+00 0.  1.
     999900   -1    0    0    0    0 -0.00000000000E+00 -0.00000000000E+00 -0.74505805969E-08  0.93827000000E+00  0.93827000000E+00 0. -1.
     999902    2    1    2    0    0 -0.27555747307E-02  0.21317053169E-01  0.89265163215E-02  0.10206557086E+01  0.10203903090E+01 0.  0.
     999903    2    3    3    0    0 -0.64681264277E-01 -0.83639791190E-01  0.72489135365E-01  0.12998689428E+00  0.21509005569E-01 0.  0.
         14    1    1    2    0    0  0.27555747307E-02 -0.21317053169E-01 -0.89265163215E-02  0.23274291430E-01  0.00000000000E+00 0. -1.
     999901    1    3    3    0    0  0.61925689547E-01  0.10495684436E+00 -0.63562619044E-01  0.89066881429E+00  0.88000000000E+00 0.  1.
        -11    1    4    4    0    0 -0.47621217864E-01 -0.65379005833E-01  0.43968697292E-01  0.92063577255E-01  0.51100000000E-03 0. -1.
         11    1    4    4    0    0 -0.17060046414E-01 -0.18260785357E-01  0.28520438074E-01  0.37923317028E-01  0.51100000000E-03 0.  1.
</event>
<event>
 8    1  0.1088270E+005  0.1043930E+01  0.7957747E-01            NaN
         13   -1    0    0    0    0  0.00000000000E+00  0.00000000000E+00  0.74505805969E-08  0.10566000000E+00  0.10566000000E+00 0.  1.
     999900   -1    0    0    0    0 -0.00000000000E+00 -0.00000000000E+00 -0.74505805969E-08  0.93827000000E+00  0.93827000000E+00 0.  1.
     999902    2    1    2    0    0  0.82979583176E-02 -0.18488833131E-01 -0.13269765935E-01  0.10197064629E+01  0.10194187023E+01 0.  0.
     999903    2    3    3    0    0 -0.63014232932E-01 -0.10940275979E+00 -0.35791255455E-01  0.13186752018E+00  0.12971950835E-01 0.  0.
         14    1    1    2    0    0 -0.82979583176E-02  0.18488833131E-01  0.13269765935E-01  0.24223537123E-01  0.00000000000E+00 0.  1.
     999901    1    3    3    0    0  0.71312191249E-01  0.90913926663E-01  0.22521489520E-01  0.88783894270E+00  0.88000000000E+00 0.  1.
        -11    1    4    4    0    0 -0.38379209182E-02 -0.12419892099E-01 -0.10014346198E-02  0.13047886764E-01  0.51100000000E-03 0.  1.
         11    1    4    4    0    0 -0.59176312013E-01 -0.96982867695E-01 -0.34789820836E-01  0.11881963341E+00  0.51100000000E-03 0. -1.
</event>
<event>
 8    1  0.1088270E+005  0.1043930E+01  0.7957747E-01            NaN
         13   -1    0    0    0    0  0.00000000000E+00  0.00000000000E+00  0.74505805969E-08  0.10566000000E+00  0.10566000000E+00 0.  1.
     999900   -1    0    0    0    0 -0.00000000000E+00 -0.00000000000E+00 -0.74505805969E-08  0.93827000000E+00  0.93827000000E+00 0.  1.
     999902    2    1    2    0    0  0.20338024204E-01  0.15224810158E-01 -0.19234274108E-03  0.10185239561E+01  0.10182070428E+01 0.  0.
     999903    2    3    3    0    0 -0.12463680536E+00  0.32838623005E-02 -0.70900331860E-02  0.12655542210E+00  0.20515586518E-01 0.  0.
         14    1    1    2    0    0 -0.20338024204E-01 -0.15224810158E-01  0.19234274108E-03  0.25406043939E-01  0.00000000000E+00 0.  1.
     999901    1    3    3    0    0  0.14497482957E+00  0.11940947858E-01  0.68976904449E-02  0.89196853396E+00  0.88000000000E+00 0. -1.
        -11    1    4    4    0    0 -0.69290021061E-01 -0.83649612372E-02 -0.39114395730E-02  0.69904506834E-01  0.51100000000E-03 0. -1.
         11    1    4    4    0    0 -0.55346784300E-01  0.11648823538E-01 -0.31785936129E-02  0.56650915266E-01  0.51100000000E-03 0.  1.
</event>
<event>
 8    1  0.1088270E+005  0.1043930E+01  0.7957747E-01            NaN
         13   -1    0    0    0    0  0.00000000000E+00  0.00000000000E+00  0.74505805969E-08  0.10566000000E+00  0.10566000000E+00 0. -1.
     999900   -1    0    0    0    0 -0.00000000000E+00 -0.00000000000E+00 -0.74505805969E-08  0.93827000000E+00  0.93827000000E+00 0.  1.
     999902    2    1    2    0    0  0.19496499394E-02 -0.24338212371E-01  0.47489553592E-02  0.10190562730E+01  0.10187526615E+01 0.  0.
     999903    2    3    3    0    0  0.98510082355E-01  0.42544333230E-01 -0.68014554799E-01  0.12827475076E+00  0.17724993705E-01 0.  0.
         14    1    1    2    0    0 -0.19496499394E-02  0.24338212371E-01 -0.47489553592E-02  0.24873726968E-01  0.00000000000E+00 0.  1.
     999901    1    3    3    0    0 -0.96560432415E-01 -0.66882545601E-01  0.72763510158E-01  0.89078152227E+00  0.88000000000E+00 0. -1.
        -11    1    4    4    0    0  0.67164082466E-01  0.30448982743E-01 -0.36827870069E-01  0.82430016732E-01  0.51100000000E-03 0.  1.
         11    1    4    4    0    0  0.31345999889E-01  0.12095350487E-01 -0.31186684730E-01  0.45844734026E-01  0.51100000000E-03 0. -1.
</event>
<event>
 8    1  0.1088270E+005  0.1043930E+01  0.7957747E-01            NaN
         13   -1    0    0    0    0  0.00000000000E+00  0.00000000000E+00  0.74505805969E-08  0.10566000000E+00  0.10566000000E+00 0. -1.
     999900   -1    0    0    0    0 -0.00000000000E+00 -0.00000000000E+00 -0.74505805969E-08  0.93827000000E+00  0.93827000000E+00 0.  1.
     999902    2    1    2    0    0 -0.16680945557E-01  0.22567623117E-03 -0.16996708628E-01  0.10201141864E+01  0.10198361438E+01 0.  0.
     999903    2    3    3    0    0 -0.10885538993E+00 -0.68832455331E-01  0.19962189538E-01  0.13183995289E+00  0.19896767149E-01 0.  0.
         14    1    1    2    0    0  0.16680945557E-01 -0.22567623117E-03  0.16996708628E-01  0.23815813624E-01  0.00000000000E+00 0. -1.
     999901    1    3    3    0    0  0.92174444368E-01  0.69058131562E-01 -0.36958898166E-01  0.88827423349E+00  0.88000000000E+00 0.  1.
        -11    1    4    4    0    0 -0.73401239181E-01 -0.41248382482E-01  0.21462715823E-01  0.86891197841E-01  0.51100000000E-03 0.  1.
         11    1    4    4    0    0 -0.35454150744E-01 -0.27584072849E-01 -0.15005262850E-02  0.44948755044E-01  0.51100000000E-03 0. -1.
</event>
<event>
 8    1  0.1088270E+005  0.1043930E+01  0.7957747E-01            NaN
         13   -1    0    0    0    0  0.00000000000E+00  0.00000000000E+00  0.74505805969E-08  0.10566000000E+00  0.10566000000E+00 0.  1.
     999900   -1    0    0    0    0 -0.00000000000E+00 -0.00000000000E+00 -0.74505805969E-08  0.93827000000E+00  0.93827000000E+00 0. -1.
     999902    2    1    2    0    0 -0.50506523469E-02  0.13803419592E-01  0.19732207821E-01  0.10193250512E+01  0.10190280450E+01 0.  0.
     999903    2    3    3    0    0  0.62368276716E-01  0.54582721107E-01  0.10083861751E+00  0.13208973113E+00  0.20253268986E-01 0.  0.
         14    1    1    2    0    0  0.50506523469E-02 -0.13803419592E-01 -0.19732207821E-01  0.24604948833E-01  0.00000000000E+00 0. -1.
     999901    1    3    3    0    0 -0.67418929063E-01 -0.40779301514E-01 -0.81106409690E-01  0.88723532004E+00  0.88000000000E+00 0. -1.
        -11    1    4    4    0    0  0.35440830919E-01  0.42865866905E-01  0.71362480167E-01  0.90478725335E-01  0.51100000000E-03 0.  1.
         11    1    4    4    0    0  0.26927445797E-01  0.11716854202E-01  0.29476137344E-01  0.41611005795E-01  0.51100000000E-03 0. -1.
</event>
<event>
 8    1  0.1088270E+005  0.1043930E+01  0.7957747E-01            NaN
         13   -1    0    0    0    0  0.00000000000E+00  0.00000000000E+00  0.74505805969E-08  0.10566000000E+00  0.10566000000E+00 0.  1.
     999900   -1    0    0    0    0 -0.00000000000E+00 -0.00000000000E+00 -0.74505805969E-08  0.93827000000E+00  0.93827000000E+00 0.  1.
     999902    2    1    2    0    0  0.89793376470E-02 -0.66508885263E-02  0.22729068735E-01  0.10186026751E+01  0.10182877473E+01 0.  0.
     999903    2    3    3    0    0 -0.89220060195E-03 -0.96515113024E-01 -0.81456651198E-01  0.12785709391E+00  0.19906967993E-01 0.  0.
         14    1    1    2    0    0 -0.89793376470E-02  0.66508885263E-02 -0.22729068735E-01  0.25327324934E-01  0.00000000000E+00 0.  1.
     999901    1    3    3    0    0  0.98715382489E-02  0.89864224498E-01  0.10418571993E+00  0.89074558116E+00  0.88000000000E+00 0. -1.
        -11    1    4    4    0    0 -0.68126522985E-02 -0.84202389088E-01 -0.73874157586E-01  0.11222346831E+00  0.51100000000E-03 0.  1.
         11    1    4    4    0    0  0.59204516966E-02 -0.12312723936E-01 -0.75824936118E-02  0.15633625600E-01  0.51100000000E-03 0. -1.
</event>
<event>
 7    1  0.1088270E+005  0.1043930E+01  0.7957747E-01            NaN
         13   -1    0    0    0    0  0.00000000000E+00  0.00000000000E+00  0.74505805969E-08  0.10566000000E+00  0.10566000000E+00 0. -1.
     999900   -1    0    0    0    0 -0.00000000000E+00 -0.00000000000E+00 -0.74505805969E-08  0.93827000000E+00  0.93827000000E+00 0.  1.
     999903    2    1    2    0    0  0.98170875452E-01 -0.26309089016E-01  0.29470441719E-01  0.10768924086E+00  0.19969394322E-01 0.  0.
         14    1    1    2    0    0  0.13158644516E-01 -0.16327066608E-01 -0.43282862014E-01  0.48095001545E-01  0.00000000000E+00 0.  1.
     999901    1    1    2    0    0 -0.11132951997E+00  0.42636155624E-01  0.13812420295E-01  0.88814575760E+00  0.88000000000E+00 0. -1.
        -11    1    3    3    0    0  0.85211694687E-02 -0.38014005502E-02 -0.28477253048E-02  0.97689116932E-02  0.51100000000E-03 0.  1.
         11    1    3    3    0    0  0.89649705984E-01 -0.22507688466E-01  0.32318167024E-01  0.97920329165E-01  0.51100000000E-03 0. -1.
</event>
<event>
 8    1  0.1088270E+005  0.1043930E+01  0.7957747E-01            NaN
         13   -1    0    0    0    0  0.00000000000E+00  0.00000000000E+00  0.74505805969E-08  0.10566000000E+00  0.10566000000E+00 0.  1.
     999900   -1    0    0    0    0 -0.00000000000E+00 -0.00000000000E+00 -0.74505805969E-08  0.93827000000E+00  0.93827000000E+00 0.  1.
     999902    2    1    2    0    0  0.11682653981E-01  0.49559981463E-02 -0.20659250965E-01  0.10196843618E+01  0.10193960696E+01 0.  0.
     999903    2    3    3    0    0  0.87339595309E-01 -0.90662024774E-01  0.26627295616E-01  0.13001993260E+00  0.18664467768E-01 0.  0.
         14    1    1    2    0    0 -0.11682653981E-01 -0.49559981463E-02  0.20659250965E-01  0.24245638208E-01  0.00000000000E+00 0.  1.
     999901    1    3    3    0    0 -0.75656941328E-01  0.95618022920E-01 -0.47286546581E-01  0.88966442919E+00  0.88000000000E+00 0.  1.
        -11    1    4    4    0    0  0.71452261542E-01 -0.78009207447E-01  0.15686592030E-01  0.10694481014E+00  0.51100000000E-03 0.  1.
         11    1    4    4    0    0  0.15887333767E-01 -0.12652817327E-01  0.10940703586E-01  0.23075122459E-01  0.51100000000E-03 0. -1.
</event>
<event>
 8    1  0.1088270E+005  0.1043930E+01  0.7957747E-01            NaN
         13   -1    0    0    0    0  0.00000000000E+00  0.00000000000E+00  0.74505805969E-08  0.10566000000E+00  0.10566000000E+00 0. -1.
     999900   -1    0    0    0    0 -0.00000000000E+00 -0.00000000000E+00 -0.74505805969E-08  0.93827000000E+00  0.93827000000E+00 0.  1.
     999902    2    1    2    0    0  0.18207708695E-01  0.15337360249E-01  0.13210185855E-01  0.10167038309E+01  0.10163392226E+01 0.  0.
     999903    2    3    3    0    0  0.69871208441E-01 -0.10155992305E+00  0.25393092593E-01  0.12738807408E+00  0.19659820139E-01 0.  0.
         14    1    1    2    0    0 -0.18207708695E-01 -0.15337360249E-01 -0.13210185855E-01  0.27226169133E-01  0.00000000000E+00 0.  1.
     999901    1    3    3    0    0 -0.51663499746E-01  0.11689728330E+00 -0.12182906738E-01  0.88931575678E+00  0.88000000000E+00 0.  1.
        -11    1    4    4    0    0  0.45803389688E-01 -0.73189864316E-01  0.92723766970E-02  0.86838613739E-01  0.51100000000E-03 0.  1.
         11    1    4    4    0    0  0.24067818753E-01 -0.28370058735E-01  0.16120715896E-01  0.40549460344E-01  0.51100000000E-03 0. -1.
</event>
<event>
 8    1  0.1088270E+005  0.1043930E+01  0.7957747E-01            NaN
         13   -1    0    0    0    0  0.00000000000E+00  0.00000000000E+00  0.74505805969E-08  0.10566000000E+00  0.10566000000E+00 0. -1.
     999900   -1    0    0    0    0 -0.00000000000E+00 -0.00000000000E+00 -0.74505805969E-08  0.93827000000E+00  0.93827000000E+00 0. -1.
     999902    2    1    2    0    0 -0.20783806066E-01 -0.64619090829E-02 -0.10632410215E-01  0.10197066433E+01  0.10194188871E+01 0.  0.
     999903    2    3    3    0    0  0.80134384996E-01  0.94592662950E-01 -0.25005159292E-01  0.12807718901E+00  0.20229108001E-01 0.  0.
         14    1    1    2    0    0  0.20783806066E-01  0.64619090829E-02  0.10632410215E-01  0.24223356715E-01  0.00000000000E+00 0. -1.
     999901    1    3    3    0    0 -0.10091819106E+00 -0.10105457203E+00  0.14372749077E-01  0.89162945428E+00  0.88000000000E+00 0.  1.
        -11    1    4    4    0    0  0.55371693244E-01  0.50128323022E-01 -0.16039014219E-01  0.76396232105E-01  0.51100000000E-03 0. -1.
         11    1    4    4    0    0  0.24762691753E-01  0.44464339928E-01 -0.89661450728E-02  0.51680956905E-01  0.51100000000E-03 0.  1.
</event>
<event>
 8    1  0.1088270E+005  0.1043930E+01  0.7957747E-01            NaN
         13   -1    0    0    0    0  0.00000000000E+00  0.00000000000E+00  0.74505805969E-08  0.10566000000E+00  0.10566000000E+00 0. -1.
     999900   -1    0    0    0    0 -0.00000000000E+00 -0.00000000000E+00 -0.74505805969E-08  0.93827000000E+00  0.93827000000E+00 0.  1.
     999902    2    1    2    0    0  0.15130580265E-01  0.62207687774E-02 -0.17759902208E-01  0.10197836431E+01  0.10194977353E+01 0.  0.
     999903    2    3    3    0    0 -0.42596425209E-01  0.11640454066E+00 -0.36509202300E-01  0.13083797157E+00  0.20522680713E-01 0.  0.
         14    1    1    2    0    0 -0.15130580265E-01 -0.62207687774E-02  0.17759902208E-01  0.24146356863E-01  0.00000000000E+00 0.  1.
     999901    1    3    3    0    0  0.57727005474E-01 -0.11018377189E+00  0.18749300092E-01  0.88894567157E+00  0.88000000000E+00 0. -1.
        -11    1    4    4    0    0 -0.26395427569E-02  0.33502650341E-01 -0.95989586670E-02  0.34954197091E-01  0.51100000000E-03 0.  1.
         11    1    4    4    0    0 -0.39956882453E-01  0.82901890323E-01 -0.26910243633E-01  0.95883774476E-01  0.51100000000E-03 0. -1.
</event>
<event>
 8    1  0.1088270E+005  0.1043930E+01  0.7957747E-01            NaN
         13   -1    0    0    0    0  0.00000000000E+00  0.00000000000E+00  0.74505805969E-08  0.10566000000E+00  0.10566000000E+00 0.  1.
     999900   -1    0    0    0    0 -0.00000000000E+00 -0.00000000000E+00 -0.74505805969E-08  0.93827000000E+00  0.93827000000E+00 0.  1.
     999902    2    1    2    0    0 -0.10323877259E-01  0.18901685203E-01  0.95508142798E-02  0.10203699873E+01  0.10200979545E+01 0.  0.
     999903    2    3    3    0    0  0.12535942843E+00  0.26923627459E-01 -0.69239306159E-02  0.12978269331E+00  0.18861035384E-01 0.  0.
         14    1    1    2    0    0  0.10323877259E-01 -0.18901685203E-01 -0.95508142798E-02  0.23560012703E-01  0.00000000000E+00 0. -1.
     999901    1    3    3    0    0 -0.13568330568E+00 -0.80219422560E-02  0.16474744896E-01  0.89058729399E+00  0.88000000000E+00 0. -1.
        -11    1    4    4    0    0  0.65794233693E-01  0.20855748979E-01 -0.10422309758E-01  0.69804936175E-01  0.51100000000E-03 0. -1.
         11    1    4    4    0    0  0.59565194732E-01  0.60678784799E-02  0.34983791425E-02  0.59977757130E-01  0.51100000000E-03 0.  1.
</event>
<event>
 8    1  0.1088270E+005  0.1043930E+01  0.7957747E-01            NaN
         13   -1    0    0    0    0  0.00000000000E+00  0.00000000000E+00  0.74505805969E-08  0.10566000000E+00  0.10566000000E+00 0.  1.
     999900   -1    0    0    0    0 -0.00000000000E+00 -0.00000000000E+00 -0.74505805969E-08  0.93827000000E+00  0.93827000000E+00 0. -1.
     999902    2    1    2    0    0 -0.10239785527E-01  0.21989600994E-01  0.19407154898E-02  0.10195956182E+01  0.10193051862E+01 0.  0.
     999903    2    3    3    0    0  0.98457077760E-01  0.14664125702E-01 -0.79854783262E-01  0.12911306686E+00  0.19610325873E-01 0.  0.
         14    1    1    2    0    0  0.10239785527E-01 -0.21989600994E-01 -0.19407154898E-02  0.24334381770E-01  0.00000000000E+00 0. -1.
     999901    1    3    3    0    0 -0.10869686329E+00  0.73254752916E-02  0.81795498752E-01  0.89048255137E+00  0.88000000000E+00 0.  1.
        -11    1    4    4    0    0  0.24600411485E-01  0.10225590686E-01 -0.28684430874E-01  0.39150998016E-01  0.51100000000E-03 0.  1.
         11    1    4    4    0    0  0.73856666275E-01  0.44385350161E-02 -0.51170352389E-01  0.89962068845E-01  0.51100000000E-03 0. -1.
</event>
<event>
 8    1  0.1088270E+005  0.1043930E+01  0.7957747E-01            NaN
         13   -1    0    0    0    0  0.00000000000E+00  0.00000000000E+00  0.74505805969E-08  0.10566000000E+00  0.10566000000E+00 0. -1.
     999900   -1    0    0    0    0 -0.00000000000E+00 -0.00000000000E+00 -0.74505805969E-08  0.93827000000E+00  0.93827000000E+00 0.  1.
     999902    2    1    2    0    0  0.21513633044E-01  0.17800515697E-03  0.11160854995E-01  0.10196929875E+01  0.10194049028E+01 0.  0.
     999903    2    3    3    0    0  0.12806575654E+00  0.19616639236E-01 -0.16758449242E-01  0.13261311334E+00  0.22797843698E-01 0.  0.
         14    1    1    2    0    0 -0.21513633044E-01 -0.17800515697E-03 -0.11160854995E-01  0.24237012539E-01  0.00000000000E+00 0.  1.
     999901    1    3    3    0    0 -0.10655212349E+00 -0.19438634079E-01  0.27919304237E-01  0.88707987412E+00  0.88000000000E+00 0. -1.
        -11    1    4    4    0    0  0.61137677284E-01 -0.86377489262E-03 -0.25942432868E-02  0.61200922460E-01  0.51100000000E-03 0.  1.
         11    1    4    4    0    0  0.66928079253E-01  0.20480414129E-01 -0.14164205955E-01  0.71412190883E-01  0.51100000000E-03 0. -1.
</event>
<event>
 7    1  0.1088270E+005  0.1043930E+01  0.7957747E-01            NaN
         13   -1    0    0    0    0  0.00000000000E+00  0.00000000000E+00  0.74505805969E-08  0.10566000000E+00  0.10566000000E+00 0. -1.
     999900   -1    0    0    0    0 -0.00000000000E+00 -0.00000000000E+00 -0.74505805969E-08  0.93827000000E+00  0.93827000000E+00 0.  1.
     999902    2    1    2    0    0  0.28591864172E-02 -0.15160813987E-01 -0.17298510317E-01  0.10207510508E+01  0.10204878461E+01 0.  0.
         14    1    1    2    0    0 -0.28591864172E-02  0.15160813987E-01  0.17298510317E-01  0.23178949219E-01  0.00000000000E+00 0. -1.
     999901    1    3    3    0    0 -0.38378573270E-02  0.70525377247E-01  0.79002872866E-01  0.88635772231E+00  0.88000000000E+00 0.  1.
        -11    1    3    3    0    0 -0.83667260095E-02 -0.45146067791E-01 -0.70177206494E-01  0.83864599047E-01  0.51100000000E-03 0.  1.
         11    1    3    3    0    0  0.15063769754E-01 -0.40540123444E-01 -0.26124176689E-01  0.50528729419E-01  0.51100000000E-03 0. -1.
</event>
<event>
 8    1  0.1088270E+005  0.1043930E+01  0.7957747E-01            NaN
         13   -1    0    0    0    0  0.00000000000E+00  0.00000000000E+00  0.74505805969E-08  0.10566000000E+00  0.10566000000E+00 0. -1.
     999900   -1    0    0    0    0 -0.00000000000E+00 -0.00000000000E+00 -0.74505805969E-08  0.93827000000E+00  0.93827000000E+00 0.  1.
     999902    2    1    2    0    0 -0.10599857932E-01 -0.21615317476E-01  0.46995556214E-03  0.10198509677E+01  0.10195666710E+01 0.  0.
     999903    2    3    3    0    0  0.28917005547E-01  0.97050126311E-01 -0.75501795293E-01  0.12776645547E+00  0.19204838570E-01 0.  0.
         14    1    1    2    0    0  0.10599857932E-01  0.21615317476E-01 -0.46995556214E-03  0.24079032290E-01  0.00000000000E+00 0.  1.
     999901    1    3    3    0    0 -0.39516863479E-01 -0.11866544379E+00  0.75971750856E-01  0.89208451224E+00  0.88000000000E+00 0. -1.
        -11    1    4    4    0    0  0.99211516479E-02  0.46290612833E-01 -0.24345780560E-01  0.53237470250E-01  0.51100000000E-03 0. -1.
         11    1    4    4    0    0  0.18995853899E-01  0.50759513478E-01 -0.51156014733E-01  0.74528985222E-01  0.51100000000E-03 0.  1.
</event>
<event>
 8    1  0.1088270E+005  0.1043930E+01  0.7957747E-01            NaN
         13   -1    0    0    0    0  0.00000000000E+00  0.00000000000E+00  0.74505805969E-08  0.10566000000E+00  0.10566000000E+00 0.  1.
     999900   -1    0    0    0    0 -0.00000000000E+00 -0.00000000000E+00 -0.74505805969E-08  0.93827000000E+00  0.93827000000E+00 0.  1.
     999902    2    1    2    0    0  0.25194785468E-01 -0.10256695984E-02  0.28857123365E-02  0.10185497607E+01  0.10182334990E+01 0.  0.
     999903    2    3    3    0    0 -0.96813194780E-01  0.56816869092E-02 -0.78612821795E-01  0.12637660094E+00  0.19646711289E-01 0.  0.
         14    1    1    2    0    0 -0.25194785468E-01  0.10256695984E-02 -0.28857123365E-02  0.25380239332E-01  0.00000000000E+00 0. -1.
     999901    1    3    3    0    0  0.12200798025E+00 -0.67073565076E-02  0.81498534132E-01  0.89217315973E+00  0.88000000000E+00 0.  1.
        -11    1    4    4    0    0 -0.47637483012E-01  0.91823525753E-02 -0.48519626762E-01  0.68615309433E-01  0.51100000000E-03 0. -1.
         11    1    4    4    0    0 -0.49175711768E-01 -0.35006656661E-02 -0.30093195033E-01  0.57761291505E-01  0.51100000000E-03 0.  1.
</event>
<event>
 8    1  0.1088270E+005  0.1043930E+01  0.7957747E-01            NaN
         13   -1    0    0    0    0  0.00000000000E+00  0.00000000000E+00  0.74505805969E-08  0.10566000000E+00  0.10566000000E+00 0.  1.
     999900   -1    0    0    0    0 -0.00000000000E+00 -0.00000000000E+00 -0.74505805969E-08  0.93827000000E+00  0.93827000000E+00 0. -1.
     999902    2    1    2    0    0  0.83550969314E-02 -0.20265102234E-01 -0.40721623205E-02  0.10216350562E+01  0.10213917581E+01 0.  0.
     999903    2    3    3    0    0  0.18726731430E-01  0.88093027474E-01  0.91053912595E-01  0.12984022261E+00  0.21368117594E-01 0.  0.
         14    1    1    2    0    0 -0.83550969314E-02  0.20265102234E-01  0.40721623205E-02  0.22294943805E-01  0.00000000000E+00 0.  1.
     999901    1    3    3    0    0 -0.10371634498E-01 -0.10835812971E+00 -0.95126074916E-01  0.89179483358E+00  0.88000000000E+00 0.  1.
        -11    1    4    4    0    0  0.70901282285E-02  0.59600537409E-01  0.47690937790E-01  0.76662772230E-01  0.51100000000E-03 0.  1.
         11    1    4    4    0    0  0.11636603201E-01  0.28492490066E-01  0.43362974806E-01  0.53177450383E-01  0.51100000000E-03 0. -1.
</event>
<event>
 8    1  0.1088270E+005  0.1043930E+01  0.7957747E-01            NaN
         13   -1    0    0    0    0  0.00000000000E+00  0.00000000000E+00  0.74505805969E-08  0.10566000000E+00  0.10566000000E+00 0. -1.
     999900   -1    0    0    0    0 -0.00000000000E+00 -0.00000000000E+00 -0.74505805969E-08  0.93827000000E+00  0.93827000000E+00 0.  1.
     999902    2    1    2    0    0  0.90238088702E-02  0.16905319238E-01 -0.12341654072E-01  0.10211366815E+01  0.10208822590E+01 0.  0.
     999903    2    3    3    0    0  0.97484842525E-01  0.52321500889E-01  0.69544595307E-01  0.13221316493E+00  0.20075763160E-01 0.  0.
         14    1    1    2    0    0 -0.90238088702E-02 -0.16905319238E-01  0.12341654072E-01  0.22793318545E-01  0.00000000000E+00 0. -1.
     999901    1    3    3    0    0 -0.88461033655E-01 -0.35416181651E-01 -0.81886249379E-01  0.88892351653E+00  0.88000000000E+00 0.  1.
        -11    1    4    4    0    0  0.20304066230E-01  0.34869018428E-02  0.17854530851E-01  0.27266444265E-01  0.51100000000E-03 0. -1.
         11    1    4    4    0    0  0.77180776295E-01  0.48834599046E-01  0.51690064456E-01  0.10494672066E+00  0.51100000000E-03 0.  1.
</event>
<event>
 8    1  0.1088270E+005  0.1043930E+01  0.7957747E-01            NaN
         13   -1    0    0    0    0  0.00000000000E+00  0.00000000000E+00  0.74505805969E-08  0.10566000000E+00  0.10566000000E+00 0.  1.
     999900   -1    0    0    0    0 -0.00000000000E+00 -0.00000000000E+00 -0.74505805969E-08  0.93827000000E+00  0.93827000000E+00 0.  1.
     999902    2    1    2    0    0  0.16543366052E-01 -0.13731549440E-01 -0.10571296425E-01  0.10199718966E+01  0.10196904820E+01 0.  0.
     999903    2    3    3    0    0 -0.11381504806E+00  0.47795886284E-01 -0.27794220667E-01  0.12807752472E+00  0.19824775562E-01 0.  0.
         14    1    1    2    0    0 -0.16543366052E-01  0.13731549440E-01  0.10571296425E-01  0.23958103398E-01  0.00000000000E+00 0. -1.
     999901    1    3    3    0    0  0.13035841411E+00 -0.61527435724E-01  0.17222924242E-01  0.89189437188E+00  0.88000000000E+00 0.  1.
        -11    1    4    4    0    0 -0.35808979535E-01  0.15826510055E-01 -0.18366373028E-01  0.43247499523E-01  0.51100000000E-03 0.  1.
         11    1    4    4    0    0 -0.78006068522E-01  0.31969376229E-01 -0.94278476394E-02  0.84830025196E-01  0.51100000000E-03 0. -1.
</event>
<event>
 8    1  0.1088270E+005  0.1043930E+01  0.7957747E-01            NaN
         13   -1    0    0    0    0  0.00000000000E+00  0.00000000000E+00  0.74505805969E-08  0.10566000000E+00  0.10566000000E+00 0.  1.
     999900   -1    0    0    0    0 -0.00000000000E+00 -0.00000000000E+00 -0.74505805969E-08  0.93827000000E+00  0.93827000000E+00 0.  1.
     999902    2    1    2    0    0 -0.17243765890E-01 -0.87347887978E-02  0.14154746944E-01  0.10199716850E+01  0.10196902654E+01 0.  0.
     999903    2    3    3    0    0  0.55758614131E-01  0.21321004355E-01  0.11455072874E+00  0.13075177329E+00  0.20261996124E-01 0.  0.
         14    1    1    2    0    0  0.17243765890E-01  0.87347887978E-02 -0.14154746944E-01  0.23958315017E-01  0.00000000000E+00 0. -1.
     999901    1    3    3    0    0 -0.73002380021E-01 -0.30055793152E-01 -0.10039598180E+00  0.88921991169E+00  0.88000000000E+00 0.  1.
        -11    1    4    4    0    0  0.13467105463E-01 -0.16041801904E-02  0.15272608909E-01  0.20431593857E-01  0.51100000000E-03 0. -1.
         11    1    4    4    0    0  0.42291508668E-01  0.22925184545E-01  0.99278119832E-01  0.11032017943E+00  0.51100000000E-03 0.  1.
</event>
<event>
 8    1  0.1088270E+005  0.1043930E+01  0.7957747E-01            NaN
         13   -1    0    0    0    0  0.00000000000E+00  0.00000000000E+00  0.74505805969E-08  0.10566000000E+00  0.10566000000E+00 0.  1.
     999900   -1    0    0    0    0 -0.00000000000E+00 -0.00000000000E+00 -0.74505805969E-08  0.93827000000E+00  0.93827000000E+00 0. -1.
     999902    2    1    2    0    0  0.28240001619E-01  0.77191774157E-02  0.24650640508E-02  0.10145504164E+01  0.10141249368E+01 0.  0.
     999903    2    3    3    0    0 -0.77409972085E-01 -0.90990758996E-01  0.18607618797E-01  0.12260526643E+00  0.20351557148E-01 0.  0.
         14    1    1    2    0    0 -0.28240001619E-01 -0.77191774157E-02 -0.24650640508E-02  0.29379583594E-01  0.00000000000E+00 0. -1.
     999901    1    3    3    0    0  0.10564997370E+00  0.98709936412E-01 -0.16142554746E-01  0.89194514997E+00  0.88000000000E+00 0. -1.
        -11    1    4    4    0    0 -0.41179820913E-01 -0.36291410081E-01  0.14952118121E-01  0.56891748553E-01  0.51100000000E-03 0.  1.
         11    1    4    4    0    0 -0.36230151171E-01 -0.54699348915E-01  0.36555006757E-02  0.65713517877E-01  0.51100000000E-03 0. -1.
</event>
<event>
 8    1  0.1088270E+005  0.1043930E+01  0.7957747E-01            NaN
         13   -1    0    0    0    0  0.00000000000E+00  0.00000000000E+00  0.74505805969E-08  0.10566000000E+00  0.10566000000E+00 0.  1.
     999900   -1    0    0    0    0 -0.00000000000E+00 -0.00000000000E+00 -0.74505805969E-08  0.93827000000E+00  0.93827000000E+00 0. -1.
     999902    2    1    2    0    0  0.10394305087E-02  0.16885335992E-01  0.18442349220E-01  0.10189037092E+01  0.10185963152E+01 0.  0.
     999903    2    3    3    0    0 -0.98881560992E-01 -0.73240167034E-01 -0.28057417242E-01  0.12746159714E+00  0.17820070491E-01 0.  0.
         14    1    1    2    0    0 -0.10394305087E-02 -0.16885335992E-01 -0.18442349220E-01  0.25026290818E-01  0.00000000000E+00 0. -1.
     999901    1    3    3    0    0  0.99920991501E-01  0.90125503026E-01  0.46499766462E-01  0.89144211204E+00  0.88000000000E+00 0.  1.
        -11    1    4    4    0    0 -0.34746268786E-01 -0.24202498172E-01 -0.11617129300E-02  0.42363602423E-01  0.51100000000E-03 0.  1.
         11    1    4    4    0    0 -0.64135292206E-01 -0.49037668862E-01 -0.26895704312E-01  0.85097994719E-01  0.51100000000E-03 0. -1.
</event>
<event>
 8    1  0.1088270E+005  0.1043930E+01  0.7957747E-01            NaN
         13   -1    0    0    0    0  0.00000000000E+00  0.00000000000E+00  0.74505805969E-08  0.10566000000E+00  0.10566000000E+00 0.  1.
     999900   -1    0    0    0    0 -0.00000000000E+00 -0.00000000000E+00 -0.74505805969E-08  0.93827000000E+00  0.93827000000E+00 0. -1.
     999902    2    1    2    0    0  0.92741266919E-02  0.83728553477E-02 -0.14923958352E-01  0.10244662217E+01  0.10242813094E+01 0.  0.
     999903    2    3    3    0    0  0.77516362602E-01 -0.61411025872E-01  0.86634588891E-01  0.13326426291E+00  0.21764907710E-01 0.  0.
         14    1    1    2    0    0 -0.92741266919E-02 -0.83728553477E-02  0.14923958352E-01  0.19463778293E-01  0.00000000000E+00 0.  1.
     999901    1    3    3    0    0 -0.68242235910E-01  0.69783881220E-01 -0.10155854724E+00  0.89120195879E+00  0.88000000000E+00 0. -1.
        -11    1    4    4    0    0  0.28960410666E-01 -0.26746797406E-01  0.48301633186E-01  0.62349061314E-01  0.51100000000E-03 0. -1.
         11    1    4    4    0    0  0.48555951936E-01 -0.34664228466E-01  0.38332955706E-01  0.70915201598E-01  0.51100000000E-03 0.  1.
</event>
<event>
 8    1  0.1088270E+005  0.1043930E+01  0.7957747E-01            NaN
         13   -1    0    0    0    0  0.00000000000E+00  0.00000000000E+00  0.74505805969E-08  0.10566000000E+00  0.10566000000E+00 0. -1.
     999900   -1    0    0    0    0 -0.00000000000E+00 -0.00000000000E+00 -0.74505805969E-08  0.93827000000E+00  0.93827000000E+00 0.  1.
     999902    2    1    2    0    0  0.21647444720E-01 -0.87347177863E-02  0.47962208953E-02  0.10200991189E+01  0.10198207203E+01 0.  0.
     999903    2    3    3    0    0 -0.63087127005E-01 -0.10832535881E+00  0.28473756371E-01  0.13012222647E+00  0.20166062212E-01 0.  0.
         14    1    1    2    0    0 -0.21647444720E-01  0.87347177863E-02 -0.47962208953E-02  0.23830881070E-01  0.00000000000E+00 0.  1.
     999901    1    3    3    0    0  0.84734571725E-01  0.99590641022E-01 -0.23677535476E-01  0.88997689246E+00  0.88000000000E+00 0.  1.
        -11    1    4    4    0    0 -0.23612301170E-01 -0.44409874016E-01  0.21409041214E-01  0.54666130679E-01  0.51100000000E-03 0. -1.
         11    1    4    4    0    0 -0.39474825835E-01 -0.63915484792E-01  0.70647151567E-02  0.75456095792E-01  0.51100000000E-03 0.  1.
</event>
<event>
 8    1  0.1088270E+005  0.1043930E+01  0.7957747E-01            NaN
         13   -1    0    0    0    0  0.00000000000E+00  0.00000000000E+00  0.74505805969E-08  0.10566000000E+00  0.10566000000E+00 0. -1.
     999900   -1    0    0    0    0 -0.00000000000E+00 -0.00000000000E+00 -0.74505805969E-08  0.93827000000E+00  0.93827000000E+00 0.  1.
     999902    2    1    2    0    0 -0.94252022384E-02  0.75712870921E-02 -0.21414323081E-01  0.10193386995E+01  0.10190420268E+01 0.  0.
     999903    2    3    3    0    0  0.27627901837E-01  0.61222800840E-01 -0.11234503789E+00  0.13225369102E+00  0.18923502496E-01 0.  0.
         14    1    1    2    0    0  0.94252022384E-02 -0.75712870921E-02  0.21414323081E-01  0.24591300463E-01  0.00000000000E+00 0. -1.
     999901    1    3    3    0    0 -0.37053104075E-01 -0.53651513748E-01  0.90930714806E-01  0.88708500852E+00  0.88000000000E+00 0. -1.
        -11    1    4    4    0    0  0.10539154019E-01  0.29356008385E-01 -0.69548468627E-01  0.76224009375E-01  0.51100000000E-03 0.  1.
         11    1    4    4    0    0  0.17088747818E-01  0.31866792455E-01 -0.42796569260E-01  0.56029681640E-01  0.51100000000E-03 0. -1.
</event>
<event>
 8    1  0.1088270E+005  0.1043930E+01  0.7957747E-01            NaN
         13   -1    0    0    0    0  0.00000000000E+00  0.00000000000E+00  0.74505805969E-08  0.10566000000E+00  0.10566000000E+00 0. -1.
     999900   -1    0    0    0    0 -0.00000000000E+00 -0.00000000000E+00 -0.74505805969E-08  0.93827000000E+00  0.93827000000E+00 0.  1.
     999902    2    1    2    0    0  0.24592351924E-02 -0.27111239853E-02 -0.11657316181E-01  0.10317115283E+01  0.10316391746E+01 0.  0.
     999903    2    3    3    0    0 -0.63103704087E-03  0.38813000385E-01  0.13201100107E+00  0.13908933043E+00  0.20300005658E-01 0.  0.
         14    1    1    2    0    0 -0.24592351924E-02  0.27111239853E-02  0.11657316181E-01  0.12218471735E-01  0.00000000000E+00 0. -1.
     999901    1    3    3    0    0  0.30902722333E-02 -0.41524124371E-01 -0.14366831725E+00  0.89262219784E+00  0.88000000000E+00 0.  1.
        -11    1    4    4    0    0 -0.71659784136E-02  0.66832988619E-02  0.18556227415E-01  0.20990770047E-01  0.51100000000E-03 0.  1.
         11    1    4    4    0    0  0.65349413727E-02  0.32129701524E-01  0.11345477365E+00  0.11809856038E+00  0.51100000000E-03 0. -1.
</event>
<event>
 8    1  0.1088270E+005  0.1043930E+01  0.7957747E-01            NaN
         13   -1    0    0    0    0  0.00000000000E+00  0.00000000000E+00  0.74505805969E-08  0.10566000000E+00  0.10566000000E+00 0.  1.
     999900   -1    0    0    0    0 -0.00000000000E+00 -0.00000000000E+00 -0.74505805969E-08  0.93827000000E+00  0.93827000000E+00 0. -1.
     999902    2    1    2    0    0  0.90012953966E-02 -0.17277700253E-01  0.12801250518E-01  0.10206187525E+01  0.10203524997E+01 0.  0.
     999903    2    3    3    0    0  0.95441348789E-01  0.62524937786E-02 -0.86469535299E-01  0.13051749884E+00  0.20240855511E-01 0.  0.
         14    1    1    2    0    0 -0.90012953966E-02  0.17277700253E-01 -0.12801250518E-01  0.23311247493E-01  0.00000000000E+00 0. -1.
     999901    1    3    3    0    0 -0.86440053392E-01 -0.23530194032E-01  0.99270785817E-01  0.89010125367E+00  0.88000000000E+00 0.  1.
        -11    1    4    4    0    0  0.55109735540E-01 -0.22117908933E-02 -0.60182929544E-01  0.81634680742E-01  0.51100000000E-03 0.  1.
         11    1    4    4    0    0  0.40331613248E-01  0.84642846719E-02 -0.26286605755E-01  0.48882818100E-01  0.51100000000E-03 0. -1.
</event>
<event>
 8    1  0.1088270E+005  0.1043930E+01  0.7957747E-01            NaN
         13   -1    0    0    0    0  0.00000000000E+00  0.00000000000E+00  0.74505805969E-08  0.10566000000E+00  0.10566000000E+00 0.  1.
     999900   -1    0    0    0    0 -0.00000000000E+00 -0.00000000000E+00 -0.74505805969E-08  0.93827000000E+00  0.93827000000E+00 0. -1.
     999902    2    1    2    0    0 -0.22108826112E-02  0.14657499567E-01  0.18500284817E-01  0.10202236541E+01  0.10199481916E+01 0.  0.
     999903    2    3    3    0    0  0.78575574105E-01  0.99486797846E-01 -0.28185117674E-01  0.13123434699E+00  0.18876153720E-01 0.  0.
         14    1    1    2    0    0  0.22108826112E-02 -0.14657499567E-01 -0.18500284817E-01  0.23706345855E-01  0.00000000000E+00 0. -1.
     999901    1    3    3    0    0 -0.80786456717E-01 -0.84829298279E-01  0.46685402491E-01  0.88898930716E+00  0.88000000000E+00 0. -1.
        -11    1    4    4    0    0  0.31716445459E-01  0.52819502370E-01 -0.18927924515E-01  0.64454326392E-01  0.51100000000E-03 0. -1.
         11    1    4    4    0    0  0.46859128647E-01  0.46667295476E-01 -0.92571931585E-02  0.66780020596E-01  0.51100000000E-03 0.  1.
</event>
<event>
 8    1  0.1088270E+005  0.1043930E+01  0.7957747E-01            NaN
         13   -1    0    0    0    0  0.00000000000E+00  0.00000000000E+00  0.74505805969E-08  0.10566000000E+00  0.10566000000E+00 0.  1.
     999900   -1    0    0    0    0 -0.00000000000E+00 -0.00000000000E+00 -0.74505805969E-08  0.93827000000E+00  0.93827000000E+00 0.  1.
     999902    2    1    2    0    0  0.57171346038E-02  0.18559246648E-01 -0.14199452032E-01  0.10198726580E+01  0.10195888794E+01 0.  0.
     999903    2    3    3    0    0  0.73945302736E-01  0.92273672598E-01  0.53998562569E-01  0.13153720973E+00  0.20096127330E-01 0.  0.
         14    1    1    2    0    0 -0.57171346038E-02 -0.18559246648E-01  0.14199452032E-01  0.24057341961E-01  0.00000000000E+00 0. -1.
     999901    1    3    3    0    0 -0.68228168132E-01 -0.73714425950E-01 -0.68198014601E-01  0.88833544831E+00  0.88000000000E+00 0. -1.
        -11    1    4    4    0    0  0.80949275200E-02  0.15417041965E-01  0.15285581761E-01  0.23175917787E-01  0.51100000000E-03 0.  1.
         11    1    4    4    0    0  0.65850375216E-01  0.76856630633E-01  0.38712980808E-01  0.10836129195E+00  0.51100000000E-03 0. -1.
</event>
<event>
 8    1  0.1088270E+005  0.1043930E+01  0.7957747E-01            NaN
         13   -1    0    0    0    0  0.00000000000E+00  0.00000000000E+00  0.74505805969E-08  0.10566000000E+00  0.10566000000E+00 0. -1.
     999900   -1    0    0    0    0 -0.00000000000E+00 -0.00000000000E+00 -0.74505805969E-08  0.93827000000E+00  0.93827000000E+00 0.  1.
     999902    2    1    2    0    0  0.56020948179E-02 -0.99196372042E-02  0.21036948228E-01  0.10200064581E+01  0.10197258644E+01 0.  0.
     999903    2    3    3    0    0 -0.43959235384E-01 -0.45719199381E-01  0.11530678586E+00  0.13286231171E+00  0.18277840110E-01 0.  0.
         14    1    1    2    0    0 -0.56020948179E-02  0.99196372042E-02 -0.21036948228E-01  0.23923541948E-01  0.00000000000E+00 0.  1.
     999901    1    3    3    0    0  0.49561330202E-01  0.35799562177E-01 -0.94269837634E-01  0.88714414634E+00  0.88000000000E+00 0.  1.
        -11    1    4    4    0    0 -0.29520679450E-01 -0.34420499715E-01  0.96331500315E-01  0.10647187605E+00  0.51100000000E-03 0.  1.
         11    1    4    4    0    0 -0.14438555934E-01 -0.11298699667E-01  0.18975285547E-01  0.26390435658E-01  0.51100000000E-03 0. -1.
</event>
<event>
 8    1  0.1088270E+005  0.1043930E+01  0.7957747E-01            NaN
         13   -1    0    0    0    0  0.00000000000E+00  0.00000000000E+00  0.74505805969E-08  0.10566000000E+00  0.10566000000E+00 0.  1.
     999900   -1    0    0    0    0 -0.00000000000E+00 -0.00000000000E+00 -0.74505805969E-08  0.93827000000E+00  0.93827000000E+00 0.  1.
     999902    2    1    2    0    0 -0.17735378650E-01 -0.13584823064E-01 -0.66286996908E-02  0.10206269802E+01  0.10203609175E+01 0.  0.
     999903    2    3    3    0    0 -0.93631768633E-01  0.32875767917E-01 -0.85713438782E-01  0.13261051384E+00  0.19774493123E-01 0.  0.
         14    1    1    2    0    0  0.17735378650E-01  0.13584823064E-01  0.66286996908E-02  0.23303019829E-01  0.00000000000E+00 0.  1.
     999901    1    3    3    0    0  0.75896389983E-01 -0.46460590981E-01  0.79084739092E-01  0.88801646634E+00  0.88000000000E+00 0. -1.
        -11    1    4    4    0    0 -0.64455416885E-01  0.23000531239E-01 -0.46488570580E-01  0.82734355129E-01  0.51100000000E-03 0. -1.
         11    1    4    4    0    0 -0.29176351748E-01  0.98752366780E-02 -0.39224868202E-01  0.49876158706E-01  0.51100000000E-03 0.  1.
</event>
<event>
 8    1  0.1088270E+005  0.1043930E+01  0.7957747E-01            NaN
         13   -1    0    0    0    0  0.00000000000E+00  0.00000000000E+00  0.74505805969E-08  0.10566000000E+00  0.10566000000E+00 0. -1.
     999900   -1    0    0    0    0 -0.00000000000E+00 -0.00000000000E+00 -0.74505805969E-08  0.93827000000E+00  0.93827000000E+00 0.  1.
     999902    2    1    2    0    0 -0.41918184147E-02  0.17251436414E-01  0.20845300459E-01  0.10165491682E+01  0.10161803488E+01 0.  0.
     999903    2    3    3    0    0  0.98816262046E-01 -0.11099383489E-01 -0.73289608705E-01  0.12510325577E+00  0.19789085410E-01 0.  0.
         14    1    1    2    0    0  0.41918184147E-02 -0.17251436414E-01 -0.20845300459E-01  0.27380831820E-01  0.00000000000E+00 0.  1.
     999901    1    3    3    0    0 -0.10300808046E+00  0.28350819903E-01  0.94134909164E-01  0.89144591241E+00  0.88000000000E+00 0.  1.
        -11    1    4    4    0    0  0.53201900946E-01 -0.14344248063E-01 -0.33528504379E-01  0.64502879344E-01  0.51100000000E-03 0.  1.
         11    1    4    4    0    0  0.45614361100E-01  0.32448645743E-02 -0.39761104327E-01  0.60600376426E-01  0.51100000000E-03 0. -1.
</event>
<event>
 8    1  0.1088270E+005  0.1043930E+01  0.7957747E-01            NaN
         13   -1    0    0    0    0  0.00000000000E+00  0.00000000000E+00  0.74505805969E-08  0.10566000000E+00  0.10566000000E+00 0. -1.
     999900   -1    0    0    0    0 -0.00000000000E+00 -0.00000000000E+00 -0.74505805969E-08  0.93827000000E+00  0.93827000000E+00 0. -1.
     999902    2    1    2    0    0  0.12350161058E-01  0.11858104483E-01  0.14735776094E-01  0.10213405286E+01  0.10210906871E+01 0.  0.
     999903    2    3    3    0    0  0.99917581210E-01  0.90114263564E-02 -0.82874647370E-01  0.13161925124E+00  0.19765912109E-01 0.  0.
         14    1    1    2    0    0 -0.12350161058E-01 -0.11858104483E-01 -0.14735776094E-01  0.22589471379E-01  0.00000000000E+00 0. -1.
     999901    1    3    3    0    0 -0.87567420153E-01  0.28466781270E-02  0.97610423464E-01  0.88972127738E+00  0.88000000000E+00 0.  1.
        -11    1    4    4    0    0  0.53778341531E-01 -0.17226546197E-02 -0.53490909306E-01  0.75872366881E-01  0.51100000000E-03 0.  1.
         11    1    4    4    0    0  0.46139239679E-01  0.10734080976E-01 -0.29383738064E-01  0.55746884363E-01  0.51100000000E-03 0. -1.
</event>
<event>
 8    1  0.1088270E+005  0.1043930E+01  0.7957747E-01            NaN
         13   -1    0    0    0    0  0.00000000000E+00  0.00000000000E+00  0.74505805969E-08  0.10566000000E+00  0.10566000000E+00 0. -1.
     999900   -1    0    0    0    0 -0.00000000000E+00 -0.00000000000E+00 -0.74505805969E-08  0.93827000000E+00  0.93827000000E+00 0. -1.
     999902    2    1    2    0    0  0.11785055932E-01  0.20834621870E-01 -0.98280729657E-03  0.10199730611E+01  0.10196916742E+01 0.  0.
     999903    2    3    3    0    0 -0.47719031841E-01 -0.88828878117E-01  0.76462129832E-01  0.12780461400E+00  0.17885370401E-01 0.  0.
         14    1    1    2    0    0 -0.11785055932E-01 -0.20834621870E-01  0.98280729657E-03  0.23956938911E-01  0.00000000000E+00 0.  1.
     999901    1    3    3    0    0  0.59504087773E-01  0.10966349999E+00 -0.77444937128E-01  0.89216844709E+00  0.88000000000E+00 0. -1.
        -11    1    4    4    0    0 -0.11433041364E-01 -0.16318087733E-01  0.72871025323E-02  0.21221625913E-01  0.51100000000E-03 0.  1.
         11    1    4    4    0    0 -0.36285990477E-01 -0.72510790385E-01  0.69175027299E-01  0.10658298809E+00  0.51100000000E-03 0. -1.
</event>
<event>
 8    1  0.1088270E+005  0.1043930E+01  0.7957747E-01            NaN
         13   -1    0    0    0    0  0.00000000000E+00  0.00000000000E+00  0.74505805969E-08  0.10566000000E+00  0.10566000000E+00 0. -1.
     999900   -1    0    0    0    0 -0.00000000000E+00 -0.00000000000E+00 -0.74505805969E-08  0.93827000000E+00  0.93827000000E+00 0. -1.
     999902    2    1    2    0    0 -0.21558725953E-01 -0.72820928900E-02 -0.12200021764E-01  0.10181104711E+01  0.10177830237E+01 0.  0.
     999903    2    3    3    0    0  0.51329046183E-01 -0.49457028550E-01 -0.10580641981E+00  0.12914843013E+00  0.20091039737E-01 0.  0.
         14    1    1    2    0    0  0.21558725953E-01  0.72820928900E-02  0.12200021764E-01  0.25819528899E-01  0.00000000000E+00 0. -1.
     999901    1    3    3    0    0 -0.72887772136E-01  0.42174935660E-01  0.93606398047E-01  0.88896204097E+00  0.88000000000E+00 0. -1.
        -11    1    4    4    0    0  0.36252183459E-01 -0.22363885684E-01 -0.54127604651E-01  0.68879771303E-01  0.51100000000E-03 0. -1.
         11    1    4    4    0    0  0.15076862724E-01 -0.27093142866E-01 -0.51678815160E-01  0.60268658831E-01  0.51100000000E-03 0.  1.
</event>
<event>
 8    1  0.1088270E+005  0.1043930E+01  0.7957747E-01            NaN
         13   -1    0    0    0    0  0.00000000000E+00  0.00000000000E+00  0.74505805969E-08  0.10566000000E+00  0.10566000000E+00 0. -1.
     999900   -1    0    0    0    0 -0.00000000000E+00 -0.00000000000E+00 -0.74505805969E-08  0.93827000000E+00  0.93827000000E+00 0.  1.
     999902    2    1    2    0    0 -0.11088659362E-01 -0.20001861119E-01  0.38830353180E-02  0.10207327851E+01  0.10204691607E+01 0.  0.
     999903    2    3    3    0    0 -0.79812414230E-01 -0.30122018637E-01  0.10001458617E+00  0.13277634073E+00  0.18689080718E-01 0.  0.
         14    1    1    2    0    0  0.11088659362E-01  0.20001861119E-01 -0.38830353180E-02  0.23197214875E-01  0.00000000000E+00 0. -1.
     999901    1    3    3    0    0  0.68723754868E-01  0.10120157517E-01 -0.96131550857E-01  0.88795644439E+00  0.88000000000E+00 0.  1.
        -11    1    4    4    0    0 -0.25585170322E-01 -0.18175645515E-01  0.30054213272E-01  0.43456551712E-01  0.51100000000E-03 0. -1.
         11    1    4    4    0    0 -0.54227243908E-01 -0.11946373121E-01  0.69960372903E-01  0.89319789019E-01  0.51100000000E-03 0.  1.
</event>
<event>
 8    1  0.1088270E+005  0.1043930E+01  0.7957747E-01            NaN
         13   -1    0    0    0    0  0.00000000000E+00  0.00000000000E+00  0.74505805969E-08  0.10566000000E+00  0.10566000000E+00 0.  1.
     999900   -1    0    0    0    0 -0.00000000000E+00 -0.00000000000E+00 -0.74505805969E-08  0.93827000000E+00  0.93827000000E+00 0.  1.
     999902    2    1    2    0    0  0.25324491865E-02 -0.10968584733E-01  0.23131150570E-01  0.10182050456E+01  0.10178800232E+01 0.  0.
     999903    2    3    3    0    0 -0.25270037440E-01 -0.86832237956E-01 -0.87569646503E-01  0.12759686097E+00  0.20835152963E-01 0.  0.
         14    1    1    2    0    0 -0.25324491865E-02  0.10968584733E-01 -0.23131150570E-01  0.25724954356E-01  0.00000000000E+00 0. -1.
     999901    1    3    3    0    0  0.27802486627E-01  0.75863653223E-01  0.11070079707E+00  0.89060818468E+00  0.88000000000E+00 0. -1.
        -11    1    4    4    0    0 -0.10702637699E-01 -0.30219928059E-01 -0.18158382710E-01  0.36848045936E-01  0.51100000000E-03 0. -1.
         11    1    4    4    0    0 -0.14567399742E-01 -0.56612309897E-01 -0.69411263793E-01  0.90748815030E-01  0.51100000000E-03 0.  1.
</event>
<event>
 8    1  0.1088270E+005  0.1043930E+01  0.7957747E-01            NaN
         13   -1    0    0    0    0  0.00000000000E+00  0.00000000000E+00  0.74505805969E-08  0.10566000000E+00  0.10566000000E+00 0.  1.
     999900   -1    0    0    0    0 -0.00000000000E+00 -0.00000000000E+00 -0.74505805969E-08  0.93827000000E+00  0.93827000000E+00 0. -1.
     999902    2    1    2    0    0 -0.20737464334E-01  0.32975924876E-02  0.99618004662E-02  0.10206887864E+01  0.10204241493E+01 0.  0.
     999903    2    3    3    0    0 -0.11873316383E+00 -0.54539803766E-01  0.52012532191E-02  0.13334951396E+00  0.26132077012E-01 0.  0.
         14    1    1    2    0    0  0.20737464334E-01 -0.32975924876E-02 -0.99618004662E-02  0.23241213646E-01  0.00000000000E+00 0. -1.
     999901    1    3    3    0    0  0.97995699499E-01  0.57837396254E-01  0.47605472471E-02  0.88733927240E+00  0.88000000000E+00 0.  1.
        -11    1    4    4    0    0 -0.65810077400E-01 -0.32645516325E-01 -0.98708598364E-02  0.74124159478E-01  0.51100000000E-03 0. -1.
         11    1    4    4    0    0 -0.52923086434E-01 -0.21894287442E-01  0.15072113056E-01  0.59225354479E-01  0.51100000000E-03 0.  1.
</event>
<event>
 8    1  0.1088270E+005  0.1043930E+01  0.7957747E-01            NaN
         13   -1    0    0    0    0  0.00000000000E+00  0.00000000000E+00  0.74505805969E-08  0.10566000000E+00  0.10566000000E+00 0. -1.
     999900   -1    0    0    0    0 -0.00000000000E+00 -0.00000000000E+00 -0.74505805969E-08  0.93827000000E+00  0.93827000000E+00 0.  1.
     999902    2    1    2    0    0 -0.78821674220E-02 -0.64559523888E-02 -0.21486908750E-01  0.10201498584E+01  0.10198726580E+01 0.  0.
     999903    2    3    3    0    0  0.84622223414E-01  0.22250828532E-03 -0.99143885279E-01  0.13187497410E+00  0.20013210648E-01 0.  0.
         14    1    1    2    0    0  0.78821674220E-02  0.64559523888E-02  0.21486908750E-01  0.23780141550E-01  0.00000000000E+00 0. -1.
     999901    1    3    3    0    0 -0.92504390836E-01 -0.66784606741E-02  0.77656976529E-01  0.88827488435E+00  0.88000000000E+00 0.  1.
        -11    1    4    4    0    0  0.13721077384E-01  0.32374419346E-03 -0.64520443677E-02  0.15174411765E-01  0.51100000000E-03 0. -1.
         11    1    4    4    0    0  0.70901146030E-01 -0.10123590814E-03 -0.92691840911E-01  0.11670056234E+00  0.51100000000E-03 0.  1.
</event>
<event>
 8    1  0.1088270E+005  0.1043930E+01  0.7957747E-01            NaN
         13   -1    0    0    0    0  0.00000000000E+00  0.00000000000E+00  0.74505805969E-08  0.10566000000E+00  0.10566000000E+00 0. -1.
     999900   -1    0    0    0    0 -0.00000000000E+00 -0.00000000000E+00 -0.74505805969E-08  0.93827000000E+00  0.93827000000E+00 0.  1.
     999902    2    1    2    0    0  0.43619693673E-02  0.18936296962E-01  0.12912281126E-01  0.10205989665E+01  0.10203322563E+01 0.  0.
     999903    2    3    3    0    0  0.22721524338E-01 -0.13676350827E-01 -0.12465068649E+00  0.12912590012E+00  0.20794090470E-01 0.  0.
         14    1    1    2    0    0 -0.43619693673E-02 -0.18936296962E-01 -0.12912281126E-01  0.23331033480E-01  0.00000000000E+00 0.  1.
     999901    1    3    3    0    0 -0.18359554971E-01  0.32612647789E-01  0.13756296762E+00  0.89147306640E+00  0.88000000000E+00 0. -1.
        -11    1    4    4    0    0  0.69050075698E-02 -0.31171471684E-04 -0.74156752408E-01  0.74479293431E-01  0.51100000000E-03 0. -1.
         11    1    4    4    0    0  0.15816516769E-01 -0.13645179355E-01 -0.50493934085E-01  0.54646606690E-01  0.51100000000E-03 0.  1.
</event>
<event>
 8    1  0.1088270E+005  0.1043930E+01  0.7957747E-01            NaN
         13   -1    0    0    0    0  0.00000000000E+00  0.00000000000E+00  0.74505805969E-08  0.10566000000E+00  0.10566000000E+00 0. -1.
     999900   -1    0    0    0    0 -0.00000000000E+00 -0.00000000000E+00 -0.74505805969E-08  0.93827000000E+00  0.93827000000E+00 0.  1.
     999902    2    1    2    0    0  0.21823585364E-01 -0.83524062784E-02 -0.18962947731E-03  0.10205619122E+01  0.10202943443E+01 0.  0.
     999903    2    3    3    0    0 -0.69466665835E-01 -0.19796301532E-01  0.10554240443E+00  0.12947037048E+00  0.20146128244E-01 0.  0.
         14    1    1    2    0    0 -0.21823585364E-01  0.83524062784E-02  0.18962947731E-03  0.23368087815E-01  0.00000000000E+00 0. -1.
     999901    1    3    3    0    0  0.91290251199E-01  0.11443895254E-01 -0.10573203391E+00  0.89109154170E+00  0.88000000000E+00 0.  1.
        -11    1    4    4    0    0 -0.19777168856E-01  0.26181305947E-02  0.35372024730E-01  0.40613203152E-01  0.51100000000E-03 0. -1.
         11    1    4    4    0    0 -0.49689496979E-01 -0.22414432127E-01  0.70170379699E-01  0.88857167329E-01  0.51100000000E-03 0.  1.
</event>
<event>
 8    1  0.1088270E+005  0.1043930E+01  0.7957747E-01            NaN
         13   -1    0    0    0    0  0.00000000000E+00  0.00000000000E+00  0.74505805969E-08  0.10566000000E+00  0.10566000000E+00 0. -1.
     999900   -1    0    0    0    0 -0.00000000000E+00 -0.00000000000E+00 -0.74505805969E-08  0.93827000000E+00  0.93827000000E+00 0. -1.
     999902    2    1    2    0    0  0.22908465413E-01  0.24966621877E-02 -0.21480849829E-02  0.10207859861E+01  0.10205235833E+01 0.  0.
     999903    2    3    3    0    0  0.93623147087E-01 -0.33222302724E-01  0.85895506641E-01  0.13285125615E+00  0.20059988270E-01 0.  0.
         14    1    1    2    0    0 -0.22908465413E-01 -0.24966621877E-02  0.21480849829E-02  0.23144013886E-01  0.00000000000E+00 0.  1.
     999901    1    3    3    0    0 -0.70714681674E-01  0.35718964912E-01 -0.88043591624E-01  0.88793472997E+00  0.88000000000E+00 0. -1.
        -11    1    4    4    0    0  0.17128776905E-01 -0.68629625243E-02  0.67138741389E-02  0.19642618965E-01  0.51100000000E-03 0. -1.
         11    1    4    4    0    0  0.76494370182E-01 -0.26359340200E-01  0.79181632502E-01  0.11320863718E+00  0.51100000000E-03 0.  1.
</event>
<event>
 8    1  0.1088270E+005  0.1043930E+01  0.7957747E-01            NaN
         13   -1    0    0    0    0  0.00000000000E+00  0.00000000000E+00  0.74505805969E-08  0.10566000000E+00  0.10566000000E+00 0.  1.
     999900   -1    0    0    0    0 -0.00000000000E+00 -0.00000000000E+00 -0.74505805969E-08  0.93827000000E+00  0.93827000000E+00 0. -1.
     999902    2    1    2    0    0  0.10790258372E-01 -0.72505806508E-02 -0.18900129578E-01  0.10209906126E+01  0.10207328816E+01 0.  0.
     999903    2    3    3    0    0  0.36864941488E-01 -0.12519929170E+00  0.89698661787E-02  0.13230139573E+00  0.19731048155E-01 0.  0.
         14    1    1    2    0    0 -0.10790258372E-01  0.72505806508E-02  0.18900129578E-01  0.22939387385E-01  0.00000000000E+00 0. -1.
     999901    1    3    3    0    0 -0.26074683116E-01  0.11794871105E+00 -0.27869995757E-01  0.88868921688E+00  0.88000000000E+00 0.  1.
        -11    1    4    4    0    0  0.53643928318E-02 -0.24788001603E-01 -0.58295416142E-02  0.26028184922E-01  0.51100000000E-03 0.  1.
         11    1    4    4    0    0  0.31500548656E-01 -0.10041129010E+00  0.14799407793E-01  0.10627321081E+00  0.51100000000E-03 0. -1.
</event>
<event>
 8    1  0.1088270E+005  0.1043930E+01  0.7957747E-01            NaN
         13   -1    0    0    0    0  0.00000000000E+00  0.00000000000E+00  0.74505805969E-08  0.10566000000E+00  0.10566000000E+00 0.  1.
     999900   -1    0    0    0    0 -0.00000000000E+00 -0.00000000000E+00 -0.74505805969E-08  0.93827000000E+00  0.93827000000E+00 0. -1.
     999902    2    1    2    0    0 -0.23101413838E-01  0.64514173379E-02  0.71684715208E-02  0.10188963608E+01  0.10185887840E+01 0.  0.
     999903    2    3    3    0    0  0.83743243868E-01 -0.93014247030E-01 -0.23741618071E-02  0.12681998453E+00  0.20324635012E-01 0.  0.
         14    1    1    2    0    0  0.23101413838E-01 -0.64514173379E-02 -0.71684715208E-02  0.25033639187E-01  0.00000000000E+00 0. -1.
     999901    1    3    3    0    0 -0.10684465771E+00  0.99465664368E-01  0.95426333279E-02  0.89207637628E+00  0.88000000000E+00 0.  1.
        -11    1    4    4    0    0  0.89048212033E-02 -0.24688339227E-02 -0.12845459223E-02  0.93435625340E-02  0.51100000000E-03 0. -1.
         11    1    4    4    0    0  0.74838422665E-01 -0.90545413107E-01 -0.10896158848E-02  0.11747642200E+00  0.51100000000E-03 0.  1.
</event>
<event>
 8    1  0.1088270E+005  0.1043930E+01  0.7957747E-01            NaN
         13   -1    0    0    0    0  0.00000000000E+00  0.00000000000E+00  0.74505805969E-08  0.10566000000E+00  0.10566000000E+00 0.  1.
     999900   -1    0    0    0    0 -0.00000000000E+00 -0.00000000000E+00 -0.74505805969E-08  0.93827000000E+00  0.93827000000E+00 0.  1.
     999902    2    1    2    0    0  0.20019765480E-01  0.10848675659E-01 -0.36383254840E-02  0.10208708980E+01  0.10206104390E+01 0.  0.
     999903    2    3    3    0    0 -0.11873011883E+00 -0.63794556793E-02 -0.45311885348E-01  0.12885911303E+00  0.20346141798E-01 0.  0.
         14    1    1    2    0    0 -0.20019765480E-01 -0.10848675659E-01  0.36383254840E-02  0.23059102015E-01  0.00000000000E+00 0.  1.
     999901    1    3    3    0    0  0.13874988431E+00  0.17228131339E-01  0.41673559864E-01  0.89201178495E+00  0.88000000000E+00 0. -1.
        -11    1    4    4    0    0 -0.85707048242E-01 -0.61852838841E-02 -0.42057483915E-01  0.95671568030E-01  0.51100000000E-03 0.  1.
         11    1    4    4    0    0 -0.33023070584E-01 -0.19417179521E-03 -0.32544014333E-02  0.33187545001E-01  0.51100000000E-03 0. -1.
</event>
<event>
 8    1  0.1088270E+005  0.1043930E+01  0.7957747E-01            NaN
         13   -1    0    0    0    0  0.00000000000E+00  0.00000000000E+00  0.74505805969E-08  0.10566000000E+00  0.10566000000E+00 0. -1.
     999900   -1    0    0    0    0 -0.00000000000E+00 -0.00000000000E+00 -0.74505805969E-08  0.93827000000E+00  0.93827000000E+00 0.  1.
     999902    2    1    2    0    0 -0.90459345901E-02 -0.13789998452E-01 -0.16358279277E-01  0.10207010032E+01  0.10204366476E+01 0.  0.
     999903    2    3    3    0    0 -0.42164196373E-02 -0.87130222849E-02 -0.13136171438E+00  0.13319050189E+00  0.19751324996E-01 0.  0.
         14    1    1    2    0    0  0.90459345901E-02  0.13789998452E-01  0.16358279277E-01  0.23228996767E-01  0.00000000000E+00 0. -1.
     999901    1    3    3    0    0 -0.48295149529E-02 -0.50769761675E-02  0.11500343510E+00  0.88751050134E+00  0.88000000000E+00 0. -1.
        -11    1    4    4    0    0  0.43275501844E-02 -0.33242010739E-02 -0.10177996887E+00  0.10192743099E+00  0.51100000000E-03 0. -1.
         11    1    4    4    0    0 -0.85439698217E-02 -0.53888212110E-02 -0.29581745501E-01  0.31263070903E-01  0.51100000000E-03 0.  1.
</event>
<event>
 8    1  0.1088270E+005  0.1043930E+01  0.7957747E-01            NaN
         13   -1    0    0    0    0  0.00000000000E+00  0.00000000000E+00  0.74505805969E-08  0.10566000000E+00  0.10566000000E+00 0.  1.
     999900   -1    0    0    0    0 -0.00000000000E+00 -0.00000000000E+00 -0.74505805969E-08  0.93827000000E+00  0.93827000000E+00 0.  1.
     999902    2    1    2    0    0  0.15000925752E-01 -0.61242882724E-02  0.16357923891E-01  0.10209057442E+01  0.10206460808E+01 0.  0.
     999903    2    3    3    0    0 -0.10245333155E+00 -0.77092870471E-01  0.10827785993E-01  0.13025282380E+00  0.20212900224E-01 0.  0.
         14    1    1    2    0    0 -0.15000925752E-01  0.61242882724E-02 -0.16357923891E-01  0.23024255781E-01  0.00000000000E+00 0. -1.
     999901    1    3    3    0    0  0.11745425731E+00  0.70968582199E-01  0.55301378977E-02  0.89065292041E+00  0.88000000000E+00 0.  1.
        -11    1    4    4    0    0 -0.51165589117E-01 -0.39758130205E-01  0.15547599268E-01  0.66637942578E-01  0.51100000000E-03 0.  1.
         11    1    4    4    0    0 -0.51287742437E-01 -0.37334740267E-01 -0.47198132747E-02  0.63614881226E-01  0.51100000000E-03 0. -1.
</event>
<event>
 8    1  0.1088270E+005  0.1043930E+01  0.7957747E-01            NaN
         13   -1    0    0    0    0  0.00000000000E+00  0.00000000000E+00  0.74505805969E-08  0.10566000000E+00  0.10566000000E+00 0.  1.
     999900   -1    0    0    0    0 -0.00000000000E+00 -0.00000000000E+00 -0.74505805969E-08  0.93827000000E+00  0.93827000000E+00 0.  1.
     999902    2    1    2    0    0 -0.16000173442E-01 -0.10953767485E-01  0.12578339880E-01  0.10208171203E+01  0.10205554311E+01 0.  0.
     999903    2    3    3    0    0 -0.10566206202E+00  0.12646152732E-01 -0.74055605608E-01  0.13171552265E+00  0.23245422246E-01 0.  0.
         14    1    1    2    0    0  0.16000173442E-01  0.10953767485E-01 -0.12578339880E-01  0.23112879665E-01  0.00000000000E+00 0. -1.
     999901    1    3    3    0    0  0.89661888578E-01 -0.23599920217E-01  0.86633945488E-01  0.88910159769E+00  0.88000000000E+00 0. -1.
        -11    1    4    4    0    0 -0.56933232241E-01 -0.37200422777E-02 -0.44992513149E-01  0.72662363080E-01  0.51100000000E-03 0.  1.
         11    1    4    4    0    0 -0.48728829779E-01  0.16366195009E-01 -0.29063092459E-01  0.59053159568E-01  0.51100000000E-03 0. -1.
</event>
<event>
 8    1  0.1088270E+005  0.1043930E+01  0.7957747E-01            NaN
         13   -1    0    0    0    0  0.00000000000E+00  0.00000000000E+00  0.74505805969E-08  0.10566000000E+00  0.10566000000E+00 0. -1.
     999900   -1    0    0    0    0 -0.00000000000E+00 -0.00000000000E+00 -0.74505805969E-08  0.93827000000E+00  0.93827000000E+00 0.  1.
     999902    2    1    2    0    0 -0.16815778070E-01  0.76623627244E-04 -0.16067302779E-01  0.10206720018E+01  0.10204069780E+01 0.  0.
     999903    2    3    3    0    0  0.11214488781E+00 -0.34924873093E-01 -0.52173869080E-01  0.12985235546E+00  0.18528329176E-01 0.  0.
         14    1    1    2    0    0  0.16815778070E-01 -0.76623627244E-04  0.16067302779E-01  0.23257998234E-01  0.00000000000E+00 0. -1.
     999901    1    3    3    0    0 -0.12896066587E+00  0.35001496720E-01  0.36106566301E-01  0.89081964631E+00  0.88000000000E+00 0.  1.
        -11    1    4    4    0    0  0.29173942232E-01 -0.20246166244E-02 -0.83509862384E-02  0.30417397489E-01  0.51100000000E-03 0. -1.
         11    1    4    4    0    0  0.82970945573E-01 -0.32900256468E-01 -0.43822882842E-01  0.99434957970E-01  0.51100000000E-03 0.  1.
</event>
<event>
 8    1  0.1088270E+005  0.1043930E+01  0.7957747E-01            NaN
         13   -1    0    0    0    0  0.00000000000E+00  0.00000000000E+00  0.74505805969E-08  0.10566000000E+00  0.10566000000E+00 0. -1.
     999900   -1    0    0    0    0 -0.00000000000E+00 -0.00000000000E+00 -0.74505805969E-08  0.93827000000E+00  0.93827000000E+00 0. -1.
     999902    2    1    2    0    0  0.16851989777E-01 -0.15727876121E-01  0.39941724426E-02  0.10205353626E+01  0.10202671793E+01 0.  0.
     999903    2    3    3    0    0 -0.46728185387E-01 -0.43294538347E-01 -0.11168623186E+00  0.13026331681E+00  0.20899209513E-01 0.  0.
         14    1    1    2    0    0 -0.16851989777E-01  0.15727876121E-01 -0.39941724426E-02  0.23394637424E-01  0.00000000000E+00 0.  1.
     999901    1    3    3    0    0  0.63580175163E-01  0.27566662226E-01  0.11568040430E+00  0.89027204577E+00  0.88000000000E+00 0.  1.
        -11    1    4    4    0    0 -0.40185334596E-01 -0.40746972658E-01 -0.83635418350E-01  0.10134259332E+00  0.51100000000E-03 0.  1.
         11    1    4    4    0    0 -0.65428507912E-02 -0.25475656887E-02 -0.28050813509E-01  0.28920723485E-01  0.51100000000E-03 0. -1.
</event>
<event>
 8    1  0.1088270E+005  0.1043930E+01  0.7957747E-01            NaN
         13   -1    0    0    0    0  0.00000000000E+00  0.00000000000E+00  0.74505805969E-08  0.10566000000E+00  0.10566000000E+00 0.  1.
     999900   -1    0    0    0    0 -0.00000000000E+00 -0.00000000000E+00 -0.74505805969E-08  0.93827000000E+00  0.93827000000E+00 0. -1.
     999902    2    1    2    0    0 -0.40833312104E-02 -0.22233953747E-01 -0.39967816781E-02  0.10209735944E+01  0.10207154765E+01 0.  0.
     999903    2    3    3    0    0  0.89291178121E-01  0.64010138229E-01  0.64901161019E-01  0.12917554055E+00  0.20098439950E-01 0.  0.
         14    1    1    2    0    0  0.40833312104E-02  0.22233953747E-01  0.39967816781E-02  0.22956405571E-01  0.00000000000E+00 0. -1.
     999901    1    3    3    0    0 -0.93374509331E-01 -0.86244091976E-01 -0.68897942697E-01  0.89179805388E+00  0.88000000000E+00 0. -1.
        -11    1    4    4    0    0  0.35399173249E-01  0.31872535510E-01  0.18366319041E-01  0.51054312087E-01  0.51100000000E-03 0.  1.
         11    1    4    4    0    0  0.53892004872E-01  0.32137602719E-01  0.46534841978E-01  0.78121228463E-01  0.51100000000E-03 0. -1.
</event>
<event>
 8    1  0.1088270E+005  0.1043930E+01  0.7957747E-01            NaN
         13   -1    0    0    0    0  0.00000000000E+00  0.00000000000E+00  0.74505805969E-08  0.10566000000E+00  0.10566000000E+00 0.  1.
     999900   -1    0    0    0    0 -0.00000000000E+00 -0.00000000000E+00 -0.74505805969E-08  0.93827000000E+00  0.93827000000E+00 0.  1.
     999902    2    1    2    0    0 -0.38863950298E-02  0.87626271310E-02  0.21672174574E-01  0.10202325138E+01  0.10199572596E+01 0.  0.
     999903    2    3    3    0    0 -0.79385707028E-01  0.22926992452E-02 -0.99272561243E-01  0.12873398034E+00  0.20249674748E-01 0.  0.
         14    1    1    2    0    0  0.38863950298E-02 -0.87626271310E-02 -0.21672174574E-01  0.23697486181E-01  0.00000000000E+00 0. -1.
     999901    1    3    3    0    0  0.75499311999E-01  0.64699278858E-02  0.12094473582E+00  0.89149853348E+00  0.88000000000E+00 0. -1.
        -11    1    4    4    0    0 -0.16765377169E-01  0.39574984374E-03 -0.35865191306E-01  0.39595549725E-01  0.51100000000E-03 0.  1.
         11    1    4    4    0    0 -0.62620329859E-01  0.18969494015E-02 -0.63407369936E-01  0.89138430612E-01  0.51100000000E-03 0. -1.
</event>
<event>
 8    1  0.1088270E+005  0.1043930E+01  0.7957747E-01            NaN
         13   -1    0    0    0    0  0.00000000000E+00  0.00000000000E+00  0.74505805969E-08  0.10566000000E+00  0.10566000000E+00 0.  1.
     999900   -1    0    0    0    0 -0.00000000000E+00 -0.00000000000E+00 -0.74505805969E-08  0.93827000000E+00  0.93827000000E+00 0. -1.
     999902    2    1    2    0    0 -0.42098697320E-02 -0.66361983213E-02 -0.22408664146E-01  0.10201832032E+01  0.10199067887E+01 0.  0.
     999903    2    3    3    0    0  0.55582940669E-01  0.63191415591E-02 -0.11907052027E+00  0.13277882215E+00  0.17973090177E-01 0.  0.
         14    1    1    2    0    0  0.42098697320E-02  0.66361983213E-02  0.22408664146E-01  0.23746796839E-01  0.00000000000E+00 0.  1.
     999901    1    3    3    0    0 -0.59792810401E-01 -0.12955339880E-01  0.96661856125E-01  0.88740438101E+00  0.88000000000E+00 0.  1.
        -11    1    4    4    0    0  0.45450829884E-01  0.39336750903E-03 -0.80365148904E-01  0.92329577896E-01  0.51100000000E-03 0. -1.
         11    1    4    4    0    0  0.10132110785E-01  0.59257740500E-02 -0.38705371367E-01  0.40449244254E-01  0.51100000000E-03 0.  1.
</event>
<event>
 8    1  0.1088270E+005  0.1043930E+01  0.7957747E-01            NaN
         13   -1    0    0    0    0  0.00000000000E+00  0.00000000000E+00  0.74505805969E-08  0.10566000000E+00  0.10566000000E+00 0. -1.
     999900   -1    0    0    0    0 -0.00000000000E+00 -0.00000000000E+00 -0.74505805969E-08  0.93827000000E+00  0.93827000000E+00 0.  1.
     999902    2    1    2    0    0 -0.47774451512E-02  0.11656146663E-01 -0.20231883911E-01  0.10200968537E+01  0.10198184015E+01 0.  0.
     999903    2    3    3    0    0 -0.58427890706E-01  0.12850324056E-01 -0.11714662467E+00  0.13315138560E+00  0.20664234176E-01 0.  0.
         14    1    1    2    0    0  0.47774451512E-02 -0.11656146663E-01  0.20231883911E-01  0.23833146325E-01  0.00000000000E+00 0. -1.
     999901    1    3    3    0    0  0.53650445555E-01 -0.11941773931E-02  0.96914740759E-01  0.88694546808E+00  0.88000000000E+00 0. -1.
        -11    1    4    4    0    0 -0.48890407257E-01  0.28109058406E-02 -0.97514014244E-01  0.10912111257E+00  0.51100000000E-03 0. -1.
         11    1    4    4    0    0 -0.95374834496E-02  0.10039418215E-01 -0.19632610425E-01  0.24030273027E-01  0.51100000000E-03 0.  1.
</event>
<event>
 8    1  0.1088270E+005  0.1043930E+01  0.7957747E-01            NaN
         13   -1    0    0    0    0  0.00000000000E+00  0.00000000000E+00  0.74505805969E-08  0.10566000000E+00  0.10566000000E+00 0. -1.
     999900   -1    0    0    0    0 -0.00000000000E+00 -0.00000000000E+00 -0.74505805969E-08  0.93827000000E+00  0.93827000000E+00 0. -1.
     999902    2    1    2    0    0 -0.16495996578E-01 -0.68102863624E-03  0.16398898933E-01  0.10206597273E+01  0.10203944205E+01 0.  0.
     999903    2    3    3    0    0  0.87368447620E-01 -0.81615674941E-01 -0.43852776099E-01  0.12882537945E+00  0.19456319897E-01 0.  0.
         14    1    1    2    0    0  0.16495996578E-01  0.68102863624E-03 -0.16398898933E-01  0.23270272652E-01  0.00000000000E+00 0.  1.
     999901    1    3    3    0    0 -0.10386444420E+00  0.80934646305E-01  0.60251675032E-01  0.89183434789E+00  0.88000000000E+00 0. -1.
        -11    1    4    4    0    0  0.30766712541E-01 -0.16846254722E-01 -0.11340216086E-01  0.36867987748E-01  0.51100000000E-03 0.  1.
         11    1    4    4    0    0  0.56601735079E-01 -0.64769420219E-01 -0.32512560013E-01  0.91957391705E-01  0.51100000000E-03 0. -1.
</event>
<event>
 8    1  0.1088270E+005  0.1043930E+01  0.7957747E-01            NaN
         13   -1    0    0    0    0  0.00000000000E+00  0.00000000000E+00  0.74505805969E-08  0.10566000000E+00  0.10566000000E+00 0.  1.
     999900   -1    0    0    0    0 -0.00000000000E+00 -0.00000000000E+00 -0.74505805969E-08  0.93827000000E+00  0.93827000000E+00 0. -1.
     999902    2    1    2    0    0  0.29437035818E-02 -0.24144263477E-01  0.46784625082E-02  0.10191610908E+01  0.10188600641E+01 0.  0.
     999903    2    3    3    0    0  0.73387261008E-01 -0.10820224447E+00  0.45627621404E-02  0.13235330313E+00  0.20078900987E-01 0.  0.
         14    1    1    2    0    0 -0.29437035818E-02  0.24144263477E-01 -0.46784625082E-02  0.24768909161E-01  0.00000000000E+00 0.  1.
     999901    1    3    3    0    0 -0.70443557426E-01  0.84057980993E-01  0.11570036782E-03  0.88680778771E+00  0.88000000000E+00 0. -1.
        -11    1    4    4    0    0  0.58103165853E-01 -0.80948398917E-01  0.11608551176E-01  0.10031769909E+00  0.51100000000E-03 0. -1.
         11    1    4    4    0    0  0.15284095155E-01 -0.27253845553E-01 -0.70457890359E-02  0.32035604041E-01  0.51100000000E-03 0.  1.
</event>
<event>
 8    1  0.1088270E+005  0.1043930E+01  0.7957747E-01            NaN
         13   -1    0    0    0    0  0.00000000000E+00  0.00000000000E+00  0.74505805969E-08  0.10566000000E+00  0.10566000000E+00 0. -1.
     999900   -1    0    0    0    0 -0.00000000000E+00 -0.00000000000E+00 -0.74505805969E-08  0.93827000000E+00  0.93827000000E+00 0. -1.
     999902    2    1    2    0    0 -0.16454143262E-01 -0.27962045660E-02 -0.14161960512E-01  0.10220412194E+01  0.10218067995E+01 0.  0.
     999903    2    3    3    0    0  0.68923011978E-02 -0.97522884439E-01  0.85081741751E-01  0.13110490698E+00  0.19783251774E-01 0.  0.
         14    1    1    2    0    0  0.16454143262E-01  0.27962045660E-02  0.14161960512E-01  0.21888780597E-01  0.00000000000E+00 0. -1.
     999901    1    3    3    0    0 -0.23346444459E-01  0.94726679873E-01 -0.99243702264E-01  0.89093631242E+00  0.88000000000E+00 0.  1.
        -11    1    4    4    0    0 -0.64083544828E-02 -0.42563607333E-01  0.40389345089E-01  0.59027857780E-01  0.51100000000E-03 0. -1.
         11    1    4    4    0    0  0.13300655681E-01 -0.54959277106E-01  0.44692396662E-01  0.72077049204E-01  0.51100000000E-03 0.  1.
</event>
<event>
 8    1  0.1088270E+005  0.1043930E+01  0.7957747E-01            NaN
         13   -1    0    0    0    0  0.00000000000E+00  0.00000000000E+00  0.74505805969E-08  0.10566000000E+00  0.10566000000E+00 0.  1.
     999900   -1    0    0    0    0 -0.00000000000E+00 -0.00000000000E+00 -0.74505805969E-08  0.93827000000E+00  0.93827000000E+00 0.  1.
     999902    2    1    2    0    0 -0.17143417534E-01 -0.42182451660E-02  0.15772706683E-01  0.10202557813E+01  0.10199810736E+01 0.  0.
     999903    2    3    3    0    0 -0.10774377637E+00  0.21609142339E-01 -0.68936599482E-01  0.13118258657E+00  0.19517681485E-01 0.  0.
         14    1    1    2    0    0  0.17143417534E-01  0.42182451660E-02 -0.15772706683E-01  0.23674218744E-01  0.00000000000E+00 0. -1.
     999901    1    3    3    0    0  0.90600358837E-01 -0.25827387505E-01  0.84709306165E-01  0.88907319469E+00  0.88000000000E+00 0. -1.
        -11    1    4    4    0    0 -0.65461077298E-01  0.43999625044E-02 -0.45682327209E-01  0.79947785781E-01  0.51100000000E-03 0. -1.
         11    1    4    4    0    0 -0.42282699073E-01  0.17209179835E-01 -0.23254272273E-01  0.51234800785E-01  0.51100000000E-03 0.  1.
</event>
<event>
 8    1  0.1088270E+005  0.1043930E+01  0.7957747E-01            NaN
         13   -1    0    0    0    0  0.00000000000E+00  0.00000000000E+00  0.74505805969E-08  0.10566000000E+00  0.10566000000E+00 0.  1.
     999900   -1    0    0    0    0 -0.00000000000E+00 -0.00000000000E+00 -0.74505805969E-08  0.93827000000E+00  0.93827000000E+00 0.  1.
     999902    2    1    2    0    0 -0.15538746535E-01  0.12091087883E-01 -0.12277240802E-01  0.10207270327E+01  0.10204632760E+01 0.  0.
     999903    2    3    3    0    0 -0.95541330872E-01 -0.28802702680E-01 -0.85954821062E-01  0.13308909894E+00  0.19150336976E-01 0.  0.
         14    1    1    2    0    0  0.15538746535E-01 -0.12091087883E-01  0.12277240802E-01  0.23202967306E-01  0.00000000000E+00 0.  1.
     999901    1    3    3    0    0  0.80002584337E-01  0.40893790564E-01  0.73677580260E-01  0.88763793375E+00  0.88000000000E+00 0. -1.
        -11    1    4    4    0    0 -0.29463694623E-01 -0.17200826588E-01 -0.34653551999E-01  0.48632371146E-01  0.51100000000E-03 0.  1.
         11    1    4    4    0    0 -0.66077636249E-01 -0.11601876092E-01 -0.51301269063E-01  0.84456727793E-01  0.51100000000E-03 0. -1.
</event>
<event>
 8    1  0.1088270E+005  0.1043930E+01  0.7957747E-01            NaN
         13   -1    0    0    0    0  0.00000000000E+00  0.00000000000E+00  0.74505805969E-08  0.10566000000E+00  0.10566000000E+00 0. -1.
     999900   -1    0    0    0    0 -0.00000000000E+00 -0.00000000000E+00 -0.74505805969E-08  0.93827000000E+00  0.93827000000E+00 0. -1.
     999902    2    1    2    0    0  0.11040104383E-01 -0.26825391040E-01  0.73785761476E-02  0.10139979287E+01  0.10135560519E+01 0.  0.
     999903    2    3    3    0    0 -0.94850831946E-01  0.22078923857E-01 -0.71892255590E-01  0.12276934564E+00  0.20485522096E-01 0.  0.
         14    1    1    2    0    0 -0.11040104383E-01  0.26825391040E-01 -0.73785761476E-02  0.29932071348E-01  0.00000000000E+00 0.  1.
     999901    1    3    3    0    0  0.10589093633E+00 -0.48904314897E-01  0.79270831738E-01  0.89122858301E+00  0.88000000000E+00 0.  1.
        -11    1    4    4    0    0 -0.30127399604E-01 -0.18716125960E-02 -0.26449730164E-01  0.40137420038E-01  0.51100000000E-03 0.  1.
         11    1    4    4    0    0 -0.64723432342E-01  0.23950536453E-01 -0.45442525427E-01  0.82631925602E-01  0.51100000000E-03 0. -1.
</event>
<event>
 8    1  0.1088270E+005  0.1043930E+01  0.7957747E-01            NaN
         13   -1    0    0    0    0  0.00000000000E+00  0.00000000000E+00  0.74505805969E-08  0.10566000000E+00  0.10566000000E+00 0.  1.
     999900   -1    0    0    0    0 -0.00000000000E+00 -0.00000000000E+00 -0.74505805969E-08  0.93827000000E+00  0.93827000000E+00 0. -1.
     999902    2    1    2    0    0 -0.89085839555E-02 -0.94819359893E-02 -0.20116592039E-01  0.10199728037E+01  0.10196914107E+01 0.  0.
     999903    2    3    3    0    0  0.37492281447E-01 -0.12266090998E+00 -0.21312262057E-01  0.13151124007E+00  0.19738889132E-01 0.  0.
         14    1    1    2    0    0  0.89085839555E-02  0.94819359893E-02  0.20116592039E-01  0.23957196277E-01  0.00000000000E+00 0.  1.
     999901    1    3    3    0    0 -0.46400865402E-01  0.11317897399E+00  0.11956700185E-02  0.88846156365E+00  0.88000000000E+00 0. -1.
        -11    1    4    4    0    0  0.27872063267E-01 -0.64063769594E-01 -0.56356787380E-02  0.70093084403E-01  0.51100000000E-03 0. -1.
         11    1    4    4    0    0  0.96202181796E-02 -0.58597140390E-01 -0.15676583319E-01  0.61418155665E-01  0.51100000000E-03 0.  1.
</event>
<event>
 8    1  0.1088270E+005  0.1043930E+01  0.7957747E-01            NaN
         13   -1    0    0    0    0  0.00000000000E+00  0.00000000000E+00  0.74505805969E-08  0.10566000000E+00  0.10566000000E+00 0.  1.
     999900   -1    0    0    0    0 -0.00000000000E+00 -0.00000000000E+00 -0.74505805969E-08  0.93827000000E+00  0.93827000000E+00 0.  1.
     999902    2    1    2    0    0 -0.68952877406E-02  0.22690600848E-01  0.10149383704E-02  0.10201931413E+01  0.10199169609E+01 0.  0.
     999903    2    3    3    0    0  0.94817551817E-01  0.12305895686E-01  0.85809188807E-01  0.13022493474E+00  0.21295857392E-01 0.  0.
         14    1    1    2    0    0  0.68952877406E-02 -0.22690600848E-01 -0.10149383704E-02  0.23736858675E-01  0.00000000000E+00 0. -1.
     999901    1    3    3    0    0 -0.10171283956E+00  0.10384705162E-01 -0.84794250437E-01  0.88996820659E+00  0.88000000000E+00 0. -1.
        -11    1    4    4    0    0  0.28106390061E-01  0.10035636589E-01  0.36963090793E-01  0.47510150136E-01  0.51100000000E-03 0.  1.
         11    1    4    4    0    0  0.66711161755E-01  0.22702590974E-02  0.48846098015E-01  0.82714784600E-01  0.51100000000E-03 0. -1.
</event>
<event>
 8    1  0.1088270E+005  0.1043930E+01  0.7957747E-01            NaN
         13   -1    0    0    0    0  0.00000000000E+00  0.00000000000E+00  0.74505805969E-08  0.10566000000E+00  0.10566000000E+00 0.  1.
     999900   -1    0    0    0    0 -0.00000000000E+00 -0.00000000000E+00 -0.74505805969E-08  0.93827000000E+00  0.93827000000E+00 0. -1.
     999902    2    1    2    0    0 -0.46445969162E-02 -0.15569508464E-01  0.17754275019E-01  0.10198635055E+01  0.10195795083E+01 0.  0.
     999903    2    3    3    0    0 -0.12100221124E+00  0.42585073293E-01  0.85497935728E-02  0.13025360661E+00  0.20925569840E-01 0.  0.
         14    1    1    2    0    0  0.46445969162E-02  0.15569508464E-01 -0.17754275019E-01  0.24066494463E-01  0.00000000000E+00 0. -1.
     999901    1    3    3    0    0  0.11635761432E+00 -0.58154581756E-01  0.92044814461E-02  0.88960989893E+00  0.88000000000E+00 0.  1.
        -11    1    4    4    0    0 -0.44794731702E-01  0.20908565354E-01  0.12261573362E-01  0.50934697366E-01  0.51100000000E-03 0. -1.
         11    1    4    4    0    0 -0.76207479535E-01  0.21676507939E-01 -0.37117797890E-02  0.79318909244E-01  0.51100000000E-03 0.  1.
</event>
<event>
 8    1  0.1088270E+005  0.1043930E+01  0.7957747E-01            NaN
         13   -1    0    0    0    0  0.00000000000E+00  0.00000000000E+00  0.74505805969E-08  0.10566000000E+00  0.10566000000E+00 0.  1.
     999900   -1    0    0    0    0 -0.00000000000E+00 -0.00000000000E+00 -0.74505805969E-08  0.93827000000E+00  0.93827000000E+00 0.  1.
     999902    2    1    2    0    0  0.15206303635E-01 -0.14929408744E-01 -0.88527962409E-02  0.10208542353E+01  0.10205933954E+01 0.  0.
     999903    2    3    3    0    0  0.40102331160E-01 -0.84061965218E-01  0.91571493238E-01  0.13209996077E+00  0.19759815337E-01 0.  0.
         14    1    1    2    0    0 -0.15206303635E-01  0.14929408744E-01  0.88527962409E-02  0.23075764710E-01  0.00000000000E+00 0. -1.
     999901    1    3    3    0    0 -0.24896027525E-01  0.69132556474E-01 -0.10042428948E+00  0.88875427451E+00  0.88000000000E+00 0.  1.
        -11    1    4    4    0    0  0.31663116868E-01 -0.71946945918E-01  0.66332639339E-01  0.10285521941E+00  0.51100000000E-03 0.  1.
         11    1    4    4    0    0  0.84392142915E-02 -0.12115019300E-01  0.25238853899E-01  0.29244741367E-01  0.51100000000E-03 0. -1.
</event>
<event>
 8    1  0.1088270E+005  0.1043930E+01  0.7957747E-01            NaN
         13   -1    0    0    0    0  0.00000000000E+00  0.00000000000E+00  0.74505805969E-08  0.10566000000E+00  0.10566000000E+00 0. -1.
     999900   -1    0    0    0    0 -0.00000000000E+00 -0.00000000000E+00 -0.74505805969E-08  0.93827000000E+00  0.93827000000E+00 0.  1.
     999902    2    1    2    0    0  0.14965824790E-01  0.16332682078E-01 -0.38719162259E-02  0.10214416886E+01  0.10211941045E+01 0.  0.
     999903    2    3    3    0    0 -0.49643043800E-02  0.10588404292E+00 -0.78656794226E-01  0.13351746081E+00  0.20098412886E-01 0.  0.
         14    1    1    2    0    0 -0.14965824790E-01 -0.16332682078E-01  0.38719162259E-02  0.22488311426E-01  0.00000000000E+00 0. -1.
     999901    1    3    3    0    0  0.19930129170E-01 -0.89551360837E-01  0.74784878001E-01  0.88792422777E+00  0.88000000000E+00 0. -1.
        -11    1    4    4    0    0 -0.28626881103E-02  0.36083199004E-01 -0.38988693729E-01  0.53203116387E-01  0.51100000000E-03 0. -1.
         11    1    4    4    0    0 -0.21016162697E-02  0.69800843912E-01 -0.39668100497E-01  0.80314344422E-01  0.51100000000E-03 0.  1.
</event>
<event>
 8    1  0.1088270E+005  0.1043930E+01  0.7957747E-01            NaN
         13   -1    0    0    0    0  0.00000000000E+00  0.00000000000E+00  0.74505805969E-08  0.10566000000E+00  0.10566000000E+00 0.  1.
     999900   -1    0    0    0    0 -0.00000000000E+00 -0.00000000000E+00 -0.74505805969E-08  0.93827000000E+00  0.93827000000E+00 0. -1.
     999902    2    1    2    0    0 -0.16810524507E-01  0.33988774200E-02 -0.16440881701E-01  0.10201718710E+01  0.10198951896E+01 0.  0.
     999903    2    3    3    0    0 -0.39995756168E-01  0.50252869118E-01 -0.11486787716E+00  0.13314271425E+00  0.20182710178E-01 0.  0.
         14    1    1    2    0    0  0.16810524507E-01 -0.33988774200E-02  0.16440881701E-01  0.23758128988E-01  0.00000000000E+00 0.  1.
     999901    1    3    3    0    0  0.23185231661E-01 -0.46853991698E-01  0.98426995456E-01  0.88702915676E+00  0.88000000000E+00 0.  1.
        -11    1    4    4    0    0 -0.14802849079E-01  0.30601670346E-01 -0.45785139549E-01  0.57027420539E-01  0.51100000000E-03 0. -1.
         11    1    4    4    0    0 -0.25192907089E-01  0.19651198772E-01 -0.69082737608E-01  0.76115293714E-01  0.51100000000E-03 0.  1.
</event>
<event>
 8    1  0.1088270E+005  0.1043930E+01  0.7957747E-01            NaN
         13   -1    0    0    0    0  0.00000000000E+00  0.00000000000E+00  0.74505805969E-08  0.10566000000E+00  0.10566000000E+00 0. -1.
     999900   -1    0    0    0    0 -0.00000000000E+00 -0.00000000000E+00 -0.74505805969E-08  0.93827000000E+00  0.93827000000E+00 0. -1.
     999902    2    1    2    0    0 -0.17900213463E-01  0.11800625805E-01  0.99049166435E-02  0.10203126381E+01  0.10200392638E+01 0.  0.
     999903    2    3    3    0    0  0.78688950405E-01  0.69213512448E-01  0.75519053118E-01  0.13074480982E+00  0.20214269466E-01 0.  0.
         14    1    1    2    0    0  0.17900213463E-01 -0.11800625805E-01 -0.99049166435E-02  0.23617361942E-01  0.00000000000E+00 0.  1.
     999901    1    3    3    0    0 -0.96589163867E-01 -0.57412886644E-01 -0.65614136474E-01  0.88956782824E+00  0.88000000000E+00 0. -1.
        -11    1    4    4    0    0  0.24290695530E-01  0.15121774134E-01  0.30371061205E-01  0.41729706709E-01  0.51100000000E-03 0. -1.
         11    1    4    4    0    0  0.54398254875E-01  0.54091738314E-01  0.45147991913E-01  0.89015103112E-01  0.51100000000E-03 0.  1.
</event>
<event>
 8    1  0.1088270E+005  0.1043930E+01  0.7957747E-01            NaN
         13   -1    0    0    0    0  0.00000000000E+00  0.00000000000E+00  0.74505805969E-08  0.10566000000E+00  0.10566000000E+00 0.  1.
     999900   -1    0    0    0    0 -0.00000000000E+00 -0.00000000000E+00 -0.74505805969E-08  0.93827000000E+00  0.93827000000E+00 0.  1.
     999902    2    1    2    0    0 -0.14529507244E-01  0.14708782863E-01  0.12099254308E-01  0.10199748997E+01  0.10196935565E+01 0.  0.
     999903    2    3    3    0    0 -0.90183065671E-01  0.95395721321E-01 -0.44320666334E-02  0.13289704097E+00  0.20215125591E-01 0.  0.
         14    1    1    2    0    0  0.14529507244E-01 -0.14708782863E-01 -0.12099254308E-01  0.23955100268E-01  0.00000000000E+00 0.  1.
     999901    1    3    3    0    0  0.75653558427E-01 -0.80686938459E-01  0.16531320941E-01  0.88707785877E+00  0.88000000000E+00 0.  1.
        -11    1    4    4    0    0 -0.78920972271E-01  0.78341599152E-01  0.27253900500E-02  0.11123675154E+00  0.51100000000E-03 0. -1.
         11    1    4    4    0    0 -0.11262093399E-01  0.17054122170E-01 -0.71574566834E-02  0.21660289423E-01  0.51100000000E-03 0.  1.
</event>
<event>
 8    1  0.1088270E+005  0.1043930E+01  0.7957747E-01            NaN
         13   -1    0    0    0    0  0.00000000000E+00  0.00000000000E+00  0.74505805969E-08  0.10566000000E+00  0.10566000000E+00 0.  1.
     999900   -1    0    0    0    0 -0.00000000000E+00 -0.00000000000E+00 -0.74505805969E-08  0.93827000000E+00  0.93827000000E+00 0.  1.
     999902    2    1    2    0    0 -0.23815540240E-01 -0.74176800888E-02  0.95221266694E-02  0.10172303215E+01  0.10168798622E+01 0.  0.
     999903    2    3    3    0    0 -0.63798420400E-01  0.56539479013E-01  0.95801678653E-01  0.12979958619E+00  0.20075353308E-01 0.  0.
         14    1    1    2    0    0  0.23815540240E-01  0.74176800888E-02 -0.95221266694E-02  0.26699678484E-01  0.00000000000E+00 0. -1.
     999901    1    3    3    0    0  0.39982880160E-01 -0.63957159102E-01 -0.86279551984E-01  0.88743073532E+00  0.88000000000E+00 0.  1.
        -11    1    4    4    0    0 -0.26824821691E-01  0.18186481781E-01  0.49761793962E-01  0.59387005629E-01  0.51100000000E-03 0.  1.
         11    1    4    4    0    0 -0.36973598710E-01  0.38352997233E-01  0.46039884691E-01  0.70412580564E-01  0.51100000000E-03 0. -1.
</event>
<event>
 8    1  0.1088270E+005  0.1043930E+01  0.7957747E-01            NaN
         13   -1    0    0    0    0  0.00000000000E+00  0.00000000000E+00  0.74505805969E-08  0.10566000000E+00  0.10566000000E+00 0.  1.
     999900   -1    0    0    0    0 -0.00000000000E+00 -0.00000000000E+00 -0.74505805969E-08  0.93827000000E+00  0.93827000000E+00 0.  1.
     999902    2    1    2    0    0 -0.53876369223E-02  0.42043499822E-02 -0.22427074466E-01  0.10204848116E+01  0.10202154546E+01 0.  0.
     999903    2    3    3    0    0  0.37984311807E-01  0.11965820368E+00  0.30272629096E-01  0.13032304145E+00  0.17514833929E-01 0.  0.
         14    1    1    2    0    0  0.53876369223E-02 -0.42043499822E-02  0.22427074466E-01  0.23445188408E-01  0.00000000000E+00 0.  1.
     999901    1    3    3    0    0 -0.43371948729E-01 -0.11545385370E+00 -0.52699703562E-01  0.89016177014E+00  0.88000000000E+00 0. -1.
        -11    1    4    4    0    0  0.39625826314E-01  0.11121327093E+00  0.27050197939E-01  0.12112213700E+00  0.51100000000E-03 0. -1.
         11    1    4    4    0    0 -0.16415145066E-02  0.84449327504E-02  0.32224311572E-02  0.92009044446E-02  0.51100000000E-03 0.  1.
</event>
<event>
 8    1  0.1088270E+005  0.1043930E+01  0.7957747E-01            NaN
         13   -1    0    0    0    0  0.00000000000E+00  0.00000000000E+00  0.74505805969E-08  0.10566000000E+00  0.10566000000E+00 0.  1.
     999900   -1    0    0    0    0 -0.00000000000E+00 -0.00000000000E+00 -0.74505805969E-08  0.93827000000E+00  0.93827000000E+00 0. -1.
     999902    2    1    2    0    0 -0.28050371252E-02 -0.19681999261E-01  0.75831373581E-02  0.10226519996E+01  0.10224306133E+01 0.  0.
     999903    2    3    3    0    0 -0.42739649838E-01  0.99560201691E-01  0.71345496847E-01  0.13142861894E+00  0.21080572239E-01 0.  0.
         14    1    1    2    0    0  0.28050371252E-02  0.19681999261E-01 -0.75831373581E-02  0.21278000385E-01  0.00000000000E+00 0. -1.
     999901    1    3    3    0    0  0.39934612713E-01 -0.11924220095E+00 -0.63762359489E-01  0.89122338068E+00  0.88000000000E+00 0. -1.
        -11    1    4    4    0    0 -0.90720564773E-02  0.46252852306E-01  0.26724817757E-01  0.54185842803E-01  0.51100000000E-03 0. -1.
         11    1    4    4    0    0 -0.33667593361E-01  0.53307349385E-01  0.44620679091E-01  0.77242776133E-01  0.51100000000E-03 0.  1.
</event>
<event>
 8    1  0.1356248E+005  0.1043930E+01  0.7957747E-01            NaN
         13   -1    0    0    0    0  0.00000000000E+00  0.00000000000E+00  0.74505805969E-08  0.10566000000E+00  0.10566000000E+00 0.  1.
     999900   -1    0    0    0    0 -0.00000000000E+00 -0.00000000000E+00 -0.74505805969E-08  0.93827000000E+00  0.93827000000E+00 0. -1.
     999902    2    1    2    0    0 -0.18309604248E-01  0.10599817137E-01 -0.11199951897E-01  0.10199918160E+01  0.10197108747E+01 0.  0.
     999903    2    3    3    0    0 -0.82471980887E-01 -0.87988431257E-01  0.45275695403E-01  0.13037057522E+00  0.20075024843E-01 0.  0.
         14    1    1    2    0    0  0.18309604248E-01 -0.10599817137E-01  0.11199951897E-01  0.23938184007E-01  0.00000000000E+00 0.  1.
     999901    1    3    3    0    0  0.64162376639E-01  0.98588248394E-01 -0.56475647300E-01  0.88962124077E+00  0.88000000000E+00 0. -1.
        -11    1    4    4    0    0 -0.48771539495E-01 -0.37865999790E-01  0.20146694920E-01  0.64951115787E-01  0.51100000000E-03 0. -1.
         11    1    4    4    0    0 -0.33700441392E-01 -0.50122431467E-01  0.25129000483E-01  0.65419459433E-01  0.51100000000E-03 0.  1.
</event>
<event>
 8    1  0.1088270E+005  0.1043930E+01  0.7957747E-01            NaN
         13   -1    0    0    0    0  0.00000000000E+00  0.00000000000E+00  0.74505805969E-08  0.10566000000E+00  0.10566000000E+00 0. -1.
     999900   -1    0    0    0    0 -0.00000000000E+00 -0.00000000000E+00 -0.74505805969E-08  0.93827000000E+00  0.93827000000E+00 0. -1.
     999902    2    1    2    0    0  0.19667205285E-01  0.12357489371E-01  0.55173034752E-02  0.10200564342E+01  0.10197770255E+01 0.  0.
     999903    2    3    3    0    0  0.10389484927E-01 -0.12435241237E+00  0.27161448357E-01  0.12918936086E+00  0.19511094860E-01 0.  0.
         14    1    1    2    0    0 -0.19667205285E-01 -0.12357489371E-01 -0.55173034752E-02  0.23873565819E-01  0.00000000000E+00 0. -1.
     999901    1    3    3    0    0  0.92777203583E-02  0.13670990174E+00 -0.21644144882E-01  0.89086707333E+00  0.88000000000E+00 0.  1.
        -11    1    4    4    0    0  0.13814308123E-01 -0.50676403262E-01  0.12325641452E-01  0.53954754329E-01  0.51100000000E-03 0.  1.
         11    1    4    4    0    0 -0.34248231958E-02 -0.73676009106E-01  0.14835806904E-01  0.75234606526E-01  0.51100000000E-03 0. -1.
</event>
<event>
 8    1  0.1088270E+005  0.1043930E+01  0.7957747E-01            NaN
         13   -1    0    0    0    0  0.00000000000E+00  0.00000000000E+00  0.74505805969E-08  0.10566000000E+00  0.10566000000E+00 0. -1.
     999900   -1    0    0    0    0 -0.00000000000E+00 -0.00000000000E+00 -0.74505805969E-08  0.93827000000E+00  0.93827000000E+00 0. -1.
     999902    2    1    2    0    0 -0.15136289838E-01 -0.10368932442E-01 -0.15183443661E-01  0.10201148999E+01  0.10198368742E+01 0.  0.
     999903    2    3    3    0    0  0.51663873707E-01 -0.91651021569E-01 -0.76646470126E-01  0.13171929915E+00  0.20155068449E-01 0.  0.
         14    1    1    2    0    0  0.15136289838E-01  0.10368932442E-01  0.15183443661E-01  0.23815100072E-01  0.00000000000E+00 0. -1.
     999901    1    3    3    0    0 -0.66800163544E-01  0.81282089127E-01  0.61463026465E-01  0.88839560078E+00  0.88000000000E+00 0. -1.
        -11    1    4    4    0    0  0.39306887067E-01 -0.67648866832E-01 -0.45542682979E-01  0.90530644802E-01  0.51100000000E-03 0. -1.
         11    1    4    4    0    0  0.12356986640E-01 -0.24002154738E-01 -0.31103787147E-01  0.41188654345E-01  0.51100000000E-03 0.  1.
</event>
<event>
 8    1  0.1088270E+005  0.1043930E+01  0.7957747E-01            NaN
         13   -1    0    0    0    0  0.00000000000E+00  0.00000000000E+00  0.74505805969E-08  0.10566000000E+00  0.10566000000E+00 0.  1.
     999900   -1    0    0    0    0 -0.00000000000E+00 -0.00000000000E+00 -0.74505805969E-08  0.93827000000E+00  0.93827000000E+00 0. -1.
     999902    2    1    2    0    0 -0.74501933686E-02  0.79988033752E-02  0.80929965599E-03  0.10329691058E+01  0.10329109508E+01 0.  0.
     999903    2    3    3    0    0  0.69966510468E-01 -0.52960323224E-02  0.12109926455E+00  0.14131907669E+00  0.19562438876E-01 0.  0.
         14    1    1    2    0    0  0.74501933686E-02 -0.79988033752E-02 -0.80929965599E-03  0.10960894243E-01  0.00000000000E+00 0. -1.
     999901    1    3    3    0    0 -0.77416703836E-01  0.13294835698E-01 -0.12028996490E+00  0.89165002907E+00  0.88000000000E+00 0. -1.
        -11    1    4    4    0    0  0.51431472705E-01 -0.11204581771E-01  0.78895698487E-01  0.94844775280E-01  0.51100000000E-03 0. -1.
         11    1    4    4    0    0  0.18535037763E-01  0.59085494489E-02  0.42203566065E-01  0.46474301405E-01  0.51100000000E-03 0.  1.
</event>
<event>
 8    1  0.1088270E+005  0.1043930E+01  0.7957747E-01            NaN
         13   -1    0    0    0    0  0.00000000000E+00  0.00000000000E+00  0.74505805969E-08  0.10566000000E+00  0.10566000000E+00 0.  1.
     999900   -1    0    0    0    0 -0.00000000000E+00 -0.00000000000E+00 -0.74505805969E-08  0.93827000000E+00  0.93827000000E+00 0.  1.
     999902    2    1    2    0    0 -0.19407515957E-01 -0.12373499932E-02 -0.13133716587E-01  0.10204634872E+01  0.10201936343E+01 0.  0.
     999903    2    3    3    0    0 -0.20014838667E-01  0.27030485134E-01  0.12335759338E+00  0.12949249048E+00  0.20493129393E-01 0.  0.
         14    1    1    2    0    0  0.19407515957E-01  0.12373499932E-02  0.13133716587E-01  0.23466512779E-01  0.00000000000E+00 0.  1.
     999901    1    3    3    0    0  0.60732270964E-03 -0.28267835127E-01 -0.13649130996E+00  0.89097099674E+00  0.88000000000E+00 0.  1.
        -11    1    4    4    0    0 -0.11117560777E-01  0.27881019048E-01  0.86426733980E-01  0.91492037076E-01  0.51100000000E-03 0.  1.
         11    1    4    4    0    0 -0.88972778899E-02 -0.85053391395E-03  0.36930859398E-01  0.38000453401E-01  0.51100000000E-03 0. -1.
</event>
<event>
 8    1  0.1088270E+005  0.1043930E+01  0.7957747E-01            NaN
         13   -1    0    0    0    0  0.00000000000E+00  0.00000000000E+00  0.74505805969E-08  0.10566000000E+00  0.10566000000E+00 0.  1.
     999900   -1    0    0    0    0 -0.00000000000E+00 -0.00000000000E+00 -0.74505805969E-08  0.93827000000E+00  0.93827000000E+00 0.  1.
     999902    2    1    2    0    0 -0.44492290244E-02 -0.59426818255E-02 -0.22519082663E-01  0.10202188172E+01  0.10199432410E+01 0.  0.
     999903    2    3    3    0    0 -0.43342599838E-01  0.10320161860E+00  0.60667595063E-01  0.12873399065E+00  0.19045425002E-01 0.  0.
         14    1    1    2    0    0  0.44492290244E-02  0.59426818255E-02  0.22519082663E-01  0.23711182809E-01  0.00000000000E+00 0.  1.
     999901    1    3    3    0    0  0.38893370814E-01 -0.10914430043E+00 -0.83186677726E-01  0.89148482655E+00  0.88000000000E+00 0.  1.
        -11    1    4    4    0    0 -0.20491236815E-01  0.66902236950E-01  0.30721893192E-01  0.76419211834E-01  0.51100000000E-03 0. -1.
         11    1    4    4    0    0 -0.22851363024E-01  0.36299381655E-01  0.29945701870E-01  0.52314778812E-01  0.51100000000E-03 0.  1.
</event>
<event>
 8    1  0.1088270E+005  0.1043930E+01  0.7957747E-01            NaN
         13   -1    0    0    0    0  0.00000000000E+00  0.00000000000E+00  0.74505805969E-08  0.10566000000E+00  0.10566000000E+00 0.  1.
     999900   -1    0    0    0    0 -0.00000000000E+00 -0.00000000000E+00 -0.74505805969E-08  0.93827000000E+00  0.93827000000E+00 0.  1.
     999902    2    1    2    0    0 -0.39818230928E-02 -0.22122466308E-01 -0.71485461633E-02  0.10203427123E+01  0.10200700419E+01 0.  0.
     999903    2    3    3    0    0 -0.10705951611E+00  0.19205579296E-01  0.68609489141E-01  0.13013358061E+00  0.19922161980E-01 0.  0.
         14    1    1    2    0    0  0.39818230928E-02  0.22122466308E-01  0.71485461633E-02  0.23587287741E-01  0.00000000000E+00 0. -1.
     999901    1    3    3    0    0  0.10307769302E+00 -0.41328045604E-01 -0.75758035304E-01  0.89020913164E+00  0.88000000000E+00 0.  1.
        -11    1    4    4    0    0 -0.23078037097E-01 -0.34891822685E-02  0.18080026312E-01  0.29528268855E-01  0.51100000000E-03 0. -1.
         11    1    4    4    0    0 -0.83981479011E-01  0.22694761564E-01  0.50529462829E-01  0.10060531176E+00  0.51100000000E-03 0.  1.
</event>
<event>
 8    1  0.1088270E+005  0.1043930E+01  0.7957747E-01            NaN
         13   -1    0    0    0    0  0.00000000000E+00  0.00000000000E+00  0.74505805969E-08  0.10566000000E+00  0.10566000000E+00 0.  1.
     999900   -1    0    0    0    0 -0.00000000000E+00 -0.00000000000E+00 -0.74505805969E-08  0.93827000000E+00  0.93827000000E+00 0.  1.
     999902    2    1    2    0    0  0.16375623849E-01  0.10451387427E-01 -0.14021586782E-01  0.10199717561E+01  0.10196903382E+01 0.  0.
     999903    2    3    3    0    0  0.64841590165E-01  0.99220726339E-01  0.53316828481E-01  0.13162305901E+00  0.20802911190E-01 0.  0.
         14    1    1    2    0    0 -0.16375623849E-01 -0.10451387427E-01  0.14021586782E-01  0.23958243915E-01  0.00000000000E+00 0.  1.
     999901    1    3    3    0    0 -0.48465966316E-01 -0.88769338912E-01 -0.67338415263E-01  0.88834869707E+00  0.88000000000E+00 0.  1.
        -11    1    4    4    0    0  0.37964517140E-01  0.41332048074E-01  0.30248580797E-01  0.63756415527E-01  0.51100000000E-03 0.  1.
         11    1    4    4    0    0  0.26877073025E-01  0.57888678265E-01  0.23068247685E-01  0.67866643484E-01  0.51100000000E-03 0. -1.
</event>
<event>
 8    1  0.1088270E+005  0.1043930E+01  0.7957747E-01            NaN
         13   -1    0    0    0    0  0.00000000000E+00  0.00000000000E+00  0.74505805969E-08  0.10566000000E+00  0.10566000000E+00 0. -1.
     999900   -1    0    0    0    0 -0.00000000000E+00 -0.00000000000E+00 -0.74505805969E-08  0.93827000000E+00  0.93827000000E+00 0.  1.
     999902    2    1    2    0    0 -0.32560592260E-03  0.19290698767E-01  0.13824766735E-01  0.10201947677E+01  0.10199186255E+01 0.  0.
     999903    2    3    3    0    0 -0.87253748152E-01 -0.88682150560E-01  0.30514114977E-01  0.12918793692E+00  0.16753251609E-01 0.  0.
         14    1    1    2    0    0  0.32560592260E-03 -0.19290698767E-01 -0.13824766735E-01  0.23735232323E-01  0.00000000000E+00 0. -1.
     999901    1    3    3    0    0  0.86928142229E-01  0.10797284933E+00 -0.16689348242E-01  0.89100683075E+00  0.88000000000E+00 0.  1.
        -11    1    4    4    0    0 -0.67909661119E-01 -0.58359991660E-01  0.20743157985E-01  0.91913820637E-01  0.51100000000E-03 0.  1.
         11    1    4    4    0    0 -0.19344087033E-01 -0.30322158899E-01  0.97709569920E-02  0.37274116287E-01  0.51100000000E-03 0. -1.
</event>
<event>
 8    1  0.1088270E+005  0.1043930E+01  0.7957747E-01            NaN
         13   -1    0    0    0    0  0.00000000000E+00  0.00000000000E+00  0.74505805969E-08  0.10566000000E+00  0.10566000000E+00 0.  1.
     999900   -1    0    0    0    0 -0.00000000000E+00 -0.00000000000E+00 -0.74505805969E-08  0.93827000000E+00  0.93827000000E+00 0.  1.
     999902    2    1    2    0    0  0.11983047622E-01  0.29885818464E-03  0.20284078680E-01  0.10203688754E+01  0.10200968166E+01 0.  0.
     999903    2    3    3    0    0 -0.41723933471E-01 -0.85251356220E-01 -0.84246254609E-01  0.12844406374E+00  0.19793072843E-01 0.  0.
         14    1    1    2    0    0 -0.11983047622E-01 -0.29885818464E-03 -0.20284078680E-01  0.23561124642E-01  0.00000000000E+00 0. -1.
     999901    1    3    3    0    0  0.53706981093E-01  0.85550214405E-01  0.10453033329E+00  0.89192481162E+00  0.88000000000E+00 0. -1.
        -11    1    4    4    0    0 -0.28125344906E-01 -0.63574120093E-01 -0.71950394195E-01  0.10004910853E+00  0.51100000000E-03 0.  1.
         11    1    4    4    0    0 -0.13598588565E-01 -0.21677236127E-01 -0.12295860415E-01  0.28394955211E-01  0.51100000000E-03 0. -1.
</event>
<event>
 8    1  0.1088270E+005  0.1043930E+01  0.7957747E-01            NaN
         13   -1    0    0    0    0  0.00000000000E+00  0.00000000000E+00  0.74505805969E-08  0.10566000000E+00  0.10566000000E+00 0. -1.
     999900   -1    0    0    0    0 -0.00000000000E+00 -0.00000000000E+00 -0.74505805969E-08  0.93827000000E+00  0.93827000000E+00 0.  1.
     999902    2    1    2    0    0  0.90958702446E-03  0.15625159621E-01  0.17828986430E-01  0.10202056303E+01  0.10199297438E+01 0.  0.
     999903    2    3    3    0    0  0.11313731827E+00  0.99467780344E-02  0.63883719124E-01  0.13186541049E+00  0.20208061179E-01 0.  0.
         14    1    1    2    0    0 -0.90958702446E-03 -0.15625159621E-01 -0.17828986430E-01  0.23724369725E-01  0.00000000000E+00 0.  1.
     999901    1    3    3    0    0 -0.11222773125E+00  0.56783815867E-02 -0.46054732693E-01  0.88834021978E+00  0.88000000000E+00 0.  1.
        -11    1    4    4    0    0  0.59198238026E-01 -0.45214872066E-02  0.29711605939E-01  0.66392137188E-01  0.51100000000E-03 0.  1.
         11    1    4    4    0    0  0.53939080245E-01  0.14468265241E-01  0.34172113184E-01  0.65473273305E-01  0.51100000000E-03 0. -1.
</event>
<event>
 8    1  0.1088270E+005  0.1043930E+01  0.7957747E-01            NaN
         13   -1    0    0    0    0  0.00000000000E+00  0.00000000000E+00  0.74505805969E-08  0.10566000000E+00  0.10566000000E+00 0. -1.
     999900   -1    0    0    0    0 -0.00000000000E+00 -0.00000000000E+00 -0.74505805969E-08  0.93827000000E+00  0.93827000000E+00 0.  1.
     999902    2    1    2    0    0  0.16517423063E-01  0.14227847127E-01 -0.82457979919E-02  0.10206222742E+01  0.10203561028E+01 0.  0.
     999903    2    3    3    0    0  0.13886594141E-01 -0.11264057594E+00  0.58393713711E-01  0.12902632166E+00  0.18900503511E-01 0.  0.
         14    1    1    2    0    0 -0.16517423063E-01 -0.14227847127E-01  0.82457979919E-02  0.23307725822E-01  0.00000000000E+00 0. -1.
     999901    1    3    3    0    0  0.26308289216E-02  0.12686842307E+00 -0.66639511703E-01  0.89159595252E+00  0.88000000000E+00 0.  1.
        -11    1    4    4    0    0  0.17270534778E-01 -0.93941165649E-01  0.53139273903E-01  0.10930351105E+00  0.51100000000E-03 0. -1.
         11    1    4    4    0    0 -0.33839406368E-02 -0.18699410296E-01  0.52544398075E-02  0.19722810610E-01  0.51100000000E-03 0.  1.
</event>
<event>
 8    1  0.1088270E+005  0.1043930E+01  0.7957747E-01            NaN
         13   -1    0    0    0    0  0.00000000000E+00  0.00000000000E+00  0.74505805969E-08  0.10566000000E+00  0.10566000000E+00 0. -1.
     999900   -1    0    0    0    0 -0.00000000000E+00 -0.00000000000E+00 -0.74505805969E-08  0.93827000000E+00  0.93827000000E+00 0. -1.
     999902    2    1    2    0    0  0.19111267596E-01  0.11317291073E-01  0.63650496315E-02  0.10208251199E+01  0.10205636139E+01 0.  0.
     999903    2    3    3    0    0 -0.38066649149E-01  0.11258267451E+00 -0.52650414683E-01  0.13121463377E+00  0.17924440632E-01 0.  0.
         14    1    1    2    0    0 -0.19111267596E-01 -0.11317291073E-01 -0.63650496315E-02  0.23104880073E-01  0.00000000000E+00 0.  1.
     999901    1    3    3    0    0  0.57177916745E-01 -0.10126538344E+00  0.59015464315E-01  0.88961048615E+00  0.88000000000E+00 0.  1.
        -11    1    4    4    0    0 -0.74631116690E-02  0.30517662380E-01 -0.60359330674E-02  0.31995614729E-01  0.51100000000E-03 0. -1.
         11    1    4    4    0    0 -0.30603537480E-01  0.82065012133E-01 -0.46614481616E-01  0.99219019044E-01  0.51100000000E-03 0.  1.
</event>
<event>
 8    1  0.1088270E+005  0.1043930E+01  0.7957747E-01            NaN
         13   -1    0    0    0    0  0.00000000000E+00  0.00000000000E+00  0.74505805969E-08  0.10566000000E+00  0.10566000000E+00 0.  1.
     999900   -1    0    0    0    0 -0.00000000000E+00 -0.00000000000E+00 -0.74505805969E-08  0.93827000000E+00  0.93827000000E+00 0. -1.
     999902    2    1    2    0    0  0.97555058960E-03  0.24264431676E-01 -0.49311494989E-02  0.10191503596E+01  0.10188490687E+01 0.  0.
     999903    2    3    3    0    0 -0.45415133120E-01  0.66785354431E-01  0.10056784506E+00  0.13061777028E+00  0.20598363328E-01 0.  0.
         14    1    1    2    0    0 -0.97555058960E-03 -0.24264431676E-01  0.49311494989E-02  0.24779640411E-01  0.00000000000E+00 0.  1.
     999901    1    3    3    0    0  0.46390683710E-01 -0.42520922754E-01 -0.10549899455E+00  0.88853258931E+00  0.88000000000E+00 0. -1.
        -11    1    4    4    0    0 -0.45790591602E-01  0.66893048754E-01  0.94461674575E-01  0.12447781865E+00  0.51100000000E-03 0.  1.
         11    1    4    4    0    0  0.37545848174E-03 -0.10769432377E-03  0.61061704801E-02  0.61399516342E-02  0.51100000000E-03 0. -1.
</event>
<event>
 8    1  0.1088270E+005  0.1043930E+01  0.7957747E-01            NaN
         13   -1    0    0    0    0  0.00000000000E+00  0.00000000000E+00  0.74505805969E-08  0.10566000000E+00  0.10566000000E+00 0. -1.
     999900   -1    0    0    0    0 -0.00000000000E+00 -0.00000000000E+00 -0.74505805969E-08  0.93827000000E+00  0.93827000000E+00 0.  1.
     999902    2    1    2    0    0 -0.43984154581E-02 -0.12940888146E-02  0.23814146304E-01  0.10196785199E+01  0.10193900871E+01 0.  0.
     999903    2    3    3    0    0  0.64662610525E-01 -0.33709263473E-01 -0.10237146498E+00  0.12741007520E+00  0.20876847842E-01 0.  0.
         14    1    1    2    0    0  0.43984154581E-02  0.12940888146E-02 -0.23814146304E-01  0.24251480132E-01  0.00000000000E+00 0.  1.
     999901    1    3    3    0    0 -0.69061025983E-01  0.32415174658E-01  0.12618561129E+00  0.89226844467E+00  0.88000000000E+00 0.  1.
        -11    1    4    4    0    0  0.59535253732E-01 -0.32410939639E-01 -0.82176515790E-01  0.10652772556E+00  0.51100000000E-03 0. -1.
         11    1    4    4    0    0  0.51273567930E-02 -0.12983238341E-02 -0.20194949191E-01  0.20882349635E-01  0.51100000000E-03 0.  1.
</event>
<event>
 8    1  0.1088270E+005  0.1043930E+01  0.7957747E-01            NaN
         13   -1    0    0    0    0  0.00000000000E+00  0.00000000000E+00  0.74505805969E-08  0.10566000000E+00  0.10566000000E+00 0. -1.
     999900   -1    0    0    0    0 -0.00000000000E+00 -0.00000000000E+00 -0.74505805969E-08  0.93827000000E+00  0.93827000000E+00 0. -1.
     999902    2    1    2    0    0 -0.80011366951E-02 -0.90446206695E-02 -0.16703559294E-01  0.10233185409E+01  0.10231109441E+01 0.  0.
     999903    2    3    3    0    0 -0.66587472314E-02 -0.18928229359E-01  0.12832811702E+00  0.13139159614E+00  0.19824962431E-01 0.  0.
         14    1    1    2    0    0  0.80011366951E-02  0.90446206695E-02  0.16703559294E-01  0.20611459059E-01  0.00000000000E+00 0. -1.
     999901    1    3    3    0    0 -0.13423894637E-02  0.98836086898E-02 -0.14503167632E+00  0.89192694480E+00  0.88000000000E+00 0. -1.
        -11    1    4    4    0    0 -0.11368604504E-01 -0.32592518883E-02  0.53700798165E-01  0.54990042151E-01  0.51100000000E-03 0. -1.
         11    1    4    4    0    0  0.47098572725E-02 -0.15668977471E-01  0.74627318858E-01  0.76401553986E-01  0.51100000000E-03 0.  1.
</event>
<event>
 8    1  0.1088270E+005  0.1043930E+01  0.7957747E-01            NaN
         13   -1    0    0    0    0  0.00000000000E+00  0.00000000000E+00  0.74505805969E-08  0.10566000000E+00  0.10566000000E+00 0.  1.
     999900   -1    0    0    0    0 -0.00000000000E+00 -0.00000000000E+00 -0.74505805969E-08  0.93827000000E+00  0.93827000000E+00 0. -1.
     999902    2    1    2    0    0 -0.30539002552E-02  0.16821331523E-01 -0.15978973445E-01  0.10205289083E+01  0.10202605753E+01 0.  0.
     999903    2    3    3    0    0 -0.41251347334E-01 -0.98899314436E-01 -0.70355317723E-01  0.13046874196E+00  0.24279082438E-01 0.  0.
         14    1    1    2    0    0  0.30539002552E-02 -0.16821331523E-01  0.15978973445E-01  0.23401091713E-01  0.00000000000E+00 0.  1.
     999901    1    3    3    0    0  0.38197447079E-01  0.11572064596E+00  0.54376344277E-01  0.89006016633E+00  0.88000000000E+00 0.  1.
        -11    1    4    4    0    0 -0.12084451890E-01 -0.58398602463E-01 -0.43260683389E-01  0.73676173865E-01  0.51100000000E-03 0.  1.
         11    1    4    4    0    0 -0.29166895444E-01 -0.40500711973E-01 -0.27094634334E-01  0.56792568095E-01  0.51100000000E-03 0. -1.
</event>
<event>
 8    1  0.1088270E+005  0.1043930E+01  0.7957747E-01            NaN
         13   -1    0    0    0    0  0.00000000000E+00  0.00000000000E+00  0.74505805969E-08  0.10566000000E+00  0.10566000000E+00 0. -1.
     999900   -1    0    0    0    0 -0.00000000000E+00 -0.00000000000E+00 -0.74505805969E-08  0.93827000000E+00  0.93827000000E+00 0. -1.
     999902    2    1    2    0    0 -0.13034976857E-01 -0.14412361012E-02 -0.19130191664E-01  0.10207362074E+01  0.10204726616E+01 0.  0.
     999903    2    3    3    0    0 -0.81661783578E-01 -0.86671953482E-02 -0.10371907272E+00  0.13399096105E+00  0.21264158183E-01 0.  0.
         14    1    1    2    0    0  0.13034976857E-01  0.14412361012E-02  0.19130191664E-01  0.23193792623E-01  0.00000000000E+00 0. -1.
     999901    1    3    3    0    0  0.68626806721E-01  0.72259592470E-02  0.84588881061E-01  0.88674524633E+00  0.88000000000E+00 0.  1.
        -11    1    4    4    0    0 -0.31375898648E-01 -0.65778600092E-02 -0.56573424897E-01  0.65027138826E-01  0.51100000000E-03 0. -1.
         11    1    4    4    0    0 -0.50285884930E-01 -0.20893353389E-02 -0.47145647828E-01  0.68963822222E-01  0.51100000000E-03 0.  1.
</event>
<event>
 7    1  0.1088270E+005  0.1043930E+01  0.7957747E-01            NaN
         13   -1    0    0    0    0  0.00000000000E+00  0.00000000000E+00  0.74505805969E-08  0.10566000000E+00  0.10566000000E+00 0. -1.
     999900   -1    0    0    0    0 -0.00000000000E+00 -0.00000000000E+00 -0.74505805969E-08  0.93827000000E+00  0.93827000000E+00 0.  1.
     999902    2    1    2    0    0 -0.53833845475E-03 -0.57533664638E-02  0.23060170915E-01  0.10201568530E+01  0.10198798176E+01 0.  0.
         14    1    1    2    0    0  0.53833845475E-03  0.57533664638E-02 -0.23060170915E-01  0.23773146965E-01  0.00000000000E+00 0.  1.
     999901    1    3    3    0    0  0.41113443918E-01 -0.97818736750E-01 -0.51595410252E-01  0.88787437562E+00  0.88000000000E+00 0.  1.
        -11    1    3    3    0    0 -0.17453589351E-01  0.94108115445E-02  0.28052293035E-01  0.34356708525E-01  0.51100000000E-03 0. -1.
         11    1    3    3    0    0 -0.24198193022E-01  0.82654558742E-01  0.46603288132E-01  0.97925768887E-01  0.51100000000E-03 0.  1.
</event>
<event>
 8    1  0.1088270E+005  0.1043930E+01  0.7957747E-01            NaN
         13   -1    0    0    0    0  0.00000000000E+00  0.00000000000E+00  0.74505805969E-08  0.10566000000E+00  0.10566000000E+00 0.  1.
     999900   -1    0    0    0    0 -0.00000000000E+00 -0.00000000000E+00 -0.74505805969E-08  0.93827000000E+00  0.93827000000E+00 0.  1.
     999902    2    1    2    0    0  0.30579478448E-01  0.32311838135E-02 -0.55469810881E-02  0.10126839755E+01  0.10122018179E+01 0.  0.
     999903    2    3    3    0    0  0.63608990299E-01  0.47455595788E-01  0.94778990526E-01  0.12526521982E+00  0.20252926512E-01 0.  0.
         14    1    1    2    0    0 -0.30579478448E-01 -0.32311838135E-02  0.55469810881E-02  0.31246024550E-01  0.00000000000E+00 0. -1.
     999901    1    3    3    0    0 -0.33029511852E-01 -0.44224411975E-01 -0.10032597161E+00  0.88741875563E+00  0.88000000000E+00 0.  1.
        -11    1    4    4    0    0  0.45439867724E-01  0.21896315898E-01  0.55435473527E-01  0.74950537522E-01  0.51100000000E-03 0. -1.
         11    1    4    4    0    0  0.18169122575E-01  0.25559279890E-01  0.39343516999E-01  0.50314682295E-01  0.51100000000E-03 0.  1.
</event>
<event>
 8    1  0.1088270E+005  0.1043930E+01  0.7957747E-01            NaN
         13   -1    0    0    0    0  0.00000000000E+00  0.00000000000E+00  0.74505805969E-08  0.10566000000E+00  0.10566000000E+00 0.  1.
     999900   -1    0    0    0    0 -0.00000000000E+00 -0.00000000000E+00 -0.74505805969E-08  0.93827000000E+00  0.93827000000E+00 0. -1.
     999902    2    1    2    0    0  0.16166281490E-01 -0.25205348491E-02 -0.16462096842E-01  0.10207200369E+01  0.10204561193E+01 0.  0.
     999903    2    3    3    0    0  0.10482828980E+00  0.70729847715E-01  0.31704957168E-01  0.13193061567E+00  0.20218836316E-01 0.  0.
         14    1    1    2    0    0 -0.16166281490E-01  0.25205348491E-02  0.16462096842E-01  0.23209963067E-01  0.00000000000E+00 0.  1.
     999901    1    3    3    0    0 -0.88662008305E-01 -0.73250382564E-01 -0.48167054010E-01  0.88878942127E+00  0.88000000000E+00 0.  1.
        -11    1    4    4    0    0  0.51218914934E-01  0.36231703730E-01  0.26031142247E-01  0.67926394648E-01  0.51100000000E-03 0.  1.
         11    1    4    4    0    0  0.53609374861E-01  0.34498143985E-01  0.56738149201E-02  0.64004221018E-01  0.51100000000E-03 0. -1.
</event>
<event>
 8    1  0.1088270E+005  0.1043930E+01  0.7957747E-01            NaN
         13   -1    0    0    0    0  0.00000000000E+00  0.00000000000E+00  0.74505805969E-08  0.10566000000E+00  0.10566000000E+00 0. -1.
     999900   -1    0    0    0    0 -0.00000000000E+00 -0.00000000000E+00 -0.74505805969E-08  0.93827000000E+00  0.93827000000E+00 0. -1.
     999902    2    1    2    0    0 -0.66935075358E-03 -0.18138290887E-01  0.15023203833E-01  0.10203685425E+01  0.10200964759E+01 0.  0.
     999903    2    3    3    0    0 -0.73339534164E-01 -0.92682458725E-01  0.58174040634E-01  0.13318210028E+00  0.19609370335E-01 0.  0.
         14    1    1    2    0    0  0.66935075358E-03  0.18138290887E-01 -0.15023203833E-01  0.23561457514E-01  0.00000000000E+00 0.  1.
     999901    1    3    3    0    0  0.72670183410E-01  0.74544167838E-01 -0.43150836801E-01  0.88718644220E+00  0.88000000000E+00 0. -1.
        -11    1    4    4    0    0 -0.26308688709E-01 -0.31884353328E-01  0.10225679349E-01  0.42586203492E-01  0.51100000000E-03 0. -1.
         11    1    4    4    0    0 -0.47030845455E-01 -0.60798105397E-01  0.47948361285E-01  0.90595896789E-01  0.51100000000E-03 0.  1.
</event>
<event>
 8    1  0.1135458E+005  0.1043930E+01  0.7957747E-01            NaN
         13   -1    0    0    0    0  0.00000000000E+00  0.00000000000E+00  0.74505805969E-08  0.10566000000E+00  0.10566000000E+00 0.  1.
     999900   -1    0    0    0    0 -0.00000000000E+00 -0.00000000000E+00 -0.74505805969E-08  0.93827000000E+00  0.93827000000E+00 0. -1.
     999902    2    1    2    0    0 -0.45082950566E-02 -0.12546944595E-01 -0.17781794517E-01  0.10217051770E+01  0.10214634237E+01 0.  0.
     999903    2    3    3    0    0 -0.40815883578E-02  0.62728176236E-01 -0.11580224047E+00  0.13306884318E+00  0.18592328251E-01 0.  0.
         14    1    1    2    0    0  0.45082950566E-02  0.12546944595E-01  0.17781794517E-01  0.22224823041E-01  0.00000000000E+00 0.  1.
     999901    1    3    3    0    0 -0.42670669880E-03 -0.75275120831E-01  0.98020445950E-01  0.88863633378E+00  0.88000000000E+00 0.  1.
        -11    1    4    4    0    0 -0.73583093399E-02  0.46014596744E-01 -0.69016517155E-01  0.83276819050E-01  0.51100000000E-03 0.  1.
         11    1    4    4    0    0  0.32767209822E-02  0.16713579492E-01 -0.46785723311E-01  0.49792024126E-01  0.51100000000E-03 0. -1.
</event>
<event>
 8    1  0.1088270E+005  0.1043930E+01  0.7957747E-01            NaN
         13   -1    0    0    0    0  0.00000000000E+00  0.00000000000E+00  0.74505805969E-08  0.10566000000E+00  0.10566000000E+00 0.  1.
     999900   -1    0    0    0    0 -0.00000000000E+00 -0.00000000000E+00 -0.74505805969E-08  0.93827000000E+00  0.93827000000E+00 0.  1.
     999902    2    1    2    0    0 -0.50791932053E-02 -0.36706957666E-02 -0.23570304832E-01  0.10195408327E+01  0.10192490756E+01 0.  0.
     999903    2    3    3    0    0 -0.11424588587E-01 -0.98009979951E-01 -0.85912124504E-01  0.13228288428E+00  0.19529233006E-01 0.  0.
         14    1    1    2    0    0  0.50791932053E-02  0.36706957666E-02  0.23570304832E-01  0.24389167286E-01  0.00000000000E+00 0.  1.
     999901    1    3    3    0    0  0.63453953817E-02  0.94339284184E-01  0.62341819672E-01  0.88725794844E+00  0.88000000000E+00 0. -1.
        -11    1    4    4    0    0 -0.50994543341E-02 -0.39004645516E-01 -0.47120300554E-01  0.61383635048E-01  0.51100000000E-03 0.  1.
         11    1    4    4    0    0 -0.63251342528E-02 -0.59005334435E-01 -0.38791823950E-01  0.70899249231E-01  0.51100000000E-03 0. -1.
</event>
<event>
 8    1  0.1088270E+005  0.1043930E+01  0.7957747E-01            NaN
         13   -1    0    0    0    0  0.00000000000E+00  0.00000000000E+00  0.74505805969E-08  0.10566000000E+00  0.10566000000E+00 0.  1.
     999900   -1    0    0    0    0 -0.00000000000E+00 -0.00000000000E+00 -0.74505805969E-08  0.93827000000E+00  0.93827000000E+00 0. -1.
     999902    2    1    2    0    0  0.37313000760E-02  0.25979319400E-01 -0.15157428287E-01  0.10136216634E+01  0.10131684367E+01 0.  0.
     999903    2    3    3    0    0 -0.58430477332E-01 -0.49927063548E-01 -0.96018941249E-01  0.12448475051E+00  0.19234959699E-01 0.  0.
         14    1    1    2    0    0 -0.37313000760E-02 -0.25979319400E-01  0.15157428287E-01  0.30308336626E-01  0.00000000000E+00 0. -1.
     999901    1    3    3    0    0  0.62161777408E-01  0.75906382948E-01  0.80861512962E-01  0.88913691287E+00  0.88000000000E+00 0.  1.
        -11    1    4    4    0    0 -0.34896616330E-01 -0.40072569304E-01 -0.71597705803E-01  0.89163205636E-01  0.51100000000E-03 0. -1.
         11    1    4    4    0    0 -0.23533861002E-01 -0.98544942443E-02 -0.24421235446E-01  0.35321544872E-01  0.51100000000E-03 0.  1.
</event>
<event>
 8    1  0.1088270E+005  0.1043930E+01  0.7957747E-01            NaN
         13   -1    0    0    0    0  0.00000000000E+00  0.00000000000E+00  0.74505805969E-08  0.10566000000E+00  0.10566000000E+00 0. -1.
     999900   -1    0    0    0    0 -0.00000000000E+00 -0.00000000000E+00 -0.74505805969E-08  0.93827000000E+00  0.93827000000E+00 0. -1.
     999902    2    1    2    0    0  0.19412917950E-01 -0.14823557218E-01  0.18184032575E-02  0.10194370250E+01  0.10191427487E+01 0.  0.
     999903    2    3    3    0    0 -0.80668824882E-02 -0.12962802283E+00  0.46297568423E-02  0.13155014685E+00  0.20384003365E-01 0.  0.
         14    1    1    2    0    0 -0.19412917950E-01  0.14823557218E-01 -0.18184032575E-02  0.24492974959E-01  0.00000000000E+00 0. -1.
     999901    1    3    3    0    0  0.27479800438E-01  0.11480446561E+00 -0.28113535849E-02  0.88788687819E+00  0.88000000000E+00 0.  1.
        -11    1    4    4    0    0 -0.15882166831E-02 -0.13426223911E-01 -0.57586411740E-02  0.14704046719E-01  0.51100000000E-03 0.  1.
         11    1    4    4    0    0 -0.64786658051E-02 -0.11620179891E+00  0.10388398016E-01  0.11684610013E+00  0.51100000000E-03 0. -1.
</event>
<event>
 8    1  0.1088270E+005  0.1043930E+01  0.7957747E-01            NaN
         13   -1    0    0    0    0  0.00000000000E+00  0.00000000000E+00  0.74505805969E-08  0.10566000000E+00  0.10566000000E+00 0.  1.
     999900   -1    0    0    0    0 -0.00000000000E+00 -0.00000000000E+00 -0.74505805969E-08  0.93827000000E+00  0.93827000000E+00 0.  1.
     999902    2    1    2    0    0  0.14054871211E-01 -0.13349772230E-01  0.14278145005E-01  0.10198546755E+01  0.10195704674E+01 0.  0.
     999903    2    3    3    0    0 -0.88381244097E-01  0.88514943301E-01  0.18811575988E-01  0.12806426855E+00  0.20011046774E-01 0.  0.
         14    1    1    2    0    0 -0.14054871211E-01  0.13349772230E-01 -0.14278145005E-01  0.24075324466E-01  0.00000000000E+00 0. -1.
     999901    1    3    3    0    0  0.10243611531E+00 -0.10186471553E+00 -0.45334309835E-02  0.89179040698E+00  0.88000000000E+00 0.  1.
        -11    1    4    4    0    0 -0.76056269469E-01  0.84511900848E-01  0.17346383185E-01  0.11501293684E+00  0.51100000000E-03 0. -1.
         11    1    4    4    0    0 -0.12324974627E-01  0.40030424530E-02  0.14651928037E-02  0.13051331710E-01  0.51100000000E-03 0.  1.
</event>
<event>
 8    1  0.1088270E+005  0.1043930E+01  0.7957747E-01            NaN
         13   -1    0    0    0    0  0.00000000000E+00  0.00000000000E+00  0.74505805969E-08  0.10566000000E+00  0.10566000000E+00 0. -1.
     999900   -1    0    0    0    0 -0.00000000000E+00 -0.00000000000E+00 -0.74505805969E-08  0.93827000000E+00  0.93827000000E+00 0. -1.
     999902    2    1    2    0    0 -0.31779462207E-02 -0.12204885870E-01 -0.20289153622E-01  0.10200404974E+01  0.10197607111E+01 0.  0.
     999903    2    3    3    0    0 -0.11195402496E+00 -0.56631940108E-01  0.31160256684E-01  0.13074131246E+00  0.19530715385E-01 0.  0.
         14    1    1    2    0    0  0.31779462207E-02  0.12204885870E-01  0.20289153622E-01  0.23889502631E-01  0.00000000000E+00 0. -1.
     999901    1    3    3    0    0  0.10877607874E+00  0.44427054238E-01 -0.51449410305E-01  0.88929918491E+00  0.88000000000E+00 0. -1.
        -11    1    4    4    0    0 -0.60231013426E-01 -0.39484575695E-01  0.12224466557E-01  0.73051388760E-01  0.51100000000E-03 0. -1.
         11    1    4    4    0    0 -0.51723011531E-01 -0.17147364413E-01  0.18935790127E-01  0.57689923703E-01  0.51100000000E-03 0.  1.
</event>
<event>
 8    1  0.1088270E+005  0.1043930E+01  0.7957747E-01            NaN
         13   -1    0    0    0    0  0.00000000000E+00  0.00000000000E+00  0.74505805969E-08  0.10566000000E+00  0.10566000000E+00 0.  1.
     999900   -1    0    0    0    0 -0.00000000000E+00 -0.00000000000E+00 -0.74505805969E-08  0.93827000000E+00  0.93827000000E+00 0.  1.
     999902    2    1    2    0    0 -0.36050859996E-02 -0.75114716710E-04 -0.23308137651E-01  0.10203445899E+01  0.10200719635E+01 0.  0.
     999903    2    3    3    0    0 -0.12445415278E+00 -0.13102472099E-01  0.31370329160E-01  0.13030866722E+00  0.18323217036E-01 0.  0.
         14    1    1    2    0    0  0.36050859996E-02  0.75114716710E-04  0.23308137651E-01  0.23585410067E-01  0.00000000000E+00 0.  1.
     999901    1    3    3    0    0  0.12084906678E+00  0.13027357382E-01 -0.54678466811E-01  0.89003592271E+00  0.88000000000E+00 0.  1.
        -11    1    4    4    0    0 -0.11685905397E+00 -0.95563187581E-02  0.25305633845E-01  0.11994998103E+00  0.51100000000E-03 0.  1.
         11    1    4    4    0    0 -0.75950988080E-02 -0.35461533406E-02  0.60646953144E-02  0.10358686194E-01  0.51100000000E-03 0. -1.
</event>
<event>
 8    1  0.1088270E+005  0.1043930E+01  0.7957747E-01            NaN
         13   -1    0    0    0    0  0.00000000000E+00  0.00000000000E+00  0.74505805969E-08  0.10566000000E+00  0.10566000000E+00 0.  1.
     999900   -1    0    0    0    0 -0.00000000000E+00 -0.00000000000E+00 -0.74505805969E-08  0.93827000000E+00  0.93827000000E+00 0. -1.
     999902    2    1    2    0    0 -0.13933902653E-01  0.12461156544E-01 -0.14759847450E-01  0.10201122091E+01  0.10198341199E+01 0.  0.
     999903    2    3    3    0    0  0.37124218905E-02  0.71491008729E-01 -0.10984742631E+00  0.13284811999E+00  0.21387368024E-01 0.  0.
         14    1    1    2    0    0  0.13933902653E-01 -0.12461156544E-01  0.14759847450E-01  0.23817790878E-01  0.00000000000E+00 0.  1.
     999901    1    3    3    0    0 -0.17646324544E-01 -0.59029852186E-01  0.95087578861E-01  0.88726408914E+00  0.88000000000E+00 0.  1.
        -11    1    4    4    0    0 -0.28513097539E-02  0.50327523499E-01 -0.89703817404E-01  0.10289813199E+00  0.51100000000E-03 0. -1.
         11    1    4    4    0    0  0.65637316444E-02  0.21163485230E-01 -0.20143608907E-01  0.29949987996E-01  0.51100000000E-03 0.  1.
</event>
<event>
 8    1  0.1088270E+005  0.1043930E+01  0.7957747E-01            NaN
         13   -1    0    0    0    0  0.00000000000E+00  0.00000000000E+00  0.74505805969E-08  0.10566000000E+00  0.10566000000E+00 0.  1.
     999900   -1    0    0    0    0 -0.00000000000E+00 -0.00000000000E+00 -0.74505805969E-08  0.93827000000E+00  0.93827000000E+00 0. -1.
     999902    2    1    2    0    0 -0.19864930134E-01  0.62641036104E-02  0.11697649934E-01  0.10200408925E+01  0.10197611156E+01 0.  0.
     999903    2    3    3    0    0 -0.12061098247E+00 -0.41431244438E-01  0.31237962704E-01  0.13279434440E+00  0.19873864296E-01 0.  0.
         14    1    1    2    0    0  0.19864930134E-01 -0.62641036104E-02 -0.11697649934E-01  0.23889107502E-01  0.00000000000E+00 0. -1.
     999901    1    3    3    0    0  0.10074605234E+00  0.47695348048E-01 -0.19540312770E-01  0.88724654810E+00  0.88000000000E+00 0.  1.
        -11    1    4    4    0    0 -0.19063067404E-01 -0.14531618555E-01  0.71089690541E-02  0.25007339696E-01  0.51100000000E-03 0. -1.
         11    1    4    4    0    0 -0.10154791507E+00 -0.26899625883E-01  0.24128993650E-01  0.10778700470E+00  0.51100000000E-03 0.  1.
</event>
<event>
 8    1  0.1088270E+005  0.1043930E+01  0.7957747E-01            NaN
         13   -1    0    0    0    0  0.00000000000E+00  0.00000000000E+00  0.74505805969E-08  0.10566000000E+00  0.10566000000E+00 0. -1.
     999900   -1    0    0    0    0 -0.00000000000E+00 -0.00000000000E+00 -0.74505805969E-08  0.93827000000E+00  0.93827000000E+00 0.  1.
     999902    2    1    2    0    0  0.14394896300E-01 -0.15367337917E-01 -0.15497066885E-01  0.10177856470E+01  0.10174498002E+01 0.  0.
     999903    2    3    3    0    0 -0.47724785959E-01 -0.11180383522E+00  0.38734853410E-01  0.12868500354E+00  0.16783578421E-01 0.  0.
         14    1    1    2    0    0 -0.14394896300E-01  0.15367337917E-01  0.15497066885E-01  0.26144353046E-01  0.00000000000E+00 0. -1.
     999901    1    3    3    0    0  0.62119682259E-01  0.96436497298E-01 -0.54231920295E-01  0.88910064341E+00  0.88000000000E+00 0.  1.
        -11    1    4    4    0    0 -0.10526125570E-01 -0.39086224316E-01  0.71446979060E-02  0.41107664491E-01  0.51100000000E-03 0.  1.
         11    1    4    4    0    0 -0.37198660389E-01 -0.72717610900E-01  0.31590155504E-01  0.87577339052E-01  0.51100000000E-03 0. -1.
</event>
<event>
 8    1  0.1088270E+005  0.1043930E+01  0.7957747E-01            NaN
         13   -1    0    0    0    0  0.00000000000E+00  0.00000000000E+00  0.74505805969E-08  0.10566000000E+00  0.10566000000E+00 0.  1.
     999900   -1    0    0    0    0 -0.00000000000E+00 -0.00000000000E+00 -0.74505805969E-08  0.93827000000E+00  0.93827000000E+00 0. -1.
     999902    2    1    2    0    0  0.41118701672E-02 -0.22609979277E-01 -0.32134337632E-02  0.10207255867E+01  0.10204617967E+01 0.  0.
     999903    2    3    3    0    0  0.12189922559E+00 -0.46958160963E-01 -0.97441328403E-02  0.13251989822E+00  0.20052062726E-01 0.  0.
         14    1    1    2    0    0 -0.41118701672E-02  0.22609979277E-01  0.32134337632E-02  0.23204413281E-01  0.00000000000E+00 0. -1.
     999901    1    3    3    0    0 -0.11778735542E+00  0.24348181686E-01  0.65306990771E-02  0.88820568850E+00  0.88000000000E+00 0.  1.
        -11    1    4    4    0    0  0.84924651123E-01 -0.23856585113E-01 -0.19979430464E-02  0.88235967265E-01  0.51100000000E-03 0.  1.
         11    1    4    4    0    0  0.36974574466E-01 -0.23101575850E-01 -0.77461897939E-02  0.44283930957E-01  0.51100000000E-03 0. -1.
</event>
<event>
 8    1  0.1088270E+005  0.1043930E+01  0.7957747E-01            NaN
         13   -1    0    0    0    0  0.00000000000E+00  0.00000000000E+00  0.74505805969E-08  0.10566000000E+00  0.10566000000E+00 0.  1.
     999900   -1    0    0    0    0 -0.00000000000E+00 -0.00000000000E+00 -0.74505805969E-08  0.93827000000E+00  0.93827000000E+00 0.  1.
     999902    2    1    2    0    0 -0.10319715343E-02  0.67280122679E-02 -0.24030488280E-01  0.10189541020E+01  0.10186479600E+01 0.  0.
     999903    2    3    3    0    0 -0.54954363731E-01 -0.11115440273E+00  0.24088488920E-01  0.12815708577E+00  0.21649480233E-01 0.  0.
         14    1    1    2    0    0  0.10319715343E-02 -0.67280122679E-02  0.24030488280E-01  0.24975898008E-01  0.00000000000E+00 0.  1.
     999901    1    3    3    0    0  0.53922392196E-01  0.11788241500E+00 -0.48118977201E-01  0.89079701622E+00  0.88000000000E+00 0.  1.
        -11    1    4    4    0    0 -0.43791107947E-01 -0.74085208891E-01  0.24348229022E-01  0.89439234618E-01  0.51100000000E-03 0.  1.
         11    1    4    4    0    0 -0.11163255784E-01 -0.37069193841E-01 -0.25974010181E-03  0.38717851150E-01  0.51100000000E-03 0. -1.
</event>
<event>
 8    1  0.1088270E+005  0.1043930E+01  0.7957747E-01            NaN
         13   -1    0    0    0    0  0.00000000000E+00  0.00000000000E+00  0.74505805969E-08  0.10566000000E+00  0.10566000000E+00 0.  1.
     999900   -1    0    0    0    0 -0.00000000000E+00 -0.00000000000E+00 -0.74505805969E-08  0.93827000000E+00  0.93827000000E+00 0. -1.
     999902    2    1    2    0    0 -0.47549444714E-02  0.46143237046E-02 -0.22596488308E-01  0.10203821176E+01  0.10201103682E+01 0.  0.
     999903    2    3    3    0    0  0.12572147082E+00  0.24625923297E-01 -0.78906662710E-02  0.13041536529E+00  0.23099362911E-01 0.  0.
         14    1    1    2    0    0  0.47549444714E-02 -0.46143237046E-02  0.22596488308E-01  0.23547882369E-01  0.00000000000E+00 0.  1.
     999901    1    3    3    0    0 -0.13047641529E+00 -0.20011599592E-01 -0.14705822037E-01  0.88996675234E+00  0.88000000000E+00 0. -1.
        -11    1    4    4    0    0  0.41986522381E-01  0.77358562660E-02 -0.13578074331E-01  0.44803311901E-01  0.51100000000E-03 0. -1.
         11    1    4    4    0    0  0.83734948440E-01  0.16890067031E-01  0.56874080602E-02  0.85612053392E-01  0.51100000000E-03 0.  1.
</event>
<event>
 8    1  0.1088270E+005  0.1043930E+01  0.7957747E-01            NaN
         13   -1    0    0    0    0  0.00000000000E+00  0.00000000000E+00  0.74505805969E-08  0.10566000000E+00  0.10566000000E+00 0. -1.
     999900   -1    0    0    0    0 -0.00000000000E+00 -0.00000000000E+00 -0.74505805969E-08  0.93827000000E+00  0.93827000000E+00 0.  1.
     999902    2    1    2    0    0  0.20391547200E-01 -0.10297962719E-01 -0.87951481292E-02  0.10194510731E+01  0.10191571383E+01 0.  0.
     999903    2    3    3    0    0  0.10369729054E-01  0.16351088001E-01 -0.12840153191E+00  0.13090377788E+00  0.16551625468E-01 0.  0.
         14    1    1    2    0    0 -0.20391547200E-01  0.10297962719E-01  0.87951481292E-02  0.24478926937E-01  0.00000000000E+00 0.  1.
     999901    1    3    3    0    0  0.10021818146E-01 -0.26649050720E-01  0.11960638378E+00  0.88854729519E+00  0.88000000000E+00 0. -1.
        -11    1    4    4    0    0  0.14404912779E-01  0.88247037875E-02 -0.87446247742E-01  0.89064495026E-01  0.51100000000E-03 0. -1.
         11    1    4    4    0    0 -0.40351837248E-02  0.75263842132E-02 -0.40955284169E-01  0.41839282849E-01  0.51100000000E-03 0.  1.
</event>
<event>
 8    1  0.1088270E+005  0.1043930E+01  0.7957747E-01            NaN
         13   -1    0    0    0    0  0.00000000000E+00  0.00000000000E+00  0.74505805969E-08  0.10566000000E+00  0.10566000000E+00 0.  1.
     999900   -1    0    0    0    0 -0.00000000000E+00 -0.00000000000E+00 -0.74505805969E-08  0.93827000000E+00  0.93827000000E+00 0. -1.
     999902    2    1    2    0    0  0.58722377211E-02  0.19500748496E-01  0.11775798377E-01  0.10204048689E+01  0.10201336504E+01 0.  0.
     999903    2    3    3    0    0  0.49830487998E-01 -0.11665937890E+00  0.91486707083E-02  0.12884510650E+00  0.20612497988E-01 0.  0.
         14    1    1    2    0    0 -0.58722377211E-02 -0.19500748496E-01 -0.11775798377E-01  0.23525131140E-01  0.00000000000E+00 0. -1.
     999901    1    3    3    0    0 -0.43958250277E-01  0.13616012740E+00  0.26271276684E-02  0.89155976236E+00  0.88000000000E+00 0.  1.
        -11    1    4    4    0    0  0.24756307012E-01 -0.39483219087E-01  0.10115502334E-01  0.47690500467E-01  0.51100000000E-03 0.  1.
         11    1    4    4    0    0  0.25074180986E-01 -0.77176159814E-01 -0.96683162604E-03  0.81154606032E-01  0.51100000000E-03 0. -1.
</event>
<event>
 8    1  0.1088270E+005  0.1043930E+01  0.7957747E-01            NaN
         13   -1    0    0    0    0  0.00000000000E+00  0.00000000000E+00  0.74505805969E-08  0.10566000000E+00  0.10566000000E+00 0. -1.
     999900   -1    0    0    0    0 -0.00000000000E+00 -0.00000000000E+00 -0.74505805969E-08  0.93827000000E+00  0.93827000000E+00 0.  1.
     999902    2    1    2    0    0 -0.17005325701E-01 -0.13326962797E-01  0.86421553671E-02  0.10206603655E+01  0.10203950734E+01 0.  0.
     999903    2    3    3    0    0  0.32687886589E-01 -0.74439017824E-01  0.10229848884E+00  0.13219224149E+00  0.20003564315E-01 0.  0.
         14    1    1    2    0    0  0.17005325701E-01  0.13326962797E-01 -0.86421553671E-02  0.23269634483E-01  0.00000000000E+00 0.  1.
     999901    1    3    3    0    0 -0.49693212290E-01  0.61112055027E-01 -0.93656333476E-01  0.88846812403E+00  0.88000000000E+00 0.  1.
        -11    1    4    4    0    0  0.27399385449E-01 -0.45797880406E-01  0.54963321556E-01  0.76612009569E-01  0.51100000000E-03 0. -1.
         11    1    4    4    0    0  0.52885011395E-02 -0.28641137418E-01  0.47335167288E-01  0.55580231918E-01  0.51100000000E-03 0.  1.
</event>
<event>
 8    1  0.1088270E+005  0.1043930E+01  0.7957747E-01            NaN
         13   -1    0    0    0    0  0.00000000000E+00  0.00000000000E+00  0.74505805969E-08  0.10566000000E+00  0.10566000000E+00 0. -1.
     999900   -1    0    0    0    0 -0.00000000000E+00 -0.00000000000E+00 -0.74505805969E-08  0.93827000000E+00  0.93827000000E+00 0.  1.
     999902    2    1    2    0    0  0.21928324136E-01  0.62118909499E-02  0.15041608676E-02  0.10210892144E+01  0.10208337192E+01 0.  0.
     999903    2    3    3    0    0  0.37691942714E-01 -0.85574044996E-03  0.12514243005E+00  0.13227828695E+00  0.20383879979E-01 0.  0.
         14    1    1    2    0    0 -0.21928324136E-01 -0.62118909499E-02 -0.15041608676E-02  0.22840785636E-01  0.00000000000E+00 0. -1.
     999901    1    3    3    0    0 -0.15763618578E-01  0.70676313999E-02 -0.12363826918E+00  0.88881092741E+00  0.88000000000E+00 0.  1.
        -11    1    4    4    0    0  0.28111974887E-01 -0.96422800799E-02  0.91568491028E-01  0.96272043540E-01  0.51100000000E-03 0.  1.
         11    1    4    4    0    0  0.95799678267E-02  0.87865396300E-02  0.33573939020E-01  0.36006243410E-01  0.51100000000E-03 0. -1.
</event>
<event>
 8    1  0.1088270E+005  0.1043930E+01  0.7957747E-01            NaN
         13   -1    0    0    0    0  0.00000000000E+00  0.00000000000E+00  0.74505805969E-08  0.10566000000E+00  0.10566000000E+00 0. -1.
     999900   -1    0    0    0    0 -0.00000000000E+00 -0.00000000000E+00 -0.74505805969E-08  0.93827000000E+00  0.93827000000E+00 0. -1.
     999902    2    1    2    0    0 -0.19869077909E-02 -0.22001367634E-01  0.10001884707E-01  0.10196803468E+01  0.10193919580E+01 0.  0.
     999903    2    3    3    0    0  0.23016024989E-01  0.68340229458E-01  0.10572452420E+00  0.12954014748E+00  0.20071134113E-01 0.  0.
         14    1    1    2    0    0  0.19869077909E-02  0.22001367634E-01 -0.10001884707E-01  0.24249653153E-01  0.00000000000E+00 0.  1.
     999901    1    3    3    0    0 -0.25002932780E-01 -0.90341597092E-01 -0.95722639490E-01  0.89014019936E+00  0.88000000000E+00 0. -1.
        -11    1    4    4    0    0  0.79925043589E-02  0.49184175552E-02  0.99116111146E-02  0.13659140275E-01  0.51100000000E-03 0.  1.
         11    1    4    4    0    0  0.15023520631E-01  0.63421811903E-01  0.95812913082E-01  0.11588100721E+00  0.51100000000E-03 0. -1.
</event>
<event>
 8    1  0.1088270E+005  0.1043930E+01  0.7957747E-01            NaN
         13   -1    0    0    0    0  0.00000000000E+00  0.00000000000E+00  0.74505805969E-08  0.10566000000E+00  0.10566000000E+00 0.  1.
     999900   -1    0    0    0    0 -0.00000000000E+00 -0.00000000000E+00 -0.74505805969E-08  0.93827000000E+00  0.93827000000E+00 0. -1.
     999902    2    1    2    0    0  0.30099988202E-02  0.68030967819E-02  0.22965196979E-01  0.10197899401E+01  0.10195041832E+01 0.  0.
     999903    2    3    3    0    0 -0.37446218553E-01  0.12387068163E+00  0.13267574255E-01  0.13106300296E+00  0.15978647239E-01 0.  0.
         14    1    1    2    0    0 -0.30099988202E-02 -0.68030967819E-02 -0.22965196979E-01  0.24140059880E-01  0.00000000000E+00 0. -1.
     999901    1    3    3    0    0  0.40456217373E-01 -0.11706758485E+00  0.96976227236E-02  0.88872693716E+00  0.88000000000E+00 0.  1.
        -11    1    4    4    0    0 -0.68381833291E-02  0.47318417729E-01  0.20431818023E-02  0.47856338352E-01  0.51100000000E-03 0.  1.
         11    1    4    4    0    0 -0.30608035224E-01  0.76552263899E-01  0.11224392453E-01  0.83206664609E-01  0.51100000000E-03 0. -1.
</event>
<event>
 8    1  0.1088270E+005  0.1043930E+01  0.7957747E-01            NaN
         13   -1    0    0    0    0  0.00000000000E+00  0.00000000000E+00  0.74505805969E-08  0.10566000000E+00  0.10566000000E+00 0.  1.
     999900   -1    0    0    0    0 -0.00000000000E+00 -0.00000000000E+00 -0.74505805969E-08  0.93827000000E+00  0.93827000000E+00 0.  1.
     999902    2    1    2    0    0 -0.12013515130E-02 -0.17462805627E-01 -0.17879877529E-01  0.10189083524E+01  0.10186010739E+01 0.  0.
     999903    2    3    3    0    0  0.16033063696E-01 -0.73277300894E-02  0.12443368779E+00  0.12725096550E+00  0.19957725449E-01 0.  0.
         14    1    1    2    0    0  0.12013515130E-02  0.17462805627E-01  0.17879877529E-01  0.25021647553E-01  0.00000000000E+00 0.  1.
     999901    1    3    3    0    0 -0.17234415209E-01 -0.10135075538E-01 -0.14231356531E+00  0.89165738695E+00  0.88000000000E+00 0.  1.
        -11    1    4    4    0    0  0.16092319188E-01 -0.42762331194E-02  0.49009434721E-01  0.51763256458E-01  0.51100000000E-03 0.  1.
         11    1    4    4    0    0 -0.59255492926E-04 -0.30514969701E-02  0.75424253065E-01  0.75487709042E-01  0.51100000000E-03 0. -1.
</event>
<event>
 8    1  0.1088270E+005  0.1043930E+01  0.7957747E-01            NaN
         13   -1    0    0    0    0  0.00000000000E+00  0.00000000000E+00  0.74505805969E-08  0.10566000000E+00  0.10566000000E+00 0. -1.
     999900   -1    0    0    0    0 -0.00000000000E+00 -0.00000000000E+00 -0.74505805969E-08  0.93827000000E+00  0.93827000000E+00 0.  1.
     999902    2    1    2    0    0  0.14412554649E-01  0.45967621584E-03  0.18836774655E-01  0.10202074977E+01  0.10199316552E+01 0.  0.
     999903    2    3    3    0    0  0.83905903542E-01  0.99366428012E-01 -0.32532479092E-02  0.13166946244E+00  0.20307044397E-01 0.  0.
         14    1    1    2    0    0 -0.14412554649E-01 -0.45967621584E-03 -0.18836774655E-01  0.23722502252E-01  0.00000000000E+00 0. -1.
     999901    1    3    3    0    0 -0.69493348893E-01 -0.98906751796E-01  0.22090022564E-01  0.88853803531E+00  0.88000000000E+00 0. -1.
        -11    1    4    4    0    0  0.28387239187E-01  0.48575094761E-01 -0.41353204867E-02  0.56415752908E-01  0.51100000000E-03 0. -1.
         11    1    4    4    0    0  0.55518664355E-01  0.50791333251E-01  0.88207257747E-03  0.75253709532E-01  0.51100000000E-03 0.  1.
</event>
<event>
 8    1  0.1088270E+005  0.1043930E+01  0.7957747E-01            NaN
         13   -1    0    0    0    0  0.00000000000E+00  0.00000000000E+00  0.74505805969E-08  0.10566000000E+00  0.10566000000E+00 0. -1.
     999900   -1    0    0    0    0 -0.00000000000E+00 -0.00000000000E+00 -0.74505805969E-08  0.93827000000E+00  0.93827000000E+00 0. -1.
     999902    2    1    2    0    0 -0.88273377322E-02 -0.19186426509E-01  0.70212534232E-02  0.10216737907E+01  0.10214313465E+01 0.  0.
     999903    2    3    3    0    0 -0.66945703536E-02 -0.11622968066E+00 -0.62298381467E-01  0.13362697116E+00  0.20516411739E-01 0.  0.
         14    1    1    2    0    0  0.88273377322E-02  0.19186426509E-01 -0.70212534232E-02  0.22256209319E-01  0.00000000000E+00 0.  1.
     999901    1    3    3    0    0 -0.21327673786E-02  0.97043254151E-01  0.69319634890E-01  0.88804681952E+00  0.88000000000E+00 0. -1.
        -11    1    4    4    0    0  0.14404370917E-02 -0.47041407358E-01 -0.14912713901E-01  0.49372249514E-01  0.51100000000E-03 0.  1.
         11    1    4    4    0    0 -0.81350074453E-02 -0.69188273302E-01 -0.47385667566E-01  0.84254721650E-01  0.51100000000E-03 0. -1.
</event>
<event>
 8    1  0.1088270E+005  0.1043930E+01  0.7957747E-01            NaN
         13   -1    0    0    0    0  0.00000000000E+00  0.00000000000E+00  0.74505805969E-08  0.10566000000E+00  0.10566000000E+00 0. -1.
     999900   -1    0    0    0    0 -0.00000000000E+00 -0.00000000000E+00 -0.74505805969E-08  0.93827000000E+00  0.93827000000E+00 0.  1.
     999902    2    1    2    0    0 -0.10462887137E-01 -0.15239556768E-02  0.20892708652E-01  0.10205141993E+01  0.10202455250E+01 0.  0.
     999903    2    3    3    0    0  0.68609511794E-01 -0.10844775145E+00 -0.78818667285E-02  0.13005750828E+00  0.19612540217E-01 0.  0.
         14    1    1    2    0    0  0.10462887137E-01  0.15239556768E-02 -0.20892708652E-01  0.23415800712E-01  0.00000000000E+00 0.  1.
     999901    1    3    3    0    0 -0.79072398931E-01  0.10692379577E+00  0.28774575381E-01  0.89045669101E+00  0.88000000000E+00 0.  1.
        -11    1    4    4    0    0  0.50353960108E-01 -0.88680264467E-01  0.12116197506E-03  0.10198032362E+00  0.51100000000E-03 0.  1.
         11    1    4    4    0    0  0.18255551686E-01 -0.19767486981E-01 -0.80030287035E-02  0.28077184659E-01  0.51100000000E-03 0. -1.
</event>
<event>
 8    1  0.1088270E+005  0.1043930E+01  0.7957747E-01            NaN
         13   -1    0    0    0    0  0.00000000000E+00  0.00000000000E+00  0.74505805969E-08  0.10566000000E+00  0.10566000000E+00 0.  1.
     999900   -1    0    0    0    0 -0.00000000000E+00 -0.00000000000E+00 -0.74505805969E-08  0.93827000000E+00  0.93827000000E+00 0. -1.
     999902    2    1    2    0    0  0.14034692601E-01  0.80959309611E-02  0.17078810324E-01  0.10203884950E+01  0.10201168944E+01 0.  0.
     999903    2    3    3    0    0  0.61383721061E-01  0.11182041726E+00  0.32215448995E-01  0.13290338676E+00  0.18807129799E-01 0.  0.
         14    1    1    2    0    0 -0.14034692601E-01 -0.80959309611E-02 -0.17078810324E-01  0.23541504978E-01  0.00000000000E+00 0. -1.
     999901    1    3    3    0    0 -0.47349028460E-01 -0.10372448630E+00 -0.15136638671E-01  0.88748510826E+00  0.88000000000E+00 0. -1.
        -11    1    4    4    0    0  0.33918652187E-01  0.79828192641E-01  0.23137984860E-01  0.89769943583E-01  0.51100000000E-03 0. -1.
         11    1    4    4    0    0  0.27465068874E-01  0.31992224619E-01  0.90774641354E-02  0.43133443178E-01  0.51100000000E-03 0.  1.
</event>
<event>
 8    1  0.1088270E+005  0.1043930E+01  0.7957747E-01            NaN
         13   -1    0    0    0    0  0.00000000000E+00  0.00000000000E+00  0.74505805969E-08  0.10566000000E+00  0.10566000000E+00 0.  1.
     999900   -1    0    0    0    0 -0.00000000000E+00 -0.00000000000E+00 -0.74505805969E-08  0.93827000000E+00  0.93827000000E+00 0. -1.
     999902    2    1    2    0    0  0.35757440806E-03 -0.21703264745E-01  0.94888137911E-02  0.10202404000E+01  0.10199653311E+01 0.  0.
     999903    2    3    3    0    0 -0.33152817349E-01  0.12197754374E+00  0.32418666057E-02  0.12793655859E+00  0.19483912593E-01 0.  0.
         14    1    1    2    0    0 -0.35757440806E-03  0.21703264745E-01 -0.94888137911E-02  0.23689599980E-01  0.00000000000E+00 0. -1.
     999901    1    3    3    0    0  0.33510391757E-01 -0.14368080848E+00  0.62469471854E-02  0.89230384143E+00  0.88000000000E+00 0.  1.
        -11    1    4    4    0    0 -0.21036718277E-01  0.65582032002E-01  0.10946258189E-01  0.69739716996E-01  0.51100000000E-03 0.  1.
         11    1    4    4    0    0 -0.12116099072E-01  0.56395511737E-01 -0.77043915830E-02  0.58196841594E-01  0.51100000000E-03 0. -1.
</event>
<event>
 8    1  0.1088270E+005  0.1043930E+01  0.7957747E-01            NaN
         13   -1    0    0    0    0  0.00000000000E+00  0.00000000000E+00  0.74505805969E-08  0.10566000000E+00  0.10566000000E+00 0. -1.
     999900   -1    0    0    0    0 -0.00000000000E+00 -0.00000000000E+00 -0.74505805969E-08  0.93827000000E+00  0.93827000000E+00 0.  1.
     999902    2    1    2    0    0 -0.14740340831E-02 -0.14243186298E-01 -0.18973315631E-01  0.10201596858E+01  0.10198827171E+01 0.  0.
     999903    2    3    3    0    0 -0.10757243762E+00  0.45279370789E-01 -0.55937647510E-01  0.13102180678E+00  0.20387316826E-01 0.  0.
         14    1    1    2    0    0  0.14740340831E-02  0.14243186298E-01  0.18973315631E-01  0.23770314226E-01  0.00000000000E+00 0. -1.
     999901    1    3    3    0    0  0.10609840354E+00 -0.59522557087E-01  0.36964331879E-01  0.88913787900E+00  0.88000000000E+00 0. -1.
        -11    1    4    4    0    0 -0.35401507284E-01  0.74947968009E-02 -0.10220298414E-01  0.37605243221E-01  0.51100000000E-03 0. -1.
         11    1    4    4    0    0 -0.72170930338E-01  0.37784573988E-01 -0.45717349096E-01  0.93416563556E-01  0.51100000000E-03 0.  1.
</event>
<event>
 8    1  0.1088270E+005  0.1043930E+01  0.7957747E-01            NaN
         13   -1    0    0    0    0  0.00000000000E+00  0.00000000000E+00  0.74505805969E-08  0.10566000000E+00  0.10566000000E+00 0.  1.
     999900   -1    0    0    0    0 -0.00000000000E+00 -0.00000000000E+00 -0.74505805969E-08  0.93827000000E+00  0.93827000000E+00 0. -1.
     999902    2    1    2    0    0  0.10291776871E-01 -0.19369110040E-01  0.67357190215E-02  0.10209854363E+01  0.10207275876E+01 0.  0.
     999903    2    3    3    0    0 -0.11006768485E+00 -0.37141195211E-01  0.58746412824E-01  0.13109366794E+00  0.15493389740E-01 0.  0.
         14    1    1    2    0    0 -0.10291776871E-01  0.19369110040E-01 -0.67357190215E-02  0.22944563749E-01  0.00000000000E+00 0. -1.
     999901    1    3    3    0    0  0.12035946172E+00  0.17772085172E-01 -0.52010693802E-01  0.88989176831E+00  0.88000000000E+00 0. -1.
        -11    1    4    4    0    0 -0.93998230226E-01 -0.29933028321E-01  0.43587991572E-01  0.10785095086E+00  0.51100000000E-03 0. -1.
         11    1    4    4    0    0 -0.16069454619E-01 -0.72081668906E-02  0.15158421252E-01  0.23242717086E-01  0.51100000000E-03 0.  1.
</event>
<event>
 8    1  0.1088270E+005  0.1043930E+01  0.7957747E-01            NaN
         13   -1    0    0    0    0  0.00000000000E+00  0.00000000000E+00  0.74505805969E-08  0.10566000000E+00  0.10566000000E+00 0. -1.
     999900   -1    0    0    0    0 -0.00000000000E+00 -0.00000000000E+00 -0.74505805969E-08  0.93827000000E+00  0.93827000000E+00 0.  1.
     999902    2    1    2    0    0 -0.22059620940E-01  0.62533488249E-03  0.11151383686E-01  0.10192040768E+01  0.10189041068E+01 0.  0.
     999903    2    3    3    0    0  0.12311882483E+00  0.24367440328E-01  0.24738045291E-02  0.12695087896E+00  0.18931159045E-01 0.  0.
         14    1    1    2    0    0  0.22059620940E-01 -0.62533488249E-03 -0.11151383686E-01  0.24725923195E-01  0.00000000000E+00 0.  1.
     999901    1    3    3    0    0 -0.14517844577E+00 -0.23742105446E-01  0.86775791572E-02  0.89225319785E+00  0.88000000000E+00 0. -1.
        -11    1    4    4    0    0  0.91504324405E-01  0.99337556766E-02  0.43190146910E-02  0.92144646592E-01  0.51100000000E-03 0. -1.
         11    1    4    4    0    0  0.31614500428E-01  0.14433684651E-01 -0.18452101619E-02  0.34806232366E-01  0.51100000000E-03 0.  1.
</event>
<event>
 8    1  0.1088270E+005  0.1043930E+01  0.7957747E-01            NaN
         13   -1    0    0    0    0  0.00000000000E+00  0.00000000000E+00  0.74505805969E-08  0.10566000000E+00  0.10566000000E+00 0. -1.
     999900   -1    0    0    0    0 -0.00000000000E+00 -0.00000000000E+00 -0.74505805969E-08  0.93827000000E+00  0.93827000000E+00 0.  1.
     999902    2    1    2    0    0 -0.13275351112E-01 -0.10259098121E-01  0.16664554209E-01  0.10202827717E+01  0.10200086974E+01 0.  0.
     999903    2    3    3    0    0 -0.11009559413E+00  0.68010884841E-01 -0.50102243725E-03  0.13135363685E+00  0.22516806711E-01 0.  0.
         14    1    1    2    0    0  0.13275351112E-01  0.10259098121E-01 -0.16664554209E-01  0.23647228345E-01  0.00000000000E+00 0.  1.
     999901    1    3    3    0    0  0.96820243022E-01 -0.78269982962E-01  0.17165576646E-01  0.88892913481E+00  0.88000000000E+00 0. -1.
        -11    1    4    4    0    0 -0.11814650582E-01  0.30220142640E-02 -0.55745983231E-02  0.13418487472E-01  0.51100000000E-03 0.  1.
         11    1    4    4    0    0 -0.98280943552E-01  0.64988870577E-01  0.50735758858E-02  0.11793514937E+00  0.51100000000E-03 0. -1.
</event>
<event>
 8    1  0.1088270E+005  0.1043930E+01  0.7957747E-01            NaN
         13   -1    0    0    0    0  0.00000000000E+00  0.00000000000E+00  0.74505805969E-08  0.10566000000E+00  0.10566000000E+00 0. -1.
     999900   -1    0    0    0    0 -0.00000000000E+00 -0.00000000000E+00 -0.74505805969E-08  0.93827000000E+00  0.93827000000E+00 0. -1.
     999902    2    1    2    0    0  0.17648982121E-01 -0.88635905322E-02 -0.13765804153E-01  0.10198562140E+01  0.10195720426E+01 0.  0.
     999903    2    3    3    0    0 -0.77168035381E-01 -0.51999260712E-02  0.99772746126E-01  0.12750275735E+00  0.17899925890E-01 0.  0.
         14    1    1    2    0    0 -0.17648982121E-01  0.88635905322E-02  0.13765804153E-01  0.24073785971E-01  0.00000000000E+00 0.  1.
     999901    1    3    3    0    0  0.94817017502E-01 -0.36636644610E-02 -0.11353855028E+00  0.89235345668E+00  0.88000000000E+00 0. -1.
        -11    1    4    4    0    0 -0.31408300917E-01  0.62825425529E-03  0.54251035232E-01  0.62692200588E-01  0.51100000000E-03 0. -1.
         11    1    4    4    0    0 -0.45759734464E-01 -0.58281803265E-02  0.45521710894E-01  0.64810556763E-01  0.51100000000E-03 0.  1.
</event>
<event>
 8    1  0.1088270E+005  0.1043930E+01  0.7957747E-01            NaN
         13   -1    0    0    0    0  0.00000000000E+00  0.00000000000E+00  0.74505805969E-08  0.10566000000E+00  0.10566000000E+00 0. -1.
     999900   -1    0    0    0    0 -0.00000000000E+00 -0.00000000000E+00 -0.74505805969E-08  0.93827000000E+00  0.93827000000E+00 0. -1.
     999902    2    1    2    0    0  0.40977363734E-02 -0.10951751455E-01  0.20096266902E-01  0.10206793603E+01  0.10204145061E+01 0.  0.
     999903    2    3    3    0    0  0.91039384991E-01 -0.11943310945E-01  0.94488665388E-01  0.13327073829E+00  0.20054164199E-01 0.  0.
         14    1    1    2    0    0 -0.40977363734E-02  0.10951751455E-01 -0.20096266902E-01  0.23250639706E-01  0.00000000000E+00 0.  1.
     999901    1    3    3    0    0 -0.86941648618E-01  0.99155948935E-03 -0.74392398486E-01  0.88740862200E+00  0.88000000000E+00 0. -1.
        -11    1    4    4    0    0  0.53803398256E-01 -0.69700629448E-02  0.41465813808E-01  0.68286618580E-01  0.51100000000E-03 0.  1.
         11    1    4    4    0    0  0.37235986735E-01 -0.49732480000E-02  0.53022851580E-01  0.64984119710E-01  0.51100000000E-03 0. -1.
</event>
<event>
 8    1  0.1088270E+005  0.1043930E+01  0.7957747E-01            NaN
         13   -1    0    0    0    0  0.00000000000E+00  0.00000000000E+00  0.74505805969E-08  0.10566000000E+00  0.10566000000E+00 0.  1.
     999900   -1    0    0    0    0 -0.00000000000E+00 -0.00000000000E+00 -0.74505805969E-08  0.93827000000E+00  0.93827000000E+00 0.  1.
     999902    2    1    2    0    0 -0.21707406489E-01  0.82362415416E-02  0.69643419180E-02  0.10196905852E+01  0.10194024428E+01 0.  0.
     999903    2    3    3    0    0 -0.22539628651E-01  0.81569868354E-01 -0.96315484338E-01  0.13062071398E+00  0.24968382278E-01 0.  0.
         14    1    1    2    0    0  0.21707406489E-01 -0.82362415416E-02 -0.69643419180E-02  0.24239414794E-01  0.00000000000E+00 0. -1.
     999901    1    3    3    0    0  0.83222216207E-03 -0.73333626813E-01  0.10327982626E+00  0.88906987123E+00  0.88000000000E+00 0. -1.
        -11    1    4    4    0    0 -0.14617271051E-01  0.72202583215E-01 -0.70189663422E-01  0.10175326829E+00  0.51100000000E-03 0.  1.
         11    1    4    4    0    0 -0.79223575995E-02  0.93672851390E-02 -0.26125820916E-01  0.28867445685E-01  0.51100000000E-03 0. -1.
</event>
<event>
 8    1  0.1088270E+005  0.1043930E+01  0.7957747E-01            NaN
         13   -1    0    0    0    0  0.00000000000E+00  0.00000000000E+00  0.74505805969E-08  0.10566000000E+00  0.10566000000E+00 0.  1.
     999900   -1    0    0    0    0 -0.00000000000E+00 -0.00000000000E+00 -0.74505805969E-08  0.93827000000E+00  0.93827000000E+00 0.  1.
     999902    2    1    2    0    0  0.14297521081E-01  0.17815120024E-01 -0.82798327855E-02  0.10196328141E+01  0.10193432800E+01 0.  0.
     999903    2    3    3    0    0  0.32056818570E-01  0.12698445654E+00 -0.75289735187E-02  0.13270897271E+00  0.20057272375E-01 0.  0.
         14    1    1    2    0    0 -0.14297521081E-01 -0.17815120024E-01  0.82798327855E-02  0.24297185876E-01  0.00000000000E+00 0. -1.
     999901    1    3    3    0    0 -0.17759297488E-01 -0.10916933652E+00 -0.75085926685E-03  0.88692384142E+00  0.88000000000E+00 0. -1.
        -11    1    4    4    0    0  0.48117462706E-02  0.37249405051E-01 -0.10085589331E-01  0.38892818257E-01  0.51100000000E-03 0.  1.
         11    1    4    4    0    0  0.27245072299E-01  0.89735051490E-01  0.25566158127E-02  0.93816154451E-01  0.51100000000E-03 0. -1.
</event>
<event>
 8    1  0.1088270E+005  0.1043930E+01  0.7957747E-01            NaN
         13   -1    0    0    0    0  0.00000000000E+00  0.00000000000E+00  0.74505805969E-08  0.10566000000E+00  0.10566000000E+00 0. -1.
     999900   -1    0    0    0    0 -0.00000000000E+00 -0.00000000000E+00 -0.74505805969E-08  0.93827000000E+00  0.93827000000E+00 0. -1.
     999902    2    1    2    0    0 -0.13346428249E-01  0.61070444221E-03  0.18859147333E-01  0.10208179351E+01  0.10205562645E+01 0.  0.
     999903    2    3    3    0    0  0.12429354029E+00  0.17495783254E-01  0.26576826266E-01  0.12992544471E+00  0.20476984606E-01 0.  0.
         14    1    1    2    0    0  0.13346428249E-01 -0.61070444221E-03 -0.18859147333E-01  0.23112064924E-01  0.00000000000E+00 0.  1.
     999901    1    3    3    0    0 -0.13763996854E+00 -0.16885078812E-01 -0.77176789327E-02  0.89089249037E+00  0.88000000000E+00 0.  1.
        -11    1    4    4    0    0  0.68059650332E-02  0.41468970295E-02 -0.20907973635E-02  0.82553297706E-02  0.51100000000E-03 0.  1.
         11    1    4    4    0    0  0.11748757526E+00  0.13348886225E-01  0.28667623629E-01  0.12167011494E+00  0.51100000000E-03 0. -1.
</event>
<event>
 8    1  0.1088270E+005  0.1043930E+01  0.7957747E-01            NaN
         13   -1    0    0    0    0  0.00000000000E+00  0.00000000000E+00  0.74505805969E-08  0.10566000000E+00  0.10566000000E+00 0. -1.
     999900   -1    0    0    0    0 -0.00000000000E+00 -0.00000000000E+00 -0.74505805969E-08  0.93827000000E+00  0.93827000000E+00 0.  1.
     999902    2    1    2    0    0  0.13541387802E-02  0.23136907707E-01 -0.56305746490E-02  0.10200793488E+01  0.10198004826E+01 0.  0.
     999903    2    3    3    0    0 -0.43529205691E-01 -0.57524780956E-01  0.10421083914E+00  0.12845949777E+00  0.20929677509E-01 0.  0.
         14    1    1    2    0    0 -0.13541387802E-02 -0.23136907707E-01  0.56305746490E-02  0.23850651164E-01  0.00000000000E+00 0.  1.
     999901    1    3    3    0    0  0.44883344471E-01  0.80661688663E-01 -0.10984141379E+00  0.89161985106E+00  0.88000000000E+00 0. -1.
        -11    1    4    4    0    0 -0.27207817255E-01 -0.38695887033E-01  0.50212855117E-01  0.68987164988E-01  0.51100000000E-03 0.  1.
         11    1    4    4    0    0 -0.16321388436E-01 -0.18828893923E-01  0.53997984026E-01  0.59472332783E-01  0.51100000000E-03 0. -1.
</event>
<event>
 8    1  0.1088270E+005  0.1043930E+01  0.7957747E-01            NaN
         13   -1    0    0    0    0  0.00000000000E+00  0.00000000000E+00  0.74505805969E-08  0.10566000000E+00  0.10566000000E+00 0. -1.
     999900   -1    0    0    0    0 -0.00000000000E+00 -0.00000000000E+00 -0.74505805969E-08  0.93827000000E+00  0.93827000000E+00 0.  1.
     999902    2    1    2    0    0 -0.16639840338E-01 -0.46798413376E-02  0.15936786248E-01  0.10204190162E+01  0.10201481276E+01 0.  0.
     999903    2    3    3    0    0 -0.11042079136E+00  0.21485781352E-01  0.68999516559E-01  0.13346064070E+00  0.19910282961E-01 0.  0.
         14    1    1    2    0    0  0.16639840338E-01  0.46798413376E-02 -0.15936786248E-01  0.23510983760E-01  0.00000000000E+00 0.  1.
     999901    1    3    3    0    0  0.93780951020E-01 -0.26165622689E-01 -0.53062730311E-01  0.88695837554E+00  0.88000000000E+00 0. -1.
        -11    1    4    4    0    0 -0.26928605470E-02  0.41077980775E-02  0.15500833808E-02  0.51758460621E-02  0.51100000000E-03 0.  1.
         11    1    4    4    0    0 -0.10772793081E+00  0.17377983274E-01  0.67449433178E-01  0.12828479464E+00  0.51100000000E-03 0. -1.
</event>
<event>
 8    1  0.1088270E+005  0.1043930E+01  0.7957747E-01            NaN
         13   -1    0    0    0    0  0.00000000000E+00  0.00000000000E+00  0.74505805969E-08  0.10566000000E+00  0.10566000000E+00 0.  1.
     999900   -1    0    0    0    0 -0.00000000000E+00 -0.00000000000E+00 -0.74505805969E-08  0.93827000000E+00  0.93827000000E+00 0.  1.
     999902    2    1    2    0    0  0.38317119502E-02  0.12266195348E-01 -0.19662791090E-01  0.10204402806E+01  0.10201698875E+01 0.  0.
     999903    2    3    3    0    0  0.59924716591E-01  0.36785221947E-01 -0.11176789887E+00  0.13351809757E+00  0.19771063441E-01 0.  0.
         14    1    1    2    0    0 -0.38317119502E-02 -0.12266195348E-01  0.19662791090E-01  0.23489719416E-01  0.00000000000E+00 0.  1.
     999901    1    3    3    0    0 -0.56093004641E-01 -0.24519026599E-01  0.92105107781E-01  0.88692218301E+00  0.88000000000E+00 0. -1.
        -11    1    4    4    0    0  0.19136300672E-01  0.34555159816E-02 -0.21415296910E-01  0.28931205589E-01  0.51100000000E-03 0.  1.
         11    1    4    4    0    0  0.40788415919E-01  0.33329705965E-01 -0.90352601961E-01  0.10458689199E+00  0.51100000000E-03 0. -1.
</event>
<event>
 8    1  0.1088270E+005  0.1043930E+01  0.7957747E-01            NaN
         13   -1    0    0    0    0  0.00000000000E+00  0.00000000000E+00  0.74505805969E-08  0.10566000000E+00  0.10566000000E+00 0. -1.
     999900   -1    0    0    0    0 -0.00000000000E+00 -0.00000000000E+00 -0.74505805969E-08  0.93827000000E+00  0.93827000000E+00 0.  1.
     999902    2    1    2    0    0  0.13514943636E-01 -0.16462644178E-01 -0.13565192650E-01  0.10186775386E+01  0.10183644931E+01 0.  0.
     999903    2    3    3    0    0 -0.39221797232E-01  0.11595239671E+00 -0.24565993962E-01  0.12714182731E+00  0.24046798367E-01 0.  0.
         14    1    1    2    0    0 -0.13514943636E-01  0.16462644178E-01  0.13565192650E-01  0.25252461394E-01  0.00000000000E+00 0. -1.
     999901    1    3    3    0    0  0.52736740869E-01 -0.13241504089E+00  0.11000801313E-01  0.89153571130E+00  0.88000000000E+00 0.  1.
        -11    1    4    4    0    0 -0.41419238190E-01  0.97118717344E-01 -0.23350065842E-01  0.10813457008E+00  0.51100000000E-03 0. -1.
         11    1    4    4    0    0  0.21974409576E-02  0.18833679363E-01 -0.12159281207E-02  0.19007257227E-01  0.51100000000E-03 0.  1.
</event>
<event>
 8    1  0.1088270E+005  0.1043930E+01  0.7957747E-01            NaN
         13   -1    0    0    0    0  0.00000000000E+00  0.00000000000E+00  0.74505805969E-08  0.10566000000E+00  0.10566000000E+00 0. -1.
     999900   -1    0    0    0    0 -0.00000000000E+00 -0.00000000000E+00 -0.74505805969E-08  0.93827000000E+00  0.93827000000E+00 0. -1.
     999902    2    1    2    0    0  0.38318817711E-02 -0.18372124464E-01  0.14284175278E-01  0.10203449213E+01  0.10200723025E+01 0.  0.
     999903    2    3    3    0    0  0.64032436753E-01  0.10982132332E+00 -0.66208078284E-02  0.12877625583E+00  0.19457979283E-01 0.  0.
         14    1    1    2    0    0 -0.38318817711E-02  0.18372124464E-01 -0.14284175278E-01  0.23585078728E-01  0.00000000000E+00 0.  1.
     999901    1    3    3    0    0 -0.60200554982E-01 -0.12819344778E+00  0.20904983106E-01  0.89156866544E+00  0.88000000000E+00 0. -1.
        -11    1    4    4    0    0  0.39936952206E-01  0.51797317219E-01  0.14891600007E-02  0.65424773145E-01  0.51100000000E-03 0.  1.
         11    1    4    4    0    0  0.24095484547E-01  0.58024006100E-01 -0.81099678290E-02  0.63351482687E-01  0.51100000000E-03 0. -1.
</event>
<event>
 8    1  0.1088270E+005  0.1043930E+01  0.7957747E-01            NaN
         13   -1    0    0    0    0  0.00000000000E+00  0.00000000000E+00  0.74505805969E-08  0.10566000000E+00  0.10566000000E+00 0.  1.
     999900   -1    0    0    0    0 -0.00000000000E+00 -0.00000000000E+00 -0.74505805969E-08  0.93827000000E+00  0.93827000000E+00 0.  1.
     999902    2    1    2    0    0  0.17784805316E-01  0.10442949074E-01  0.12804361952E-01  0.10196543709E+01  0.10193653564E+01 0.  0.
     999903    2    3    3    0    0 -0.59183407983E-01  0.11384130463E+00 -0.72871510512E-02  0.13003704038E+00  0.19849707253E-01 0.  0.
         14    1    1    2    0    0 -0.17784805316E-01 -0.10442949074E-01 -0.12804361952E-01  0.24275629147E-01  0.00000000000E+00 0. -1.
     999901    1    3    3    0    0  0.76968213299E-01 -0.10339835556E+00  0.20091513003E-01  0.88961733048E+00  0.88000000000E+00 0.  1.
        -11    1    4    4    0    0 -0.47235386228E-01  0.74027664423E-01  0.96835825124E-04  0.87815416130E-01  0.51100000000E-03 0. -1.
         11    1    4    4    0    0 -0.11948021755E-01  0.39813640211E-01 -0.73839868763E-02  0.42221624245E-01  0.51100000000E-03 0.  1.
</event>
<event>
 8    1  0.1088270E+005  0.1043930E+01  0.7957747E-01            NaN
         13   -1    0    0    0    0  0.00000000000E+00  0.00000000000E+00  0.74505805969E-08  0.10566000000E+00  0.10566000000E+00 0.  1.
     999900   -1    0    0    0    0 -0.00000000000E+00 -0.00000000000E+00 -0.74505805969E-08  0.93827000000E+00  0.93827000000E+00 0. -1.
     999902    2    1    2    0    0 -0.14437587079E-01  0.17907451193E-01 -0.42298019912E-02  0.10205417133E+01  0.10202736773E+01 0.  0.
     999903    2    3    3    0    0  0.11430858657E+00  0.41877521967E-01  0.41736957911E-01  0.12966400873E+00  0.15830404098E-01 0.  0.
         14    1    1    2    0    0  0.14437587079E-01 -0.17907451193E-01  0.42298019912E-02  0.23388286679E-01  0.00000000000E+00 0. -1.
     999901    1    3    3    0    0 -0.12874617365E+00 -0.23970070774E-01 -0.45966759902E-01  0.89087770459E+00  0.88000000000E+00 0. -1.
        -11    1    4    4    0    0  0.90446624593E-01  0.27251159116E-01  0.35988075143E-01  0.10108719131E+00  0.51100000000E-03 0.  1.
         11    1    4    4    0    0  0.23861961979E-01  0.14626362851E-01  0.57488827684E-02  0.28576817419E-01  0.51100000000E-03 0. -1.
</event>
<event>
 8    1  0.1088270E+005  0.1043930E+01  0.7957747E-01            NaN
         13   -1    0    0    0    0  0.00000000000E+00  0.00000000000E+00  0.74505805969E-08  0.10566000000E+00  0.10566000000E+00 0.  1.
     999900   -1    0    0    0    0 -0.00000000000E+00 -0.00000000000E+00 -0.74505805969E-08  0.93827000000E+00  0.93827000000E+00 0. -1.
     999902    2    1    2    0    0  0.18316541706E-01 -0.51382893865E-02  0.15643184240E-01  0.10193006084E+01  0.10190030046E+01 0.  0.
     999903    2    3    3    0    0  0.97035159897E-01 -0.85849411173E-01 -0.11988185588E-01  0.13167771626E+00  0.20232664474E-01 0.  0.
         14    1    1    2    0    0 -0.18316541706E-01  0.51382893865E-02 -0.15643184240E-01  0.24629391609E-01  0.00000000000E+00 0.  1.
     999901    1    3    3    0    0 -0.78718618191E-01  0.80711121786E-01  0.27631369828E-01  0.88762289213E+00  0.88000000000E+00 0.  1.
        -11    1    4    4    0    0  0.85776340378E-01 -0.74881976981E-01 -0.37541608260E-02  0.11392649336E+00  0.51100000000E-03 0. -1.
         11    1    4    4    0    0  0.11258819519E-01 -0.10967434192E-01 -0.82340247623E-02  0.17751222901E-01  0.51100000000E-03 0.  1.
</event>
<event>
 8    1  0.1088270E+005  0.1043930E+01  0.7957747E-01            NaN
         13   -1    0    0    0    0  0.00000000000E+00  0.00000000000E+00  0.74505805969E-08  0.10566000000E+00  0.10566000000E+00 0.  1.
     999900   -1    0    0    0    0 -0.00000000000E+00 -0.00000000000E+00 -0.74505805969E-08  0.93827000000E+00  0.93827000000E+00 0.  1.
     999902    2    1    2    0    0 -0.17543382308E-01  0.12265964097E-01  0.79552786174E-02  0.10210933935E+01  0.10208379929E+01 0.  0.
     999903    2    3    3    0    0 -0.72541602495E-01 -0.70596202349E-01  0.83893417050E-01  0.13224158150E+00  0.14269638197E-01 0.  0.
         14    1    1    2    0    0  0.17543382308E-01 -0.12265964097E-01 -0.79552786174E-02  0.22836606488E-01  0.00000000000E+00 0.  1.
     999901    1    3    3    0    0  0.54998220187E-01  0.82862166445E-01 -0.75938138432E-01  0.88885181201E+00  0.88000000000E+00 0. -1.
        -11    1    4    4    0    0 -0.45914438895E-01 -0.43454338416E-01  0.43338094207E-01  0.76647679396E-01  0.51100000000E-03 0. -1.
         11    1    4    4    0    0 -0.26627163599E-01 -0.27141863932E-01  0.40555322843E-01  0.55593902102E-01  0.51100000000E-03 0.  1.
</event>
<event>
 8    1  0.1088270E+005  0.1043930E+01  0.7957747E-01            NaN
         13   -1    0    0    0    0  0.00000000000E+00  0.00000000000E+00  0.74505805969E-08  0.10566000000E+00  0.10566000000E+00 0.  1.
     999900   -1    0    0    0    0 -0.00000000000E+00 -0.00000000000E+00 -0.74505805969E-08  0.93827000000E+00  0.93827000000E+00 0. -1.
     999902    2    1    2    0    0 -0.12006882754E-01 -0.19537338941E-01 -0.60983256732E-02  0.10202010636E+01  0.10199250697E+01 0.  0.
     999903    2    3    3    0    0 -0.10985240352E+00  0.17077600260E-01 -0.68092365989E-01  0.13185560111E+00  0.19751816327E-01 0.  0.
         14    1    1    2    0    0  0.12006882754E-01  0.19537338941E-01  0.60983256732E-02  0.23728936394E-01  0.00000000000E+00 0.  1.
     999901    1    3    3    0    0  0.97845520765E-01 -0.36614939201E-01  0.61994040316E-01  0.88834546250E+00  0.88000000000E+00 0.  1.
        -11    1    4    4    0    0 -0.28892006778E-01 -0.15429818871E-02 -0.25140567619E-01  0.38333250710E-01  0.51100000000E-03 0.  1.
         11    1    4    4    0    0 -0.80960396740E-01  0.18620582147E-01 -0.42951798370E-01  0.93522350398E-01  0.51100000000E-03 0. -1.
</event>
<event>
 8    1  0.1088270E+005  0.1043930E+01  0.7957747E-01            NaN
         13   -1    0    0    0    0  0.00000000000E+00  0.00000000000E+00  0.74505805969E-08  0.10566000000E+00  0.10566000000E+00 0.  1.
     999900   -1    0    0    0    0 -0.00000000000E+00 -0.00000000000E+00 -0.74505805969E-08  0.93827000000E+00  0.93827000000E+00 0. -1.
     999902    2    1    2    0    0 -0.14622658443E-01 -0.68263499769E-02 -0.17453179590E-01  0.10201595420E+01  0.10198825700E+01 0.  0.
     999903    2    3    3    0    0 -0.12969053498E+00  0.17411569832E-02 -0.18319889359E-01  0.13262657388E+00  0.20773137941E-01 0.  0.
         14    1    1    2    0    0  0.14622658443E-01  0.68263499769E-02  0.17453179590E-01  0.23770457963E-01  0.00000000000E+00 0.  1.
     999901    1    3    3    0    0  0.11506787654E+00 -0.85675069600E-02  0.86670976887E-03  0.88753296816E+00  0.88000000000E+00 0. -1.
        -11    1    4    4    0    0 -0.19728766404E-01 -0.69963698825E-02 -0.97319550077E-03  0.20961432342E-01  0.51100000000E-03 0.  1.
         11    1    4    4    0    0 -0.10996176858E+00  0.87375268656E-02 -0.17346693858E-01  0.11166514153E+00  0.51100000000E-03 0. -1.
</event>
<event>
 8    1  0.1088270E+005  0.1043930E+01  0.7957747E-01            NaN
         13   -1    0    0    0    0  0.00000000000E+00  0.00000000000E+00  0.74505805969E-08  0.10566000000E+00  0.10566000000E+00 0. -1.
     999900   -1    0    0    0    0 -0.00000000000E+00 -0.00000000000E+00 -0.74505805969E-08  0.93827000000E+00  0.93827000000E+00 0. -1.
     999902    2    1    2    0    0 -0.91377419447E-03  0.78960743649E-02 -0.22852459003E-01  0.10197345902E+01  0.10194475055E+01 0.  0.
     999903    2    3    3    0    0 -0.72030490892E-01  0.28895140268E-01  0.10010985264E+00  0.12809661531E+00  0.19064089506E-01 0.  0.
         14    1    1    2    0    0  0.91377419447E-03 -0.78960743649E-02  0.22852459003E-01  0.24195409816E-01  0.00000000000E+00 0. -1.
     999901    1    3    3    0    0  0.71116716697E-01 -0.20999065903E-01 -0.12296231164E+00  0.89163797488E+00  0.88000000000E+00 0. -1.
        -11    1    4    4    0    0 -0.58368933512E-01  0.27276056800E-01  0.70879470296E-01  0.95786617564E-01  0.51100000000E-03 0.  1.
         11    1    4    4    0    0 -0.13661557380E-01  0.16190834680E-02  0.29230382340E-01  0.32309997742E-01  0.51100000000E-03 0. -1.
</event>
<event>
 8    1  0.1088270E+005  0.1043930E+01  0.7957747E-01            NaN
         13   -1    0    0    0    0  0.00000000000E+00  0.00000000000E+00  0.74505805969E-08  0.10566000000E+00  0.10566000000E+00 0.  1.
     999900   -1    0    0    0    0 -0.00000000000E+00 -0.00000000000E+00 -0.74505805969E-08  0.93827000000E+00  0.93827000000E+00 0. -1.
     999902    2    1    2    0    0  0.79591298561E-02 -0.21421232516E-01  0.90481328899E-02  0.10193518459E+01  0.10190554941E+01 0.  0.
     999903    2    3    3    0    0  0.10275425818E+00  0.70101623416E-01 -0.26946008113E-01  0.12881373458E+00  0.19854865484E-01 0.  0.
         14    1    1    2    0    0 -0.79591298561E-02  0.21421232516E-01 -0.90481328899E-02  0.24578154108E-01  0.00000000000E+00 0. -1.
     999901    1    3    3    0    0 -0.94795128325E-01 -0.91522855932E-01  0.35994141003E-01  0.89053811131E+00  0.88000000000E+00 0.  1.
        -11    1    4    4    0    0  0.23617369555E-01  0.14361934654E-01 -0.14503424900E-01  0.31219477358E-01  0.51100000000E-03 0. -1.
         11    1    4    4    0    0  0.79136888626E-01  0.55739688761E-01 -0.12442583213E-01  0.97594257222E-01  0.51100000000E-03 0.  1.
</event>
<event>
 8    1  0.1088270E+005  0.1043930E+01  0.7957747E-01            NaN
         13   -1    0    0    0    0  0.00000000000E+00  0.00000000000E+00  0.74505805969E-08  0.10566000000E+00  0.10566000000E+00 0. -1.
     999900   -1    0    0    0    0 -0.00000000000E+00 -0.00000000000E+00 -0.74505805969E-08  0.93827000000E+00  0.93827000000E+00 0. -1.
     999902    2    1    2    0    0 -0.59817786311E-02 -0.17684002091E-01 -0.14512315232E-01  0.10202844317E+01  0.10200103964E+01 0.  0.
     999903    2    3    3    0    0  0.78372535210E-01 -0.58764737193E-01 -0.86600866234E-01  0.13236549610E+00  0.20624400906E-01 0.  0.
         14    1    1    2    0    0  0.59817786311E-02  0.17684002091E-01  0.14512315232E-01  0.23645568273E-01  0.00000000000E+00 0. -1.
     999901    1    3    3    0    0 -0.84354313841E-01  0.41080735102E-01  0.72088551001E-01  0.88791893563E+00  0.88000000000E+00 0.  1.
        -11    1    4    4    0    0  0.23465246411E-01 -0.28450776732E-01 -0.38563850844E-01  0.53361935860E-01  0.51100000000E-03 0. -1.
         11    1    4    4    0    0  0.54907288799E-01 -0.30313960461E-01 -0.48037015390E-01  0.79003560240E-01  0.51100000000E-03 0.  1.
</event>
<event>
 8    1  0.1088270E+005  0.1043930E+01  0.7957747E-01            NaN
         13   -1    0    0    0    0  0.00000000000E+00  0.00000000000E+00  0.74505805969E-08  0.10566000000E+00  0.10566000000E+00 0.  1.
     999900   -1    0    0    0    0 -0.00000000000E+00 -0.00000000000E+00 -0.74505805969E-08  0.93827000000E+00  0.93827000000E+00 0.  1.
     999902    2    1    2    0    0 -0.23623486515E-01 -0.14365536616E-02 -0.56804245481E-02  0.10195907308E+01  0.10193001807E+01 0.  0.
     999903    2    3    3    0    0  0.19545982599E-01 -0.11728989760E+00  0.46337713161E-01  0.12942698912E+00  0.21568410678E-01 0.  0.
         14    1    1    2    0    0  0.23623486515E-01  0.14365536616E-02  0.56804245481E-02  0.24339269188E-01  0.00000000000E+00 0. -1.
     999901    1    3    3    0    0 -0.43169469114E-01  0.11585334393E+00 -0.52018137709E-01  0.89016374169E+00  0.88000000000E+00 0. -1.
        -11    1    4    4    0    0 -0.36162896278E-02 -0.18430977624E-01  0.11747358849E-01  0.22159423453E-01  0.51100000000E-03 0.  1.
         11    1    4    4    0    0  0.23162272227E-01 -0.98858919972E-01  0.34590354311E-01  0.10726756567E+00  0.51100000000E-03 0. -1.
</event>
<event>
 8    1  0.1088270E+005  0.1043930E+01  0.7957747E-01            NaN
         13   -1    0    0    0    0  0.00000000000E+00  0.00000000000E+00  0.74505805969E-08  0.10566000000E+00  0.10566000000E+00 0. -1.
     999900   -1    0    0    0    0 -0.00000000000E+00 -0.00000000000E+00 -0.74505805969E-08  0.93827000000E+00  0.93827000000E+00 0.  1.
     999902    2    1    2    0    0 -0.13504678785E-01 -0.12726201152E-01 -0.16989640946E-01  0.10187708974E+01  0.10184601911E+01 0.  0.
     999903    2    3    3    0    0  0.60950841160E-01 -0.27834297198E-01 -0.10966685949E+00  0.13064875159E+00  0.23505809550E-01 0.  0.
         14    1    1    2    0    0  0.13504678785E-01  0.12726201152E-01  0.16989640946E-01  0.25159102614E-01  0.00000000000E+00 0. -1.
     999901    1    3    3    0    0 -0.74455519945E-01  0.15108096046E-01  0.92677218546E-01  0.88812214580E+00  0.88000000000E+00 0. -1.
        -11    1    4    4    0    0  0.25378331791E-01 -0.17154101381E-02 -0.53286704839E-01  0.59048593464E-01  0.51100000000E-03 0. -1.
         11    1    4    4    0    0  0.35572509368E-01 -0.26118887060E-01 -0.56380154653E-01  0.71600158126E-01  0.51100000000E-03 0.  1.
</event>
<event>
 8    1  0.1088270E+005  0.1043930E+01  0.7957747E-01            NaN
         13   -1    0    0    0    0  0.00000000000E+00  0.00000000000E+00  0.74505805969E-08  0.10566000000E+00  0.10566000000E+00 0. -1.
     999900   -1    0    0    0    0 -0.00000000000E+00 -0.00000000000E+00 -0.74505805969E-08  0.93827000000E+00  0.93827000000E+00 0. -1.
     999902    2    1    2    0    0 -0.35804943328E-02 -0.22575721705E-01 -0.56144118200E-02  0.10203926941E+01  0.10201211915E+01 0.  0.
     999903    2    3    3    0    0 -0.12397903646E+00 -0.19400290419E-01  0.35532778355E-01  0.13123636161E+00  0.14602449116E-01 0.  0.
         14    1    1    2    0    0  0.35804943328E-02  0.22575721705E-01  0.56144118200E-02  0.23537305926E-01  0.00000000000E+00 0. -1.
     999901    1    3    3    0    0  0.12039854213E+00 -0.31754312854E-02 -0.41147190175E-01  0.88915633247E+00  0.88000000000E+00 0. -1.
        -11    1    4    4    0    0 -0.40324723115E-01 -0.72093324295E-02  0.46400657772E-02  0.41229226281E-01  0.51100000000E-03 0. -1.
         11    1    4    4    0    0 -0.83654313344E-01 -0.12190957990E-01  0.30892712578E-01  0.90007135324E-01  0.51100000000E-03 0.  1.
</event>
<event>
 8    1  0.1088270E+005  0.1043930E+01  0.7957747E-01            NaN
         13   -1    0    0    0    0  0.00000000000E+00  0.00000000000E+00  0.74505805969E-08  0.10566000000E+00  0.10566000000E+00 0. -1.
     999900   -1    0    0    0    0 -0.00000000000E+00 -0.00000000000E+00 -0.74505805969E-08  0.93827000000E+00  0.93827000000E+00 0. -1.
     999902    2    1    2    0    0 -0.19748944321E-01 -0.12992187626E-01 -0.50854710698E-02  0.10197498479E+01  0.10194631295E+01 0.  0.
     999903    2    3    3    0    0 -0.75112640429E-01 -0.98839854676E-01 -0.43399365928E-01  0.13301261772E+00  0.19940558831E-01 0.  0.
         14    1    1    2    0    0  0.19748944321E-01  0.12992187626E-01  0.50854710698E-02  0.24180152131E-01  0.00000000000E+00 0. -1.
     999901    1    3    3    0    0  0.55363696108E-01  0.85847667050E-01  0.38313894858E-01  0.88673723014E+00  0.88000000000E+00 0.  1.
        -11    1    4    4    0    0 -0.52386302021E-01 -0.53678410610E-01 -0.29274118941E-01  0.80516653966E-01  0.51100000000E-03 0. -1.
         11    1    4    4    0    0 -0.22726338408E-01 -0.45161444065E-01 -0.14125246986E-01  0.52495963758E-01  0.51100000000E-03 0.  1.
</event>
<event>
 8    1  0.1088270E+005  0.1043930E+01  0.7957747E-01            NaN
         13   -1    0    0    0    0  0.00000000000E+00  0.00000000000E+00  0.74505805969E-08  0.10566000000E+00  0.10566000000E+00 0.  1.
     999900   -1    0    0    0    0 -0.00000000000E+00 -0.00000000000E+00 -0.74505805969E-08  0.93827000000E+00  0.93827000000E+00 0. -1.
     999902    2    1    2    0    0  0.22676820157E-01 -0.77817737936E-02  0.13582446459E-02  0.10199166911E+01  0.10196339626E+01 0.  0.
     999903    2    3    3    0    0  0.10914419638E+00 -0.73207611121E-01  0.93934153650E-02  0.13322525023E+00  0.19721083086E-01 0.  0.
         14    1    1    2    0    0 -0.22676820157E-01  0.77817737936E-02 -0.13582446459E-02  0.24013308900E-01  0.00000000000E+00 0. -1.
     999901    1    3    3    0    0 -0.86467376222E-01  0.65425837327E-01 -0.80351707191E-02  0.88669144087E+00  0.88000000000E+00 0.  1.
        -11    1    4    4    0    0  0.38237935102E-01 -0.21554858929E-01 -0.55081611931E-02  0.44241977635E-01  0.51100000000E-03 0. -1.
         11    1    4    4    0    0  0.70906261277E-01 -0.51652752192E-01  0.14901576558E-01  0.88983272597E-01  0.51100000000E-03 0.  1.
</event>
<event>
 8    1  0.1088270E+005  0.1043930E+01  0.7957747E-01            NaN
         13   -1    0    0    0    0  0.00000000000E+00  0.00000000000E+00  0.74505805969E-08  0.10566000000E+00  0.10566000000E+00 0. -1.
     999900   -1    0    0    0    0 -0.00000000000E+00 -0.00000000000E+00 -0.74505805969E-08  0.93827000000E+00  0.93827000000E+00 0.  1.
     999902    2    1    2    0    0 -0.21801010637E-01 -0.70899215710E-02 -0.39830616761E-02  0.10206616560E+01  0.10203963936E+01 0.  0.
     999903    2    3    3    0    0 -0.10993826579E+00  0.28461401299E-01  0.65510128681E-01  0.13282080549E+00  0.21291213284E-01 0.  0.
         14    1    1    2    0    0  0.21801010637E-01  0.70899215710E-02  0.39830616761E-02  0.23268344011E-01  0.00000000000E+00 0.  1.
     999901    1    3    3    0    0  0.88137255153E-01 -0.35551322870E-01 -0.69493190357E-01  0.88784085050E+00  0.88000000000E+00 0.  1.
        -11    1    4    4    0    0 -0.88869088255E-01  0.14094935389E-01  0.52705229541E-01  0.10428079590E+00  0.51100000000E-03 0.  1.
         11    1    4    4    0    0 -0.21069177535E-01  0.14366465910E-01  0.12804899140E-01  0.28540009596E-01  0.51100000000E-03 0. -1.
</event>
<event>
 8    1  0.1088270E+005  0.1043930E+01  0.7957747E-01            NaN
         13   -1    0    0    0    0  0.00000000000E+00  0.00000000000E+00  0.74505805969E-08  0.10566000000E+00  0.10566000000E+00 0.  1.
     999900   -1    0    0    0    0 -0.00000000000E+00 -0.00000000000E+00 -0.74505805969E-08  0.93827000000E+00  0.93827000000E+00 0.  1.
     999902    2    1    2    0    0  0.17699496835E-01  0.73010223496E-02 -0.13938858720E-01  0.10202473292E+01  0.10199724230E+01 0.  0.
     999903    2    3    3    0    0 -0.24554792274E-02  0.58964450742E-01  0.11338390999E+00  0.12935652759E+00  0.19858609146E-01 0.  0.
         14    1    1    2    0    0 -0.17699496835E-01 -0.73010223496E-02  0.13938858720E-01  0.23682670837E-01  0.00000000000E+00 0.  1.
     999901    1    3    3    0    0  0.20154976062E-01 -0.51663428393E-01 -0.12732276871E+00  0.89089080157E+00  0.88000000000E+00 0.  1.
        -11    1    4    4    0    0 -0.87664401339E-02  0.20417596873E-01  0.52595038042E-01  0.57098405252E-01  0.51100000000E-03 0.  1.
         11    1    4    4    0    0  0.63109609065E-02  0.38546853869E-01  0.60788871945E-01  0.72258122340E-01  0.51100000000E-03 0. -1.
</event>
<event>
 8    1  0.1088270E+005  0.1043930E+01  0.7957747E-01            NaN
         13   -1    0    0    0    0  0.00000000000E+00  0.00000000000E+00  0.74505805969E-08  0.10566000000E+00  0.10566000000E+00 0. -1.
     999900   -1    0    0    0    0 -0.00000000000E+00 -0.00000000000E+00 -0.74505805969E-08  0.93827000000E+00  0.93827000000E+00 0. -1.
     999902    2    1    2    0    0 -0.81828688869E-02 -0.83207452633E-02 -0.22463687761E-01  0.10186157468E+01  0.10183011481E+01 0.  0.
     999903    2    3    3    0    0  0.71227205062E-01 -0.95193519574E-01  0.43076030290E-01  0.12836393224E+00  0.22059778001E-01 0.  0.
         14    1    1    2    0    0  0.81828688869E-02  0.83207452633E-02  0.22463687761E-01  0.25314253154E-01  0.00000000000E+00 0. -1.
     999901    1    3    3    0    0 -0.79410073949E-01  0.86872774311E-01 -0.65539718051E-01  0.89025181460E+00  0.88000000000E+00 0. -1.
        -11    1    4    4    0    0  0.28870276388E-01 -0.31940826017E-01  0.53090520616E-02  0.43383826250E-01  0.51100000000E-03 0.  1.
         11    1    4    4    0    0  0.42356928675E-01 -0.63252693557E-01  0.37766978228E-01  0.84980105993E-01  0.51100000000E-03 0. -1.
</event>
<event>
 8    1  0.1088270E+005  0.1043930E+01  0.7957747E-01            NaN
         13   -1    0    0    0    0  0.00000000000E+00  0.00000000000E+00  0.74505805969E-08  0.10566000000E+00  0.10566000000E+00 0.  1.
     999900   -1    0    0    0    0 -0.00000000000E+00 -0.00000000000E+00 -0.74505805969E-08  0.93827000000E+00  0.93827000000E+00 0. -1.
     999902    2    1    2    0    0  0.16462065140E-01 -0.16161917264E-01 -0.78369921110E-02  0.10195655668E+01  0.10192744083E+01 0.  0.
     999903    2    3    3    0    0 -0.79277738730E-01  0.96515928785E-01  0.12849946150E-01  0.12699044033E+00  0.19004379799E-01 0.  0.
         14    1    1    2    0    0 -0.16462065140E-01  0.16161917264E-01  0.78369921110E-02  0.24364433170E-01  0.00000000000E+00 0.  1.
     999901    1    3    3    0    0  0.95739803870E-01 -0.11267784605E+00 -0.20686938261E-01  0.89257512650E+00  0.88000000000E+00 0.  1.
        -11    1    4    4    0    0 -0.50646294241E-01  0.56364573952E-01 -0.93389107950E-03  0.75783544326E-01  0.51100000000E-03 0. -1.
         11    1    4    4    0    0 -0.28631444489E-01  0.40151354833E-01  0.13783837229E-01  0.51206896002E-01  0.51100000000E-03 0.  1.
</event>
<event>
 8    1  0.1088270E+005  0.1043930E+01  0.7957747E-01            NaN
         13   -1    0    0    0    0  0.00000000000E+00  0.00000000000E+00  0.74505805969E-08  0.10566000000E+00  0.10566000000E+00 0. -1.
     999900   -1    0    0    0    0 -0.00000000000E+00 -0.00000000000E+00 -0.74505805969E-08  0.93827000000E+00  0.93827000000E+00 0. -1.
     999902    2    1    2    0    0  0.23346072570E-01 -0.11494730197E-02  0.53160333128E-02  0.10199587547E+01  0.10196770276E+01 0.  0.
     999903    2    3    3    0    0 -0.97789720194E-01  0.88588400576E-02 -0.78853172770E-01  0.12762557593E+00  0.20716089227E-01 0.  0.
         14    1    1    2    0    0 -0.23346072570E-01  0.11494730197E-02 -0.53160333128E-02  0.23971245334E-01  0.00000000000E+00 0. -1.
     999901    1    3    3    0    0  0.12113579276E+00 -0.10008313077E-01  0.84169206083E-01  0.89233317874E+00  0.88000000000E+00 0.  1.
        -11    1    4    4    0    0 -0.89644719786E-01  0.13894102129E-01 -0.72420694176E-01  0.11607859374E+00  0.51100000000E-03 0. -1.
         11    1    4    4    0    0 -0.81450004080E-02 -0.50352620709E-02 -0.64324785945E-02  0.11546982187E-01  0.51100000000E-03 0.  1.
</event>
<event>
 8    1  0.1088270E+005  0.1043930E+01  0.7957747E-01            NaN
         13   -1    0    0    0    0  0.00000000000E+00  0.00000000000E+00  0.74505805969E-08  0.10566000000E+00  0.10566000000E+00 0. -1.
     999900   -1    0    0    0    0 -0.00000000000E+00 -0.00000000000E+00 -0.74505805969E-08  0.93827000000E+00  0.93827000000E+00 0. -1.
     999902    2    1    2    0    0 -0.15870135928E-01 -0.87603764104E-02 -0.21979216377E-02  0.10256697626E+01  0.10255072041E+01 0.  0.
     999903    2    3    3    0    0 -0.91667287814E-01  0.79904461766E-01  0.57176845786E-01  0.13598890706E+00  0.20884838621E-01 0.  0.
         14    1    1    2    0    0  0.15870135928E-01  0.87603764104E-02  0.21979216377E-02  0.18260237368E-01  0.00000000000E+00 0.  1.
     999901    1    3    3    0    0  0.75797151886E-01 -0.88664838177E-01 -0.59374767424E-01  0.88968085557E+00  0.88000000000E+00 0.  1.
        -11    1    4    4    0    0 -0.31565630709E-01  0.40830190595E-01  0.26421577147E-01  0.57981500205E-01  0.51100000000E-03 0. -1.
         11    1    4    4    0    0 -0.60101657104E-01  0.39074271171E-01  0.30755268639E-01  0.78007406855E-01  0.51100000000E-03 0.  1.
</event>
<event>
 8    1  0.1088270E+005  0.1043930E+01  0.7957747E-01            NaN
         13   -1    0    0    0    0  0.00000000000E+00  0.00000000000E+00  0.74505805969E-08  0.10566000000E+00  0.10566000000E+00 0.  1.
     999900   -1    0    0    0    0 -0.00000000000E+00 -0.00000000000E+00 -0.74505805969E-08  0.93827000000E+00  0.93827000000E+00 0.  1.
     999902    2    1    2    0    0  0.11499236216E-01  0.18160346668E-01  0.88817715392E-02  0.10206723886E+01  0.10204073737E+01 0.  0.
     999903    2    3    3    0    0 -0.34556546986E-01 -0.82799964495E-01 -0.89759939547E-01  0.12823510405E+00  0.18368617367E-01 0.  0.
         14    1    1    2    0    0 -0.11499236216E-01 -0.18160346668E-01 -0.88817715392E-02  0.23257611449E-01  0.00000000000E+00 0.  1.
     999901    1    3    3    0    0  0.46055783202E-01  0.10096031116E+00  0.98641711086E-01  0.89243728450E+00  0.88000000000E+00 0. -1.
        -11    1    4    4    0    0 -0.77497516018E-02 -0.97235773543E-02 -0.20819323925E-01  0.24255143293E-01  0.51100000000E-03 0.  1.
         11    1    4    4    0    0 -0.26806795384E-01 -0.73076387141E-01 -0.68940615621E-01  0.10397996076E+00  0.51100000000E-03 0. -1.
</event>
<event>
 8    1  0.1088270E+005  0.1043930E+01  0.7957747E-01            NaN
         13   -1    0    0    0    0  0.00000000000E+00  0.00000000000E+00  0.74505805969E-08  0.10566000000E+00  0.10566000000E+00 0. -1.
     999900   -1    0    0    0    0 -0.00000000000E+00 -0.00000000000E+00 -0.74505805969E-08  0.93827000000E+00  0.93827000000E+00 0.  1.
     999902    2    1    2    0    0  0.88719038753E-03  0.11120149719E-01  0.20996799874E-01  0.10201537421E+01  0.10198766332E+01 0.  0.
     999903    2    3    3    0    0  0.31471874401E-01  0.79092793008E-01  0.10100392255E+00  0.13338610462E+00  0.18544857824E-01 0.  0.
         14    1    1    2    0    0 -0.88719038753E-03 -0.11120149719E-01 -0.20996799874E-01  0.23776257937E-01  0.00000000000E+00 0.  1.
     999901    1    3    3    0    0 -0.30584684014E-01 -0.67972643288E-01 -0.80007122677E-01  0.88676763744E+00  0.88000000000E+00 0. -1.
        -11    1    4    4    0    0  0.12357178056E-01  0.24743206819E-01  0.20690104873E-01  0.34543707008E-01  0.51100000000E-03 0.  1.
         11    1    4    4    0    0  0.19114696345E-01  0.54349586189E-01  0.80313817678E-01  0.98842397615E-01  0.51100000000E-03 0. -1.
</event>
<event>
 8    1  0.1088270E+005  0.1043930E+01  0.7957747E-01            NaN
         13   -1    0    0    0    0  0.00000000000E+00  0.00000000000E+00  0.74505805969E-08  0.10566000000E+00  0.10566000000E+00 0.  1.
     999900   -1    0    0    0    0 -0.00000000000E+00 -0.00000000000E+00 -0.74505805969E-08  0.93827000000E+00  0.93827000000E+00 0. -1.
     999902    2    1    2    0    0  0.16360425341E-01  0.65371077942E-02  0.13851453608E-01  0.10215188407E+01  0.10212729712E+01 0.  0.
     999903    2    3    3    0    0 -0.11356846972E+00 -0.10734543647E-01 -0.56892714821E-01  0.12900297802E+00  0.19797969470E-01 0.  0.
         14    1    1    2    0    0 -0.16360425341E-01 -0.65371077942E-02 -0.13851453608E-01  0.22411159334E-01  0.00000000000E+00 0. -1.
     999901    1    3    3    0    0  0.12992889506E+00  0.17271651441E-01  0.70744168429E-01  0.89251586265E+00  0.88000000000E+00 0.  1.
        -11    1    4    4    0    0 -0.89912756595E-01 -0.12947880204E-01 -0.52226622444E-01  0.10478469647E+00  0.51100000000E-03 0. -1.
         11    1    4    4    0    0 -0.23655713126E-01  0.22133365570E-02 -0.46660923769E-02  0.24218281551E-01  0.51100000000E-03 0.  1.
</event>
<event>
 8    1  0.1088270E+005  0.1043930E+01  0.7957747E-01            NaN
         13   -1    0    0    0    0  0.00000000000E+00  0.00000000000E+00  0.74505805969E-08  0.10566000000E+00  0.10566000000E+00 0.  1.
     999900   -1    0    0    0    0 -0.00000000000E+00 -0.00000000000E+00 -0.74505805969E-08  0.93827000000E+00  0.93827000000E+00 0. -1.
     999902    2    1    2    0    0 -0.18409238108E-01  0.36504529880E-02  0.13956443126E-01  0.10205417944E+01  0.10202737603E+01 0.  0.
     999903    2    3    3    0    0  0.89314058270E-01 -0.88335717385E-01 -0.19303041315E-01  0.12859338930E+00  0.19581940578E-01 0.  0.
         14    1    1    2    0    0  0.18409238108E-01 -0.36504529880E-02 -0.13956443126E-01  0.23388205564E-01  0.00000000000E+00 0.  1.
     999901    1    3    3    0    0 -0.10772329638E+00  0.91986170373E-01  0.33259484441E-01  0.89194840514E+00  0.88000000000E+00 0.  1.
        -11    1    4    4    0    0  0.18463433275E-01 -0.30215544917E-01 -0.74539380994E-02  0.36189775312E-01  0.51100000000E-03 0.  1.
         11    1    4    4    0    0  0.70850624995E-01 -0.58120172468E-01 -0.11849103215E-01  0.92403613987E-01  0.51100000000E-03 0. -1.
</event>
<event>
 8    1  0.1088270E+005  0.1043930E+01  0.7957747E-01            NaN
         13   -1    0    0    0    0  0.00000000000E+00  0.00000000000E+00  0.74505805969E-08  0.10566000000E+00  0.10566000000E+00 0.  1.
     999900   -1    0    0    0    0 -0.00000000000E+00 -0.00000000000E+00 -0.74505805969E-08  0.93827000000E+00  0.93827000000E+00 0. -1.
     999902    2    1    2    0    0 -0.73192675062E-02 -0.21217969626E-01  0.98483850591E-02  0.10194195002E+01  0.10191247975E+01 0.  0.
     999903    2    3    3    0    0  0.33557591367E-01 -0.94547276887E-01 -0.81455341261E-01  0.13072130884E+00  0.19692345219E-01 0.  0.
         14    1    1    2    0    0  0.73192675062E-02  0.21217969626E-01 -0.98483850591E-02  0.24510499794E-01  0.00000000000E+00 0. -1.
     999901    1    3    3    0    0 -0.40876858873E-01  0.73329307261E-01  0.91303726320E-01  0.88869819136E+00  0.88000000000E+00 0. -1.
        -11    1    4    4    0    0  0.10307895406E-01 -0.57977712534E-01 -0.45865194529E-01  0.74642782964E-01  0.51100000000E-03 0.  1.
         11    1    4    4    0    0  0.23249695961E-01 -0.36569564353E-01 -0.35590146732E-01  0.56078525878E-01  0.51100000000E-03 0. -1.
</event>
<event>
 8    1  0.1088270E+005  0.1043930E+01  0.7957747E-01            NaN
         13   -1    0    0    0    0  0.00000000000E+00  0.00000000000E+00  0.74505805969E-08  0.10566000000E+00  0.10566000000E+00 0.  1.
     999900   -1    0    0    0    0 -0.00000000000E+00 -0.00000000000E+00 -0.74505805969E-08  0.93827000000E+00  0.93827000000E+00 0. -1.
     999902    2    1    2    0    0  0.12303359783E-01 -0.11287581622E-01 -0.17230308952E-01  0.10199369654E+01  0.10196547199E+01 0.  0.
     999903    2    3    3    0    0  0.16282605757E-01 -0.96717271965E-01  0.83239761912E-01  0.13010085607E+00  0.19442758076E-01 0.  0.
         14    1    1    2    0    0 -0.12303359783E-01  0.11287581622E-01  0.17230308952E-01  0.23993034560E-01  0.00000000000E+00 0.  1.
     999901    1    3    3    0    0 -0.39792459745E-02  0.85429690344E-01 -0.10047007086E+00  0.88983610937E+00  0.88000000000E+00 0. -1.
        -11    1    4    4    0    0  0.62428380350E-02 -0.80119003648E-01  0.70343440974E-01  0.10680116376E+00  0.51100000000E-03 0.  1.
         11    1    4    4    0    0  0.10039767722E-01 -0.16598268317E-01  0.12896320938E-01  0.23299692311E-01  0.51100000000E-03 0. -1.
</event>
<event>
 8    1  0.1088270E+005  0.1043930E+01  0.7957747E-01            NaN
         13   -1    0    0    0    0  0.00000000000E+00  0.00000000000E+00  0.74505805969E-08  0.10566000000E+00  0.10566000000E+00 0.  1.
     999900   -1    0    0    0    0 -0.00000000000E+00 -0.00000000000E+00 -0.74505805969E-08  0.93827000000E+00  0.93827000000E+00 0.  1.
     999902    2    1    2    0    0  0.63698967077E-02 -0.74519496751E-02  0.22146364145E-01  0.10197108220E+01  0.10194231663E+01 0.  0.
     999903    2    3    3    0    0  0.76299235086E-01 -0.40677698528E-01  0.99023710389E-01  0.13297287361E+00  0.19996036220E-01 0.  0.
         14    1    1    2    0    0 -0.63698967077E-02  0.74519496751E-02 -0.22146364145E-01  0.24219177998E-01  0.00000000000E+00 0. -1.
     999901    1    3    3    0    0 -0.69929338379E-01  0.33225748853E-01 -0.76877346244E-01  0.88673794839E+00  0.88000000000E+00 0.  1.
        -11    1    4    4    0    0  0.58581010951E-02  0.18609747670E-02  0.44259099148E-02  0.75914672560E-02  0.51100000000E-03 0. -1.
         11    1    4    4    0    0  0.70441133991E-01 -0.42538673295E-01  0.94597800475E-01  0.12538140635E+00  0.51100000000E-03 0.  1.
</event>
<event>
 8    1  0.1088270E+005  0.1043930E+01  0.7957747E-01            NaN
         13   -1    0    0    0    0  0.00000000000E+00  0.00000000000E+00  0.74505805969E-08  0.10566000000E+00  0.10566000000E+00 0.  1.
     999900   -1    0    0    0    0 -0.00000000000E+00 -0.00000000000E+00 -0.74505805969E-08  0.93827000000E+00  0.93827000000E+00 0. -1.
     999902    2    1    2    0    0 -0.99422380395E-02  0.18145484423E-01 -0.10864622733E-01  0.10205602176E+01  0.10202926105E+01 0.  0.
     999903    2    3    3    0    0 -0.10469517341E+00  0.60532687428E-01  0.49279663006E-01  0.13242051640E+00  0.21941339892E-01 0.  0.
         14    1    1    2    0    0  0.99422380395E-02 -0.18145484423E-01  0.10864622733E-01  0.23369782398E-01  0.00000000000E+00 0.  1.
     999901    1    3    3    0    0  0.94752935369E-01 -0.42387203005E-01 -0.60144285740E-01  0.88813970120E+00  0.88000000000E+00 0. -1.
        -11    1    4    4    0    0 -0.13391284931E-01  0.51892826796E-02  0.13766491387E-01  0.19900567151E-01  0.51100000000E-03 0.  1.
         11    1    4    4    0    0 -0.91303888477E-01  0.55343404748E-01  0.35513171619E-01  0.11251994925E+00  0.51100000000E-03 0. -1.
</event>
<event>
 8    1  0.1088270E+005  0.1043930E+01  0.7957747E-01            NaN
         13   -1    0    0    0    0  0.00000000000E+00  0.00000000000E+00  0.74505805969E-08  0.10566000000E+00  0.10566000000E+00 0. -1.
     999900   -1    0    0    0    0 -0.00000000000E+00 -0.00000000000E+00 -0.74505805969E-08  0.93827000000E+00  0.93827000000E+00 0. -1.
     999902    2    1    2    0    0  0.99058641099E-02  0.13981166762E-01 -0.16298196573E-01  0.10202819477E+01  0.10200078541E+01 0.  0.
     999903    2    3    3    0    0 -0.16066760970E-01  0.12632722176E+00 -0.31822269553E-01  0.13262367436E+00  0.18965083541E-01 0.  0.
         14    1    1    2    0    0 -0.99058641099E-02 -0.13981166762E-01  0.16298196573E-01  0.23648052337E-01  0.00000000000E+00 0.  1.
     999901    1    3    3    0    0  0.25972625080E-01 -0.11234605500E+00  0.15524072980E-01  0.88765827331E+00  0.88000000000E+00 0. -1.
        -11    1    4    4    0    0 -0.12955093652E-01  0.66740475999E-01 -0.25526913387E-01  0.72622379582E-01  0.51100000000E-03 0. -1.
         11    1    4    4    0    0 -0.31116673176E-02  0.59586745765E-01 -0.62953561654E-02  0.60001294774E-01  0.51100000000E-03 0.  1.
</event>
<event>
 8    1  0.1088270E+005  0.1043930E+01  0.7957747E-01            NaN
         13   -1    0    0    0    0  0.00000000000E+00  0.00000000000E+00  0.74505805969E-08  0.10566000000E+00  0.10566000000E+00 0. -1.
     999900   -1    0    0    0    0 -0.00000000000E+00 -0.00000000000E+00 -0.74505805969E-08  0.93827000000E+00  0.93827000000E+00 0.  1.
     999902    2    1    2    0    0  0.35614076951E-02  0.99301886002E-02 -0.21207859514E-01  0.10202431772E+01  0.10199681735E+01 0.  0.
     999903    2    3    3    0    0 -0.81820756634E-01 -0.45589409273E-01 -0.90483867757E-01  0.13166470284E+00  0.19370936875E-01 0.  0.
         14    1    1    2    0    0 -0.35614076951E-02 -0.99301886002E-02  0.21207859514E-01  0.23686822826E-01  0.00000000000E+00 0. -1.
     999901    1    3    3    0    0  0.85382164329E-01  0.55519597873E-01  0.69276008243E-01  0.88857847434E+00  0.88000000000E+00 0. -1.
        -11    1    4    4    0    0 -0.41909319804E-01 -0.14160632224E-01 -0.34790795449E-01  0.56281214987E-01  0.51100000000E-03 0. -1.
         11    1    4    4    0    0 -0.39911436829E-01 -0.31428777050E-01 -0.55693072309E-01  0.75383487852E-01  0.51100000000E-03 0.  1.
</event>
<event>
 8    1  0.1088270E+005  0.1043930E+01  0.7957747E-01            NaN
         13   -1    0    0    0    0  0.00000000000E+00  0.00000000000E+00  0.74505805969E-08  0.10566000000E+00  0.10566000000E+00 0.  1.
     999900   -1    0    0    0    0 -0.00000000000E+00 -0.00000000000E+00 -0.74505805969E-08  0.93827000000E+00  0.93827000000E+00 0. -1.
     999902    2    1    2    0    0 -0.20468675700E-02 -0.18483769708E-01  0.15828046079E-01  0.10195093847E+01  0.10192168655E+01 0.  0.
     999903    2    3    3    0    0 -0.33129514892E-01 -0.92335814991E-01 -0.83435042863E-01  0.13031119734E+00  0.19903122562E-01 0.  0.
         14    1    1    2    0    0  0.20468675700E-02  0.18483769708E-01 -0.15828046079E-01  0.24420615311E-01  0.00000000000E+00 0. -1.
     999901    1    3    3    0    0  0.31082647322E-01  0.73852045283E-01  0.99263088942E-01  0.88919818735E+00  0.88000000000E+00 0.  1.
        -11    1    4    4    0    0 -0.11350815301E-01 -0.13629735138E-01 -0.93917630662E-02  0.20076778188E-01  0.51100000000E-03 0. -1.
         11    1    4    4    0    0 -0.21778699591E-01 -0.78706079854E-01 -0.74043279797E-01  0.11023441915E+00  0.51100000000E-03 0.  1.
</event>
<event>
 8    1  0.1088270E+005  0.1043930E+01  0.7957747E-01            NaN
         13   -1    0    0    0    0  0.00000000000E+00  0.00000000000E+00  0.74505805969E-08  0.10566000000E+00  0.10566000000E+00 0.  1.
     999900   -1    0    0    0    0 -0.00000000000E+00 -0.00000000000E+00 -0.74505805969E-08  0.93827000000E+00  0.93827000000E+00 0. -1.
     999902    2    1    2    0    0 -0.93977800305E-02  0.13625998868E-01  0.19351156138E-01  0.10184652526E+01  0.10181468546E+01 0.  0.
     999903    2    3    3    0    0  0.60834958708E-01 -0.43901191590E-01 -0.99140843956E-01  0.12589460035E+00  0.19807489300E-01 0.  0.
         14    1    1    2    0    0  0.93977800305E-02 -0.13625998868E-01 -0.19351156138E-01  0.25464747368E-01  0.00000000000E+00 0.  1.
     999901    1    3    3    0    0 -0.70232738738E-01  0.57527190458E-01  0.11849200009E+00  0.89257065228E+00  0.88000000000E+00 0.  1.
        -11    1    4    4    0    0  0.17111895925E-01 -0.99317749103E-02 -0.41442042789E-01  0.45925604694E-01  0.51100000000E-03 0.  1.
         11    1    4    4    0    0  0.43723062783E-01 -0.33969416680E-01 -0.57698801167E-01  0.79968995653E-01  0.51100000000E-03 0. -1.
</event>
<event>
 8    1  0.1088270E+005  0.1043930E+01  0.7957747E-01            NaN
         13   -1    0    0    0    0  0.00000000000E+00  0.00000000000E+00  0.74505805969E-08  0.10566000000E+00  0.10566000000E+00 0. -1.
     999900   -1    0    0    0    0 -0.00000000000E+00 -0.00000000000E+00 -0.74505805969E-08  0.93827000000E+00  0.93827000000E+00 0.  1.
     999902    2    1    2    0    0  0.15338265741E-01 -0.17932965413E-01 -0.73759279798E-03  0.10203207288E+01  0.10200475439E+01 0.  0.
     999903    2    3    3    0    0 -0.10632216876E-01 -0.33452944645E-01 -0.12471199776E+00  0.13111603423E+00  0.20154118796E-01 0.  0.
         14    1    1    2    0    0 -0.15338265741E-01  0.17932965413E-01  0.73759279798E-03  0.23609271221E-01  0.00000000000E+00 0. -1.
     999901    1    3    3    0    0  0.25970482617E-01  0.15519979232E-01  0.12397440497E+00  0.88920469455E+00  0.88000000000E+00 0. -1.
        -11    1    4    4    0    0 -0.13754901225E-01 -0.10656875319E-01 -0.57082491817E-01  0.59677787261E-01  0.51100000000E-03 0.  1.
         11    1    4    4    0    0  0.31226843486E-02 -0.22796069326E-01 -0.67629505948E-01  0.71438246969E-01  0.51100000000E-03 0. -1.
</event>
<event>
 7    1  0.1088270E+005  0.1043930E+01  0.7957747E-01            NaN
         13   -1    0    0    0    0  0.00000000000E+00  0.00000000000E+00  0.74505805969E-08  0.10566000000E+00  0.10566000000E+00 0. -1.
     999900   -1    0    0    0    0 -0.00000000000E+00 -0.00000000000E+00 -0.74505805969E-08  0.93827000000E+00  0.93827000000E+00 0.  1.
     999903    2    1    2    0    0 -0.49897192434E-01 -0.82804182055E-01  0.63776117145E-01  0.11802314355E+00  0.22711382976E-01 0.  0.
         14    1    1    2    0    0  0.19335426278E-01  0.37286334829E-01 -0.29447221744E-02  0.42104641823E-01  0.00000000000E+00 0.  1.
     999901    1    1    2    0    0  0.30561766156E-01  0.45517847226E-01 -0.60831394970E-01  0.88380221463E+00  0.88000000000E+00 0.  1.
        -11    1    3    3    0    0 -0.35418148921E-02 -0.11402410493E-01  0.17315577702E-01  0.21039243568E-01  0.51100000000E-03 0.  1.
         11    1    3    3    0    0 -0.46355377542E-01 -0.71401771562E-01  0.46460539443E-01  0.96983899981E-01  0.51100000000E-03 0. -1.
</event>
<event>
 8    1  0.1088270E+005  0.1043930E+01  0.7957747E-01            NaN
         13   -1    0    0    0    0  0.00000000000E+00  0.00000000000E+00  0.74505805969E-08  0.10566000000E+00  0.10566000000E+00 0. -1.
     999900   -1    0    0    0    0 -0.00000000000E+00 -0.00000000000E+00 -0.74505805969E-08  0.93827000000E+00  0.93827000000E+00 0. -1.
     999902    2    1    2    0    0 -0.12849016058E-02 -0.83472112600E-02 -0.22078472489E-01  0.10202913483E+01  0.10200174751E+01 0.  0.
     999903    2    3    3    0    0  0.49216371063E-01  0.34588091845E-01 -0.11646860389E+00  0.13276483278E+00  0.21047039051E-01 0.  0.
         14    1    1    2    0    0  0.12849016058E-02  0.83472112600E-02  0.22078472489E-01  0.23638651725E-01  0.00000000000E+00 0. -1.
     999901    1    3    3    0    0 -0.50501272669E-01 -0.42935303105E-01  0.94390131405E-01  0.88752651549E+00  0.88000000000E+00 0.  1.
        -11    1    4    4    0    0  0.18873889009E-01  0.15215935474E-01 -0.26819682354E-01  0.36156671048E-01  0.51100000000E-03 0. -1.
         11    1    4    4    0    0  0.30342482054E-01  0.19372156372E-01 -0.89648921539E-01  0.96608161735E-01  0.51100000000E-03 0.  1.
</event>
<event>
 8    1  0.1088270E+005  0.1043930E+01  0.7957747E-01            NaN
         13   -1    0    0    0    0  0.00000000000E+00  0.00000000000E+00  0.74505805969E-08  0.10566000000E+00  0.10566000000E+00 0.  1.
     999900   -1    0    0    0    0 -0.00000000000E+00 -0.00000000000E+00 -0.74505805969E-08  0.93827000000E+00  0.93827000000E+00 0. -1.
     999902    2    1    2    0    0  0.80445197974E-02 -0.16236927557E-01  0.20340091699E-01  0.10166890117E+01  0.10163240010E+01 0.  0.
     999903    2    3    3    0    0  0.36799796844E-01  0.99575333282E-01  0.67435584213E-01  0.12738741427E+00  0.20261373326E-01 0.  0.
         14    1    1    2    0    0 -0.80445197974E-02  0.16236927557E-01 -0.20340091699E-01  0.27240988337E-01  0.00000000000E+00 0. -1.
     999901    1    3    3    0    0 -0.28755277047E-01 -0.11581226084E+00 -0.47095492514E-01  0.88930159740E+00  0.88000000000E+00 0. -1.
        -11    1    4    4    0    0  0.62347243981E-02  0.37815853250E-01  0.16678718692E-01  0.41801331600E-01  0.51100000000E-03 0.  1.
         11    1    4    4    0    0  0.30565072446E-01  0.61759480032E-01  0.50756865520E-01  0.85586082665E-01  0.51100000000E-03 0. -1.
</event>
<event>
 8    1  0.1088270E+005  0.1043930E+01  0.7957747E-01            NaN
         13   -1    0    0    0    0  0.00000000000E+00  0.00000000000E+00  0.74505805969E-08  0.10566000000E+00  0.10566000000E+00 0.  1.
     999900   -1    0    0    0    0 -0.00000000000E+00 -0.00000000000E+00 -0.74505805969E-08  0.93827000000E+00  0.93827000000E+00 0. -1.
     999902    2    1    2    0    0  0.58820244355E-02  0.24987321133E-02 -0.22164242650E-01  0.10208628041E+01  0.10206021602E+01 0.  0.
     999903    2    3    3    0    0 -0.21652559417E-01  0.10628088807E+00  0.67977626956E-01  0.12976547730E+00  0.21299315342E-01 0.  0.
         14    1    1    2    0    0 -0.58820244355E-02 -0.24987321133E-02  0.22164242650E-01  0.23067195883E-01  0.00000000000E+00 0.  1.
     999901    1    3    3    0    0  0.27534583852E-01 -0.10378215596E+00 -0.90141869606E-01  0.89109732682E+00  0.88000000000E+00 0. -1.
        -11    1    4    4    0    0 -0.11332603690E-01  0.36635759704E-01  0.35377570688E-01  0.52177010496E-01  0.51100000000E-03 0.  1.
         11    1    4    4    0    0 -0.10319955727E-01  0.69645128367E-01  0.32600056267E-01  0.77588466804E-01  0.51100000000E-03 0. -1.
</event>
<event>
 8    1  0.1088270E+005  0.1043930E+01  0.7957747E-01            NaN
         13   -1    0    0    0    0  0.00000000000E+00  0.00000000000E+00  0.74505805969E-08  0.10566000000E+00  0.10566000000E+00 0. -1.
     999900   -1    0    0    0    0 -0.00000000000E+00 -0.00000000000E+00 -0.74505805969E-08  0.93827000000E+00  0.93827000000E+00 0.  1.
     999902    2    1    2    0    0 -0.25892119390E-02 -0.58536524553E-02  0.20227986623E-01  0.10227134803E+01  0.10224933849E+01 0.  0.
     999903    2    3    3    0    0 -0.95183281811E-02 -0.81914401104E-02  0.13335875818E+00  0.13544122818E+00  0.20051674374E-01 0.  0.
         14    1    1    2    0    0  0.25892119390E-02  0.58536524553E-02 -0.20227986623E-01  0.21216519704E-01  0.00000000000E+00 0.  1.
     999901    1    3    3    0    0  0.69291162421E-02  0.23377876551E-02 -0.11313077156E+00  0.88727225212E+00  0.88000000000E+00 0.  1.
        -11    1    4    4    0    0 -0.11971931537E-01  0.27928292934E-02  0.75450369889E-01  0.76447017454E-01  0.51100000000E-03 0.  1.
         11    1    4    4    0    0  0.24536033561E-02 -0.10984269404E-01  0.57908388290E-01  0.58994210726E-01  0.51100000000E-03 0. -1.
</event>
<event>
 8    1  0.1088270E+005  0.1043930E+01  0.7957747E-01            NaN
         13   -1    0    0    0    0  0.00000000000E+00  0.00000000000E+00  0.74505805969E-08  0.10566000000E+00  0.10566000000E+00 0.  1.
     999900   -1    0    0    0    0 -0.00000000000E+00 -0.00000000000E+00 -0.74505805969E-08  0.93827000000E+00  0.93827000000E+00 0.  1.
     999902    2    1    2    0    0 -0.16681838177E-01 -0.11281430435E-01  0.13025306559E-01  0.10199464013E+01  0.10196643803E+01 0.  0.
     999903    2    3    3    0    0 -0.98772468171E-01 -0.24408612056E-01  0.83378479777E-01  0.13323293942E+00  0.21148627490E-01 0.  0.
         14    1    1    2    0    0  0.16681838177E-01  0.11281430435E-01 -0.13025306559E-01  0.23983598741E-01  0.00000000000E+00 0. -1.
     999901    1    3    3    0    0  0.82090629994E-01  0.13127181621E-01 -0.70353173217E-01  0.88671346184E+00  0.88000000000E+00 0.  1.
        -11    1    4    4    0    0 -0.33129540562E-01 -0.18219198308E-01  0.26756977103E-01  0.46321729129E-01  0.51100000000E-03 0.  1.
         11    1    4    4    0    0 -0.65642927609E-01 -0.61894137480E-02  0.56621502674E-01  0.86911210288E-01  0.51100000000E-03 0. -1.
</event>
<event>
 8    1  0.1088270E+005  0.1043930E+01  0.7957747E-01            NaN
         13   -1    0    0    0    0  0.00000000000E+00  0.00000000000E+00  0.74505805969E-08  0.10566000000E+00  0.10566000000E+00 0.  1.
     999900   -1    0    0    0    0 -0.00000000000E+00 -0.00000000000E+00 -0.74505805969E-08  0.93827000000E+00  0.93827000000E+00 0. -1.
     999902    2    1    2    0    0 -0.13045201450E-01  0.19480019104E-01 -0.29837081384E-02  0.10202963177E+01  0.10200225610E+01 0.  0.
     999903    2    3    3    0    0  0.81695392096E-01  0.43371660350E-01  0.89611227879E-01  0.13006016208E+00  0.18172385280E-01 0.  0.
         14    1    1    2    0    0  0.13045201450E-01 -0.19480019104E-01  0.29837081384E-02  0.23633682307E-01  0.00000000000E+00 0.  1.
     999901    1    3    3    0    0 -0.94740593545E-01 -0.23891641246E-01 -0.92594936017E-01  0.89023615561E+00  0.88000000000E+00 0. -1.
        -11    1    4    4    0    0  0.42564782445E-01  0.15922179081E-01  0.53207021004E-01  0.69975172000E-01  0.51100000000E-03 0. -1.
         11    1    4    4    0    0  0.39130609650E-01  0.27449481270E-01  0.36404206875E-01  0.60084990079E-01  0.51100000000E-03 0.  1.
</event>
<event>
 8    1  0.1088270E+005  0.1043930E+01  0.7957747E-01            NaN
         13   -1    0    0    0    0  0.00000000000E+00  0.00000000000E+00  0.74505805969E-08  0.10566000000E+00  0.10566000000E+00 0.  1.
     999900   -1    0    0    0    0 -0.00000000000E+00 -0.00000000000E+00 -0.74505805969E-08  0.93827000000E+00  0.93827000000E+00 0.  1.
     999902    2    1    2    0    0 -0.42122333897E-02 -0.78820439949E-02  0.22086633293E-01  0.10201037771E+01  0.10198254886E+01 0.  0.
     999903    2    3    3    0    0  0.28616649890E-01 -0.12134323222E+00  0.38313453539E-01  0.13206408964E+00  0.20734280615E-01 0.  0.
         14    1    1    2    0    0  0.42122333897E-02  0.78820439949E-02 -0.22086633293E-01  0.23826222904E-01  0.00000000000E+00 0. -1.
     999901    1    3    3    0    0 -0.32828883280E-01  0.11346118822E+00 -0.16226820247E-01  0.88803968746E+00  0.88000000000E+00 0. -1.
        -11    1    4    4    0    0  0.35344879403E-02 -0.53131681923E-01  0.10696616707E-01  0.54315255306E-01  0.51100000000E-03 0.  1.
         11    1    4    4    0    0  0.25082161950E-01 -0.68211550296E-01  0.27616836832E-01  0.77748834329E-01  0.51100000000E-03 0. -1.
</event>
<event>
 8    1  0.1088270E+005  0.1043930E+01  0.7957747E-01            NaN
         13   -1    0    0    0    0  0.00000000000E+00  0.00000000000E+00  0.74505805969E-08  0.10566000000E+00  0.10566000000E+00 0.  1.
     999900   -1    0    0    0    0 -0.00000000000E+00 -0.00000000000E+00 -0.74505805969E-08  0.93827000000E+00  0.93827000000E+00 0.  1.
     999902    2    1    2    0    0 -0.16033987194E-01  0.69366999617E-02  0.17155204938E-01  0.10194451555E+01  0.10191510769E+01 0.  0.
     999903    2    3    3    0    0 -0.81135433160E-01 -0.18762105951E-01  0.10283472138E+00  0.13251809742E+00  0.71478030615E-02 0.  0.
         14    1    1    2    0    0  0.16033987194E-01 -0.69366999617E-02 -0.17155204938E-01  0.24484844458E-01  0.00000000000E+00 0. -1.
     999901    1    3    3    0    0  0.65101445966E-01  0.25698805913E-01 -0.85679516442E-01  0.88692705812E+00  0.88000000000E+00 0.  1.
        -11    1    4    4    0    0 -0.43660376941E-01 -0.11270467738E-01  0.50346634894E-01  0.67589176085E-01  0.51100000000E-03 0. -1.
         11    1    4    4    0    0 -0.37475056219E-01 -0.74916382126E-02  0.52488086486E-01  0.64928921334E-01  0.51100000000E-03 0.  1.
</event>
<event>
 8    1  0.1088270E+005  0.1043930E+01  0.7957747E-01            NaN
         13   -1    0    0    0    0  0.00000000000E+00  0.00000000000E+00  0.74505805969E-08  0.10566000000E+00  0.10566000000E+00 0. -1.
     999900   -1    0    0    0    0 -0.00000000000E+00 -0.00000000000E+00 -0.74505805969E-08  0.93827000000E+00  0.93827000000E+00 0.  1.
     999902    2    1    2    0    0  0.15149987984E-01  0.38484527914E-02  0.17193600402E-01  0.10206931194E+01  0.10204285822E+01 0.  0.
     999903    2    3    3    0    0 -0.10411230270E+00  0.59571593896E-01  0.46781722578E-01  0.13041000747E+00  0.20738710356E-01 0.  0.
         14    1    1    2    0    0 -0.15149987984E-01 -0.38484527914E-02 -0.17193600402E-01  0.23236880591E-01  0.00000000000E+00 0.  1.
     999901    1    3    3    0    0  0.11926229069E+00 -0.55723141105E-01 -0.29588122175E-01  0.89028311194E+00  0.88000000000E+00 0.  1.
        -11    1    4    4    0    0 -0.55876373713E-01  0.20143243472E-01  0.21397220629E-01  0.63134947284E-01  0.51100000000E-03 0.  1.
         11    1    4    4    0    0 -0.48235928989E-01  0.39428350424E-01  0.25384501949E-01  0.67275060184E-01  0.51100000000E-03 0. -1.
</event>
<event>
 8    1  0.1088270E+005  0.1043930E+01  0.7957747E-01            NaN
         13   -1    0    0    0    0  0.00000000000E+00  0.00000000000E+00  0.74505805969E-08  0.10566000000E+00  0.10566000000E+00 0.  1.
     999900   -1    0    0    0    0 -0.00000000000E+00 -0.00000000000E+00 -0.74505805969E-08  0.93827000000E+00  0.93827000000E+00 0. -1.
     999902    2    1    2    0    0  0.15244298668E-01  0.23870860018E-02  0.17234573463E-01  0.10207973965E+01  0.10205352553E+01 0.  0.
     999903    2    3    3    0    0  0.12694886505E-01  0.54734864207E-01 -0.11476409584E+00  0.12941059042E+00  0.20475295238E-01 0.  0.
         14    1    1    2    0    0 -0.15244298668E-01 -0.23870860018E-02 -0.17234573463E-01  0.23132603483E-01  0.00000000000E+00 0. -1.
     999901    1    3    3    0    0  0.25494121631E-02 -0.52347778205E-01  0.13199866931E+00  0.89138680610E+00  0.88000000000E+00 0.  1.
        -11    1    4    4    0    0 -0.20971896183E-02  0.24852603254E-01 -0.63825949391E-01  0.68527826680E-01  0.51100000000E-03 0. -1.
         11    1    4    4    0    0  0.14792076123E-01  0.29882260952E-01 -0.50938146451E-01  0.60882763739E-01  0.51100000000E-03 0.  1.
</event>
<event>
 8    1  0.1088270E+005  0.1043930E+01  0.7957747E-01            NaN
         13   -1    0    0    0    0  0.00000000000E+00  0.00000000000E+00  0.74505805969E-08  0.10566000000E+00  0.10566000000E+00 0. -1.
     999900   -1    0    0    0    0 -0.00000000000E+00 -0.00000000000E+00 -0.74505805969E-08  0.93827000000E+00  0.93827000000E+00 0.  1.
     999902    2    1    2    0    0 -0.17851283425E-01 -0.84762804033E-02  0.12755289554E-01  0.10204095183E+01  0.10201384082E+01 0.  0.
     999903    2    3    3    0    0  0.25941818449E-01  0.11379265944E+00 -0.48937172988E-01  0.12874058343E+00  0.23612361877E-01 0.  0.
         14    1    1    2    0    0  0.17851283425E-01  0.84762804033E-02 -0.12755289554E-01  0.23520481734E-01  0.00000000000E+00 0. -1.
     999901    1    3    3    0    0 -0.43793101875E-01 -0.12226893985E+00  0.61692462543E-01  0.89166893484E+00  0.88000000000E+00 0.  1.
        -11    1    4    4    0    0  0.65621992022E-02  0.56038003636E-01 -0.12626310308E-01  0.57818726576E-01  0.51100000000E-03 0. -1.
         11    1    4    4    0    0  0.19379619247E-01  0.57754655806E-01 -0.36310862680E-01  0.70921856850E-01  0.51100000000E-03 0.  1.
</event>
<event>
 8    1  0.1088270E+005  0.1043930E+01  0.7957747E-01            NaN
         13   -1    0    0    0    0  0.00000000000E+00  0.00000000000E+00  0.74505805969E-08  0.10566000000E+00  0.10566000000E+00 0. -1.
     999900   -1    0    0    0    0 -0.00000000000E+00 -0.00000000000E+00 -0.74505805969E-08  0.93827000000E+00  0.93827000000E+00 0. -1.
     999902    2    1    2    0    0  0.87090615977E-02 -0.12145118458E-01  0.18795959820E-01  0.10199166753E+01  0.10196339465E+01 0.  0.
     999903    2    3    3    0    0 -0.33055914602E-01 -0.12444027490E+00  0.20944145669E-01  0.13179555178E+00  0.18797199878E-01 0.  0.
         14    1    1    2    0    0 -0.87090615977E-02  0.12145118458E-01 -0.18795959820E-01  0.24013324672E-01  0.00000000000E+00 0.  1.
     999901    1    3    3    0    0  0.41764976200E-01  0.11229515644E+00 -0.21481858489E-02  0.88812112355E+00  0.88000000000E+00 0. -1.
        -11    1    4    4    0    0 -0.10212968692E-02 -0.36558646403E-01  0.63895345536E-02  0.37130377683E-01  0.51100000000E-03 0. -1.
         11    1    4    4    0    0 -0.32034617733E-01 -0.87881628495E-01  0.14554611115E-01  0.94665174093E-01  0.51100000000E-03 0.  1.
</event>
<event>
 8    1  0.1534203E+005  0.1043930E+01  0.7957747E-01            NaN
         13   -1    0    0    0    0  0.00000000000E+00  0.00000000000E+00  0.74505805969E-08  0.10566000000E+00  0.10566000000E+00 0. -1.
     999900   -1    0    0    0    0 -0.00000000000E+00 -0.00000000000E+00 -0.74505805969E-08  0.93827000000E+00  0.93827000000E+00 0. -1.
     999902    2    1    2    0    0 -0.25694533447E-01  0.17071961289E-01 -0.67935227429E-02  0.10123418240E+01  0.10118488799E+01 0.  0.
     999903    2    3    3    0    0  0.82384164710E-01  0.86921429435E-01 -0.18429937953E-01  0.12290640794E+00  0.20587302151E-01 0.  0.
         14    1    1    2    0    0  0.25694533447E-01 -0.17071961289E-01  0.67935227429E-02  0.31588175993E-01  0.00000000000E+00 0.  1.
     999901    1    3    3    0    0 -0.10807869816E+00 -0.69849468145E-01  0.11636415210E-01  0.88943541607E+00  0.88000000000E+00 0. -1.
        -11    1    4    4    0    0  0.27360133400E-01  0.43574587777E-01 -0.69115697319E-02  0.51916784538E-01  0.51100000000E-03 0.  1.
         11    1    4    4    0    0  0.55024031310E-01  0.43346841657E-01 -0.11518368221E-01  0.70989623402E-01  0.51100000000E-03 0. -1.
</event>
<event>
 8    1  0.1088270E+005  0.1043930E+01  0.7957747E-01            NaN
         13   -1    0    0    0    0  0.00000000000E+00  0.00000000000E+00  0.74505805969E-08  0.10566000000E+00  0.10566000000E+00 0.  1.
     999900   -1    0    0    0    0 -0.00000000000E+00 -0.00000000000E+00 -0.74505805969E-08  0.93827000000E+00  0.93827000000E+00 0. -1.
     999902    2    1    2    0    0 -0.69090657262E-02  0.10425303311E-01 -0.16211085861E-01  0.10234551021E+01  0.10232502747E+01 0.  0.
     999903    2    3    3    0    0 -0.33919684371E-01  0.11655589807E+00  0.52823823918E-01  0.13398385726E+00  0.20627536730E-01 0.  0.
         14    1    1    2    0    0  0.69090657262E-02 -0.10425303311E-01  0.16211085861E-01  0.20474897878E-01  0.00000000000E+00 0.  1.
     999901    1    3    3    0    0  0.27010618645E-01 -0.10613059476E+00 -0.69034909779E-01  0.88947124486E+00  0.88000000000E+00 0. -1.
        -11    1    4    4    0    0 -0.30333368391E-01  0.72730939933E-01  0.29004532629E-01  0.83972774727E-01  0.51100000000E-03 0.  1.
         11    1    4    4    0    0 -0.35863159803E-02  0.43824958135E-01  0.23819291289E-01  0.50011082535E-01  0.51100000000E-03 0. -1.
</event>
<event>
 8    1  0.1088270E+005  0.1043930E+01  0.7957747E-01            NaN
         13   -1    0    0    0    0  0.00000000000E+00  0.00000000000E+00  0.74505805969E-08  0.10566000000E+00  0.10566000000E+00 0.  1.
     999900   -1    0    0    0    0 -0.00000000000E+00 -0.00000000000E+00 -0.74505805969E-08  0.93827000000E+00  0.93827000000E+00 0. -1.
     999902    2    1    2    0    0 -0.95890730601E-02  0.62681401650E-02 -0.20313812790E-01  0.10206085315E+01  0.10203420425E+01 0.  0.
     999903    2    3    3    0    0  0.11561597901E+00 -0.54495990686E-01  0.12956367407E-02  0.12940959019E+00  0.20206329605E-01 0.  0.
         14    1    1    2    0    0  0.95890730601E-02 -0.62681401650E-02  0.20313812790E-01  0.23321468507E-01  0.00000000000E+00 0.  1.
     999901    1    3    3    0    0 -0.12520505207E+00  0.60764130851E-01 -0.21609449530E-01  0.89119894130E+00  0.88000000000E+00 0. -1.
        -11    1    4    4    0    0  0.96784511794E-01 -0.37941329675E-01 -0.28211594161E-02  0.10399522240E+00  0.51100000000E-03 0. -1.
         11    1    4    4    0    0  0.18831467217E-01 -0.16554661012E-01  0.41167961567E-02  0.25414367794E-01  0.51100000000E-03 0.  1.
</event>
<event>
 8    1  0.1088270E+005  0.1043930E+01  0.7957747E-01            NaN
         13   -1    0    0    0    0  0.00000000000E+00  0.00000000000E+00  0.74505805969E-08  0.10566000000E+00  0.10566000000E+00 0.  1.
     999900   -1    0    0    0    0 -0.00000000000E+00 -0.00000000000E+00 -0.74505805969E-08  0.93827000000E+00  0.93827000000E+00 0.  1.
     999902    2    1    2    0    0 -0.20906693710E-01  0.67657150392E-02 -0.67711166438E-02  0.10209362451E+01  0.10206772770E+01 0.  0.
     999903    2    3    3    0    0 -0.72242293207E-01 -0.93521515829E-01  0.53733403978E-01  0.13169293228E+00  0.22147840956E-01 0.  0.
         14    1    1    2    0    0  0.20906693710E-01 -0.67657150392E-02  0.67711166438E-02  0.22993754858E-01  0.00000000000E+00 0.  1.
     999901    1    3    3    0    0  0.51335599497E-01  0.10028723087E+00 -0.60504520622E-01  0.88924331286E+00  0.88000000000E+00 0. -1.
        -11    1    4    4    0    0 -0.34446211730E-01 -0.37635515746E-01  0.12183802815E-01  0.52456455466E-01  0.51100000000E-03 0. -1.
         11    1    4    4    0    0 -0.37796081477E-01 -0.55886000083E-01  0.41549601163E-01  0.79236476816E-01  0.51100000000E-03 0.  1.
</event>
<event>
 8    1  0.1088270E+005  0.1043930E+01  0.7957747E-01            NaN
         13   -1    0    0    0    0  0.00000000000E+00  0.00000000000E+00  0.74505805969E-08  0.10566000000E+00  0.10566000000E+00 0. -1.
     999900   -1    0    0    0    0 -0.00000000000E+00 -0.00000000000E+00 -0.74505805969E-08  0.93827000000E+00  0.93827000000E+00 0.  1.
     999902    2    1    2    0    0  0.34287342009E-02  0.22726815069E-01  0.73031091534E-02  0.10198136208E+01  0.10195284309E+01 0.  0.
     999903    2    3    3    0    0  0.17778951280E-01  0.93887103776E-01  0.90460573019E-01  0.13291741539E+00  0.18789483175E-01 0.  0.
         14    1    1    2    0    0 -0.34287342009E-02 -0.22726815069E-01 -0.73031091534E-02  0.24116379179E-01  0.00000000000E+00 0.  1.
     999901    1    3    3    0    0 -0.14350217079E-01 -0.71160288707E-01 -0.83157463865E-01  0.88689620544E+00  0.88000000000E+00 0.  1.
        -11    1    4    4    0    0  0.17223851693E-02  0.31334194562E-01  0.40655482417E-01  0.51360760616E-01  0.51100000000E-03 0.  1.
         11    1    4    4    0    0  0.16056566111E-01  0.62552909214E-01  0.49805090602E-01  0.81556654770E-01  0.51100000000E-03 0. -1.
</event>
<event>
 8    1  0.1088270E+005  0.1043930E+01  0.7957747E-01            NaN
         13   -1    0    0    0    0  0.00000000000E+00  0.00000000000E+00  0.74505805969E-08  0.10566000000E+00  0.10566000000E+00 0. -1.
     999900   -1    0    0    0    0 -0.00000000000E+00 -0.00000000000E+00 -0.74505805969E-08  0.93827000000E+00  0.93827000000E+00 0. -1.
     999902    2    1    2    0    0 -0.65383817149E-02 -0.17543845820E-01 -0.15169325740E-01  0.10198334151E+01  0.10195486987E+01 0.  0.
     999903    2    3    3    0    0 -0.38552467881E-01 -0.42994474216E-01 -0.11895107415E+00  0.13279154036E+00  0.12223647452E-01 0.  0.
         14    1    1    2    0    0  0.65383817149E-02  0.17543845820E-01  0.15169325740E-01  0.24096584924E-01  0.00000000000E+00 0. -1.
     999901    1    3    3    0    0  0.32014086166E-01  0.25450628396E-01  0.10378174841E+00  0.88704187472E+00  0.88000000000E+00 0.  1.
        -11    1    4    4    0    0 -0.27170455766E-01 -0.22094211695E-01 -0.76101054371E-01  0.83773620277E-01  0.51100000000E-03 0. -1.
         11    1    4    4    0    0 -0.11382012115E-01 -0.20900262521E-01 -0.42850019778E-01  0.49017920082E-01  0.51100000000E-03 0.  1.
</event>
<event>
 8    1  0.1088270E+005  0.1043930E+01  0.7957747E-01            NaN
         13   -1    0    0    0    0  0.00000000000E+00  0.00000000000E+00  0.74505805969E-08  0.10566000000E+00  0.10566000000E+00 0.  1.
     999900   -1    0    0    0    0 -0.00000000000E+00 -0.00000000000E+00 -0.74505805969E-08  0.93827000000E+00  0.93827000000E+00 0.  1.
     999902    2    1    2    0    0 -0.22596651746E-01 -0.68414083019E-02 -0.14144130116E-02  0.10202780635E+01  0.10200038788E+01 0.  0.
     999903    2    3    3    0    0 -0.10887868568E+00 -0.72368650142E-01 -0.17793179832E-01  0.13348233005E+00  0.20227344584E-01 0.  0.
         14    1    1    2    0    0  0.22596651746E-01  0.68414083019E-02  0.14144130116E-02  0.23651936535E-01  0.00000000000E+00 0.  1.
     999901    1    3    3    0    0  0.86282033930E-01  0.65527241841E-01  0.16378766820E-01  0.88679573342E+00  0.88000000000E+00 0. -1.
        -11    1    4    4    0    0 -0.99464988368E-01 -0.63323545859E-01 -0.10156880438E-01  0.11834939253E+00  0.51100000000E-03 0.  1.
         11    1    4    4    0    0 -0.94136973078E-02 -0.90451042838E-02 -0.76362993939E-02  0.15132937519E-01  0.51100000000E-03 0. -1.
</event>
<event>
 8    1  0.1088270E+005  0.1043930E+01  0.7957747E-01            NaN
         13   -1    0    0    0    0  0.00000000000E+00  0.00000000000E+00  0.74505805969E-08  0.10566000000E+00  0.10566000000E+00 0. -1.
     999900   -1    0    0    0    0 -0.00000000000E+00 -0.00000000000E+00 -0.74505805969E-08  0.93827000000E+00  0.93827000000E+00 0.  1.
     999902    2    1    2    0    0  0.13517092896E-01 -0.16561379904E-01  0.94081028239E-02  0.10205739836E+01  0.10203066953E+01 0.  0.
     999903    2    3    3    0    0 -0.82280477681E-01 -0.86295021447E-01 -0.49584492869E-01  0.13067506704E+00  0.20011083920E-01 0.  0.
         14    1    1    2    0    0 -0.13517092896E-01  0.16561379904E-01 -0.94081028239E-02  0.23356016429E-01  0.00000000000E+00 0. -1.
     999901    1    3    3    0    0  0.95797570577E-01  0.69733641543E-01  0.58992595693E-01  0.88989891653E+00  0.88000000000E+00 0. -1.
        -11    1    4    4    0    0 -0.61119489335E-01 -0.75043851823E-01 -0.42260606525E-01  0.10560961915E+00  0.51100000000E-03 0. -1.
         11    1    4    4    0    0 -0.21160988346E-01 -0.11251169624E-01 -0.73238863434E-02  0.25065447888E-01  0.51100000000E-03 0.  1.
</event>
<event>
 8    1  0.1088270E+005  0.1043930E+01  0.7957747E-01            NaN
         13   -1    0    0    0    0  0.00000000000E+00  0.00000000000E+00  0.74505805969E-08  0.10566000000E+00  0.10566000000E+00 0.  1.
     999900   -1    0    0    0    0 -0.00000000000E+00 -0.00000000000E+00 -0.74505805969E-08  0.93827000000E+00  0.93827000000E+00 0. -1.
     999902    2    1    2    0    0 -0.76194878761E-02 -0.29906702744E-02 -0.25870877918E-01  0.10167950958E+01  0.10164329608E+01 0.  0.
     999903    2    3    3    0    0  0.10308818845E-01  0.11484918395E+00  0.46063538304E-01  0.12585053201E+00  0.20491462781E-01 0.  0.
         14    1    1    2    0    0  0.76194878761E-02  0.29906702744E-02  0.25870877918E-01  0.27134904246E-01  0.00000000000E+00 0.  1.
     999901    1    3    3    0    0 -0.17928306721E-01 -0.11783985422E+00 -0.71934416223E-01  0.89094456374E+00  0.88000000000E+00 0. -1.
        -11    1    4    4    0    0  0.97553792208E-03  0.66129752133E-01  0.16742187026E-01  0.68225052135E-01  0.51100000000E-03 0. -1.
         11    1    4    4    0    0  0.93332809233E-02  0.48719431815E-01  0.29321351279E-01  0.57625479876E-01  0.51100000000E-03 0.  1.
</event>
<event>
 8    1  0.1088270E+005  0.1043930E+01  0.7957747E-01            NaN
         13   -1    0    0    0    0  0.00000000000E+00  0.00000000000E+00  0.74505805969E-08  0.10566000000E+00  0.10566000000E+00 0. -1.
     999900   -1    0    0    0    0 -0.00000000000E+00 -0.00000000000E+00 -0.74505805969E-08  0.93827000000E+00  0.93827000000E+00 0. -1.
     999902    2    1    2    0    0 -0.13296118379E-01  0.73225990337E-02 -0.17141321324E-01  0.10210338842E+01  0.10207771356E+01 0.  0.
     999903    2    3    3    0    0 -0.20312121504E-01 -0.12565957698E+00 -0.22834198918E-01  0.13099686686E+00  0.20877426051E-01 0.  0.
         14    1    1    2    0    0  0.13296118379E-01 -0.73225990337E-02  0.17141321324E-01  0.22896115769E-01  0.00000000000E+00 0. -1.
     999901    1    3    3    0    0  0.70160031251E-02  0.13298217602E+00  0.56928775941E-02  0.89003701737E+00  0.88000000000E+00 0. -1.
        -11    1    4    4    0    0 -0.67838296965E-02 -0.94413519404E-01 -0.20579309643E-01  0.96869510673E-01  0.51100000000E-03 0. -1.
         11    1    4    4    0    0 -0.13528291808E-01 -0.31246057581E-01 -0.22548892751E-02  0.34127356186E-01  0.51100000000E-03 0.  1.
</event>
<event>
 8    1  0.1088270E+005  0.1043930E+01  0.7957747E-01            NaN
         13   -1    0    0    0    0  0.00000000000E+00  0.00000000000E+00  0.74505805969E-08  0.10566000000E+00  0.10566000000E+00 0. -1.
     999900   -1    0    0    0    0 -0.00000000000E+00 -0.00000000000E+00 -0.74505805969E-08  0.93827000000E+00  0.93827000000E+00 0.  1.
     999902    2    1    2    0    0 -0.12773772918E-01  0.14275889491E-01 -0.14516282812E-01  0.10198947600E+01  0.10196115087E+01 0.  0.
     999903    2    3    3    0    0  0.96410839752E-01  0.84967841102E-01 -0.71741080991E-02  0.13030353972E+00  0.20321431858E-01 0.  0.
         14    1    1    2    0    0  0.12773772918E-01 -0.14275889491E-01  0.14516282812E-01  0.24035240003E-01  0.00000000000E+00 0.  1.
     999901    1    3    3    0    0 -0.10918461267E+00 -0.70691951611E-01 -0.73421747134E-02  0.88959122028E+00  0.88000000000E+00 0. -1.
        -11    1    4    4    0    0  0.55499851320E-01  0.36329298129E-01  0.58582145307E-04  0.66334877342E-01  0.51100000000E-03 0. -1.
         11    1    4    4    0    0  0.40910988433E-01  0.48638542973E-01 -0.72326902444E-02  0.63968662377E-01  0.51100000000E-03 0.  1.
</event>
<event>
 8    1  0.1088270E+005  0.1043930E+01  0.7957747E-01            NaN
         13   -1    0    0    0    0  0.00000000000E+00  0.00000000000E+00  0.74505805969E-08  0.10566000000E+00  0.10566000000E+00 0.  1.
     999900   -1    0    0    0    0 -0.00000000000E+00 -0.00000000000E+00 -0.74505805969E-08  0.93827000000E+00  0.93827000000E+00 0. -1.
     999902    2    1    2    0    0  0.28571910201E-02  0.20186079422E-01 -0.16411005294E-01  0.10177582129E+01  0.10174216518E+01 0.  0.
     999903    2    3    3    0    0 -0.84720819580E-01  0.71404439058E-01  0.62076258150E-01  0.12845878147E+00  0.19286926201E-01 0.  0.
         14    1    1    2    0    0 -0.28571910201E-02 -0.20186079422E-01  0.16411005294E-01  0.26171787056E-01  0.00000000000E+00 0.  1.
     999901    1    3    3    0    0  0.87578010600E-01 -0.51218359636E-01 -0.78487263444E-01  0.88929943148E+00  0.88000000000E+00 0. -1.
        -11    1    4    4    0    0 -0.80361631821E-01  0.60559392663E-01  0.53601661964E-01  0.11401241685E+00  0.51100000000E-03 0.  1.
         11    1    4    4    0    0 -0.43591877588E-02  0.10845046395E-01  0.84745961859E-02  0.14446364620E-01  0.51100000000E-03 0. -1.
</event>
<event>
 8    1  0.1088270E+005  0.1043930E+01  0.7957747E-01            NaN
         13   -1    0    0    0    0  0.00000000000E+00  0.00000000000E+00  0.74505805969E-08  0.10566000000E+00  0.10566000000E+00 0.  1.
     999900   -1    0    0    0    0 -0.00000000000E+00 -0.00000000000E+00 -0.74505805969E-08  0.93827000000E+00  0.93827000000E+00 0. -1.
     999902    2    1    2    0    0 -0.95672999486E-02  0.19148210609E-01  0.98077333314E-02  0.10203847493E+01  0.10201130613E+01 0.  0.
     999903    2    3    3    0    0  0.13076403273E-01  0.93752417506E-01 -0.88490735533E-01  0.13148592830E+00  0.22303160190E-01 0.  0.
         14    1    1    2    0    0  0.95672999486E-02 -0.19148210609E-01 -0.98077333314E-02  0.23545250709E-01  0.00000000000E+00 0.  1.
     999901    1    3    3    0    0 -0.22643703221E-01 -0.74604206897E-01  0.98298468864E-01  0.88889882099E+00  0.88000000000E+00 0.  1.
        -11    1    4    4    0    0  0.11382574252E-01  0.26108943808E-01 -0.35639903146E-01  0.45625691892E-01  0.51100000000E-03 0. -1.
         11    1    4    4    0    0  0.16938290212E-02  0.67643473698E-01 -0.52850832386E-01  0.85860236406E-01  0.51100000000E-03 0.  1.
</event>
<event>
 7    1  0.1357287E+005  0.1043930E+01  0.7957747E-01            NaN
         13   -1    0    0    0    0  0.00000000000E+00  0.00000000000E+00  0.74505805969E-08  0.10566000000E+00  0.10566000000E+00 0. -1.
     999900   -1    0    0    0    0 -0.00000000000E+00 -0.00000000000E+00 -0.74505805969E-08  0.93827000000E+00  0.93827000000E+00 0. -1.
     999903    2    1    2    0    0 -0.34026803418E-01 -0.14563697388E-01  0.10009694112E+00  0.10855540681E+00  0.19873451989E-01 0.  0.
         14    1    1    2    0    0 -0.82264030108E-02 -0.28196994378E-01  0.32056904414E-01  0.43478607602E-01  0.00000000000E+00 0. -1.
     999901    1    1    2    0    0  0.42253206429E-01  0.42760691765E-01 -0.13215384553E+00  0.89189598559E+00  0.88000000000E+00 0. -1.
        -11    1    3    3    0    0 -0.85511370394E-02 -0.73901902127E-02  0.55933189104E-01  0.57065923460E-01  0.51100000000E-03 0. -1.
         11    1    3    3    0    0 -0.25475666379E-01 -0.71735071750E-02  0.44163752017E-01  0.51489483352E-01  0.51100000000E-03 0.  1.
</event>
<event>
 8    1  0.1088270E+005  0.1043930E+01  0.7957747E-01            NaN
         13   -1    0    0    0    0  0.00000000000E+00  0.00000000000E+00  0.74505805969E-08  0.10566000000E+00  0.10566000000E+00 0.  1.
     999900   -1    0    0    0    0 -0.00000000000E+00 -0.00000000000E+00 -0.74505805969E-08  0.93827000000E+00  0.93827000000E+00 0.  1.
     999902    2    1    2    0    0  0.84992713327E-02 -0.33171653545E-02 -0.19170247673E-01  0.10226993713E+01  0.10224789800E+01 0.  0.
     999903    2    3    3    0    0 -0.12305701276E+00 -0.11824212698E-01 -0.43428886184E-01  0.13254887432E+00  0.20007386936E-01 0.  0.
         14    1    1    2    0    0 -0.84992713327E-02  0.33171653545E-02  0.19170247673E-01  0.21230628701E-01  0.00000000000E+00 0.  1.
     999901    1    3    3    0    0  0.13155628409E+00  0.85070473437E-02  0.24258638511E-01  0.89015049698E+00  0.88000000000E+00 0. -1.
        -11    1    4    4    0    0 -0.18409352963E-01 -0.72492161044E-02 -0.12175150916E-01  0.23236842115E-01  0.51100000000E-03 0.  1.
         11    1    4    4    0    0 -0.10464765980E+00 -0.45749965938E-02 -0.31253735268E-01  0.10931203220E+00  0.51100000000E-03 0. -1.
</event>
<event>
 8    1  0.1088270E+005  0.1043930E+01  0.7957747E-01            NaN
         13   -1    0    0    0    0  0.00000000000E+00  0.00000000000E+00  0.74505805969E-08  0.10566000000E+00  0.10566000000E+00 0. -1.
     999900   -1    0    0    0    0 -0.00000000000E+00 -0.00000000000E+00 -0.74505805969E-08  0.93827000000E+00  0.93827000000E+00 0.  1.
     999902    2    1    2    0    0 -0.37952130138E-02  0.16180724487E-01  0.17151991047E-01  0.10200467363E+01  0.10197670979E+01 0.  0.
     999903    2    3    3    0    0 -0.78562398326E-01  0.97993983798E-01  0.38231550989E-01  0.13284445429E+00  0.20276248529E-01 0.  0.
         14    1    1    2    0    0  0.37952130138E-02 -0.16180724487E-01 -0.17151991047E-01  0.23883263672E-01  0.00000000000E+00 0.  1.
     999901    1    3    3    0    0  0.74767185312E-01 -0.81813259312E-01 -0.21079559942E-01  0.88720228203E+00  0.88000000000E+00 0. -1.
        -11    1    4    4    0    0 -0.72607724132E-01  0.94350253173E-01  0.31542787199E-01  0.12316273959E+00  0.51100000000E-03 0. -1.
         11    1    4    4    0    0 -0.59546741939E-02  0.36437306252E-02  0.66887637902E-02  0.96817147068E-02  0.51100000000E-03 0.  1.
</event>
<event>
 8    1  0.1088270E+005  0.1043930E+01  0.7957747E-01            NaN
         13   -1    0    0    0    0  0.00000000000E+00  0.00000000000E+00  0.74505805969E-08  0.10566000000E+00  0.10566000000E+00 0.  1.
     999900   -1    0    0    0    0 -0.00000000000E+00 -0.00000000000E+00 -0.74505805969E-08  0.93827000000E+00  0.93827000000E+00 0. -1.
     999902    2    1    2    0    0 -0.18188498417E-01 -0.74927388228E-02  0.13591712844E-01  0.10200198083E+01  0.10197395315E+01 0.  0.
     999903    2    3    3    0    0  0.27704159582E-01  0.58854195233E-01 -0.10843224571E+00  0.12794475641E+00  0.19518504769E-01 0.  0.
         14    1    1    2    0    0  0.18188498417E-01  0.74927388228E-02 -0.13591712844E-01  0.23910191713E-01  0.00000000000E+00 0. -1.
     999901    1    3    3    0    0 -0.45892657999E-01 -0.66346934055E-01  0.12202395856E+00  0.89207505188E+00  0.88000000000E+00 0.  1.
        -11    1    4    4    0    0  0.62530254249E-02  0.78368343568E-02 -0.65098422815E-02  0.11964759389E-01  0.51100000000E-03 0.  1.
         11    1    4    4    0    0  0.21451134157E-01  0.51017360876E-01 -0.10192240343E+00  0.11597999702E+00  0.51100000000E-03 0. -1.
</event>
<event>
 8    1  0.1088270E+005  0.1043930E+01  0.7957747E-01            NaN
         13   -1    0    0    0    0  0.00000000000E+00  0.00000000000E+00  0.74505805969E-08  0.10566000000E+00  0.10566000000E+00 0.  1.
     999900   -1    0    0    0    0 -0.00000000000E+00 -0.00000000000E+00 -0.74505805969E-08  0.93827000000E+00  0.93827000000E+00 0. -1.
     999902    2    1    2    0    0 -0.18636696483E-01 -0.13603831110E-01  0.41411956355E-03  0.10208526914E+01  0.10205918162E+01 0.  0.
     999903    2    3    3    0    0 -0.52773110313E-01  0.49357045282E-01 -0.10801661903E+00  0.13130977970E+00  0.18802903162E-01 0.  0.
         14    1    1    2    0    0  0.18636696483E-01  0.13603831110E-01 -0.41411956355E-03  0.23077308589E-01  0.00000000000E+00 0.  1.
     999901    1    3    3    0    0  0.34136413830E-01 -0.62960876392E-01  0.10843073859E+00  0.88954291171E+00  0.88000000000E+00 0.  1.
        -11    1    4    4    0    0 -0.37515377086E-01  0.36362115642E-01 -0.91360012040E-01  0.10524504688E+00  0.51100000000E-03 0.  1.
         11    1    4    4    0    0 -0.15257733227E-01  0.12994929640E-01 -0.16656606988E-01  0.26064732819E-01  0.51100000000E-03 0. -1.
</event>
<event>
 8    1  0.1088270E+005  0.1043930E+01  0.7957747E-01            NaN
         13   -1    0    0    0    0  0.00000000000E+00  0.00000000000E+00  0.74505805969E-08  0.10566000000E+00  0.10566000000E+00 0. -1.
     999900   -1    0    0    0    0 -0.00000000000E+00 -0.00000000000E+00 -0.74505805969E-08  0.93827000000E+00  0.93827000000E+00 0. -1.
     999902    2    1    2    0    0  0.40808227053E-02  0.16115077720E-01 -0.17137916550E-01  0.10200541329E+01  0.10197746698E+01 0.  0.
     999903    2    3    3    0    0 -0.64391842192E-01  0.10823396390E-01 -0.11193384985E+00  0.13230260425E+00  0.26670903586E-01 0.  0.
         14    1    1    2    0    0 -0.40808227053E-02 -0.16115077720E-01  0.17137916550E-01  0.23875867054E-01  0.00000000000E+00 0. -1.
     999901    1    3    3    0    0  0.68472664897E-01  0.52916813301E-02  0.94795933304E-01  0.88775152870E+00  0.88000000000E+00 0.  1.
        -11    1    4    4    0    0 -0.37297555415E-02  0.90848072885E-02 -0.14880747097E-01  0.17836551097E-01  0.51100000000E-03 0.  1.
         11    1    4    4    0    0 -0.60662086650E-01  0.17385891019E-02 -0.97053102758E-01  0.11446605315E+00  0.51100000000E-03 0. -1.
</event>
<event>
 8    1  0.1088270E+005  0.1043930E+01  0.7957747E-01            NaN
         13   -1    0    0    0    0  0.00000000000E+00  0.00000000000E+00  0.74505805969E-08  0.10566000000E+00  0.10566000000E+00 0. -1.
     999900   -1    0    0    0    0 -0.00000000000E+00 -0.00000000000E+00 -0.74505805969E-08  0.93827000000E+00  0.93827000000E+00 0. -1.
     999902    2    1    2    0    0 -0.10078659420E-01 -0.15303251172E-02 -0.22501431041E-01  0.10192270514E+01  0.10189276454E+01 0.  0.
     999903    2    3    3    0    0  0.97917525641E-01 -0.41096794528E-01 -0.73198579245E-01  0.13029573666E+00  0.18497530647E-01 0.  0.
         14    1    1    2    0    0  0.10078659420E-01  0.15303251172E-02  0.22501431041E-01  0.24702948600E-01  0.00000000000E+00 0. -1.
     999901    1    3    3    0    0 -0.10799618506E+00  0.39566469411E-01  0.50697148204E-01  0.88893131474E+00  0.88000000000E+00 0.  1.
        -11    1    4    4    0    0  0.36499073385E-01 -0.21832155212E-01 -0.21078307445E-01  0.47469795922E-01  0.51100000000E-03 0.  1.
         11    1    4    4    0    0  0.61418452257E-01 -0.19264639316E-01 -0.52120271800E-01  0.82825940738E-01  0.51100000000E-03 0. -1.
</event>
<event>
 8    1  0.1088270E+005  0.1043930E+01  0.7957747E-01            NaN
         13   -1    0    0    0    0  0.00000000000E+00  0.00000000000E+00  0.74505805969E-08  0.10566000000E+00  0.10566000000E+00 0.  1.
     999900   -1    0    0    0    0 -0.00000000000E+00 -0.00000000000E+00 -0.74505805969E-08  0.93827000000E+00  0.93827000000E+00 0.  1.
     999902    2    1    2    0    0 -0.22752310999E-01 -0.42850299839E-02 -0.28081198248E-02  0.10206080216E+01  0.10203415208E+01 0.  0.
     999903    2    3    3    0    0  0.15164813030E-02  0.15702990406E-01  0.12785614188E+00  0.13040487374E+00  0.20232509883E-01 0.  0.
         14    1    1    2    0    0  0.22752310999E-01  0.42850299839E-02  0.28081198248E-02  0.23321978361E-01  0.00000000000E+00 0.  1.
     999901    1    3    3    0    0 -0.24268792302E-01 -0.19988020390E-01 -0.13066426170E+00  0.89020314790E+00  0.88000000000E+00 0.  1.
        -11    1    4    4    0    0 -0.50242788040E-03 -0.10837739774E-02  0.72735643141E-01  0.72747246711E-01  0.51100000000E-03 0. -1.
         11    1    4    4    0    0  0.20189091834E-02  0.16786764383E-01  0.55120498738E-01  0.57657627031E-01  0.51100000000E-03 0.  1.
</event>
<event>
 8    1  0.1088270E+005  0.1043930E+01  0.7957747E-01            NaN
         13   -1    0    0    0    0  0.00000000000E+00  0.00000000000E+00  0.74505805969E-08  0.10566000000E+00  0.10566000000E+00 0. -1.
     999900   -1    0    0    0    0 -0.00000000000E+00 -0.00000000000E+00 -0.74505805969E-08  0.93827000000E+00  0.93827000000E+00 0. -1.
     999902    2    1    2    0    0  0.13430447296E-01  0.11271076171E-02 -0.19289322347E-01  0.10203986328E+01  0.10201272688E+01 0.  0.
     999903    2    3    3    0    0  0.31819179832E-01 -0.11141760112E+00 -0.60060918254E-01  0.13210432346E+00  0.20442512873E-01 0.  0.
         14    1    1    2    0    0 -0.13430447296E-01 -0.11271076171E-02  0.19289322347E-01  0.23531367210E-01  0.00000000000E+00 0. -1.
     999901    1    3    3    0    0 -0.18388732536E-01  0.11254470873E+00  0.40771595907E-01  0.88829430933E+00  0.88000000000E+00 0.  1.
        -11    1    4    4    0    0  0.13524144025E-01 -0.81290343419E-01 -0.42368521352E-01  0.92662695446E-01  0.51100000000E-03 0. -1.
         11    1    4    4    0    0  0.18295035807E-01 -0.30127257698E-01 -0.17692396901E-01  0.39441628018E-01  0.51100000000E-03 0.  1.
</event>
<event>
 8    1  0.1088270E+005  0.1043930E+01  0.7957747E-01            NaN
         13   -1    0    0    0    0  0.00000000000E+00  0.00000000000E+00  0.74505805969E-08  0.10566000000E+00  0.10566000000E+00 0.  1.
     999900   -1    0    0    0    0 -0.00000000000E+00 -0.00000000000E+00 -0.74505805969E-08  0.93827000000E+00  0.93827000000E+00 0. -1.
     999902    2    1    2    0    0 -0.58170547969E-02 -0.20321678541E-01  0.12149599620E-01  0.10195492388E+01  0.10192576852E+01 0.  0.
     999903    2    3    3    0    0 -0.12576163869E+00  0.14202462239E-01  0.26694987907E-01  0.13062281451E+00  0.18220801031E-01 0.  0.
         14    1    1    2    0    0  0.58170547969E-02  0.20321678541E-01 -0.12149599620E-01  0.24380761189E-01  0.00000000000E+00 0. -1.
     999901    1    3    3    0    0  0.11994458390E+00 -0.34524140780E-01 -0.14545388287E-01  0.88892642430E+00  0.88000000000E+00 0. -1.
        -11    1    4    4    0    0 -0.54078817000E-01  0.12945978915E-01  0.56122505227E-02  0.55891638866E-01  0.51100000000E-03 0. -1.
         11    1    4    4    0    0 -0.71682821693E-01  0.12564833244E-02  0.21082737385E-01  0.74731175643E-01  0.51100000000E-03 0.  1.
</event>
<event>
 8    1  0.1088270E+005  0.1043930E+01  0.7957747E-01            NaN
         13   -1    0    0    0    0  0.00000000000E+00  0.00000000000E+00  0.74505805969E-08  0.10566000000E+00  0.10566000000E+00 0.  1.
     999900   -1    0    0    0    0 -0.00000000000E+00 -0.00000000000E+00 -0.74505805969E-08  0.93827000000E+00  0.93827000000E+00 0. -1.
     999902    2    1    2    0    0  0.13990591626E-01 -0.61593368110E-02  0.17867338756E-01  0.10204158366E+01  0.10201448739E+01 0.  0.
     999903    2    3    3    0    0  0.21634223502E-01 -0.13368682544E-01  0.12945309046E+00  0.13330717377E+00  0.19129522926E-01 0.  0.
         14    1    1    2    0    0 -0.13990591626E-01  0.61593368110E-02 -0.17867338756E-01  0.23514163353E-01  0.00000000000E+00 0. -1.
     999901    1    3    3    0    0 -0.76436318760E-02  0.72093457329E-02 -0.11158575171E+00  0.88710866288E+00  0.88000000000E+00 0. -1.
        -11    1    4    4    0    0  0.16572296271E-01  0.89585021524E-03  0.63153034491E-01  0.65299390792E-01  0.51100000000E-03 0. -1.
         11    1    4    4    0    0  0.50619272307E-02 -0.14264532759E-01  0.66300055972E-01  0.68007782974E-01  0.51100000000E-03 0.  1.
</event>
<event>
 8    1  0.1088270E+005  0.1043930E+01  0.7957747E-01            NaN
         13   -1    0    0    0    0  0.00000000000E+00  0.00000000000E+00  0.74505805969E-08  0.10566000000E+00  0.10566000000E+00 0.  1.
     999900   -1    0    0    0    0 -0.00000000000E+00 -0.00000000000E+00 -0.74505805969E-08  0.93827000000E+00  0.93827000000E+00 0.  1.
     999902    2    1    2    0    0 -0.81655165595E-02  0.22889332456E-01  0.28552206983E-03  0.10196261171E+01  0.10193364214E+01 0.  0.
     999903    2    3    3    0    0  0.35196539274E-01 -0.11155190275E+00  0.45653255366E-01  0.12720640372E+00  0.20362368152E-01 0.  0.
         14    1    1    2    0    0  0.81655165595E-02 -0.22889332456E-01 -0.28552206983E-03  0.24303882896E-01  0.00000000000E+00 0. -1.
     999901    1    3    3    0    0 -0.43362055834E-01  0.13444123521E+00 -0.45367733296E-01  0.89241971338E+00  0.88000000000E+00 0. -1.
        -11    1    4    4    0    0  0.24744756244E-01 -0.58340383913E-01  0.33287860097E-01  0.71583839709E-01  0.51100000000E-03 0.  1.
         11    1    4    4    0    0  0.10451783030E-01 -0.53211518842E-01  0.12365395269E-01  0.55622564011E-01  0.51100000000E-03 0. -1.
</event>
<event>
 8    1  0.1088270E+005  0.1043930E+01  0.7957747E-01            NaN
         13   -1    0    0    0    0  0.00000000000E+00  0.00000000000E+00  0.74505805969E-08  0.10566000000E+00  0.10566000000E+00 0.  1.
     999900   -1    0    0    0    0 -0.00000000000E+00 -0.00000000000E+00 -0.74505805969E-08  0.93827000000E+00  0.93827000000E+00 0. -1.
     999902    2    1    2    0    0 -0.14942919103E-01 -0.20004688696E-01 -0.15968066067E-02  0.10189094446E+01  0.10186021933E+01 0.  0.
     999903    2    3    3    0    0 -0.87102044617E-01  0.28864834512E-02  0.94927278974E-01  0.13040066904E+00  0.19951146050E-01 0.  0.
         14    1    1    2    0    0  0.14942919103E-01  0.20004688696E-01  0.15968066067E-02  0.25020555399E-01  0.00000000000E+00 0.  1.
     999901    1    3    3    0    0  0.72159125514E-01 -0.22891172147E-01 -0.96524085581E-01  0.88850877556E+00  0.88000000000E+00 0. -1.
        -11    1    4    4    0    0 -0.46774621617E-01  0.27163034367E-03  0.65131529912E-01  0.80189253146E-01  0.51100000000E-03 0.  1.
         11    1    4    4    0    0 -0.40327423000E-01  0.26148531076E-02  0.29795749062E-01  0.50211415890E-01  0.51100000000E-03 0. -1.
</event>
<event>
 8    1  0.1088270E+005  0.1043930E+01  0.7957747E-01            NaN
         13   -1    0    0    0    0  0.00000000000E+00  0.00000000000E+00  0.74505805969E-08  0.10566000000E+00  0.10566000000E+00 0.  1.
     999900   -1    0    0    0    0 -0.00000000000E+00 -0.00000000000E+00 -0.74505805969E-08  0.93827000000E+00  0.93827000000E+00 0.  1.
     999902    2    1    2    0    0 -0.96579110570E-02 -0.64177598432E-02 -0.18165723404E-01  0.10223787496E+01  0.10221515794E+01 0.  0.
     999903    2    3    3    0    0 -0.12056062465E+00  0.32118663761E-01 -0.45144539813E-01  0.13417138396E+00  0.19936349265E-01 0.  0.
         14    1    1    2    0    0  0.96579110570E-02  0.64177598432E-02  0.18165723404E-01  0.21551250409E-01  0.00000000000E+00 0.  1.
     999901    1    3    3    0    0  0.11090271359E+00 -0.38536423604E-01  0.26978816409E-01  0.88820736563E+00  0.88000000000E+00 0. -1.
        -11    1    4    4    0    0 -0.54247835973E-01  0.14485690162E-01 -0.30892307839E-01  0.64087898482E-01  0.51100000000E-03 0. -1.
         11    1    4    4    0    0 -0.66312788673E-01  0.17632973598E-01 -0.14252231974E-01  0.70083485478E-01  0.51100000000E-03 0.  1.
</event>
<event>
 8    1  0.1088270E+005  0.1043930E+01  0.7957747E-01            NaN
         13   -1    0    0    0    0  0.00000000000E+00  0.00000000000E+00  0.74505805969E-08  0.10566000000E+00  0.10566000000E+00 0.  1.
     999900   -1    0    0    0    0 -0.00000000000E+00 -0.00000000000E+00 -0.74505805969E-08  0.93827000000E+00  0.93827000000E+00 0.  1.
     999902    2    1    2    0    0 -0.30173582651E-02  0.23073171741E-01  0.96751945036E-03  0.10206402641E+01  0.10203745081E+01 0.  0.
     999903    2    3    3    0    0  0.47041822041E-01 -0.11726188178E+00  0.89824677616E-02  0.12807985259E+00  0.18986362809E-01 0.  0.
         14    1    1    2    0    0  0.30173582651E-02 -0.23073171741E-01 -0.96751945036E-03  0.23289735915E-01  0.00000000000E+00 0.  1.
     999901    1    3    3    0    0 -0.50059180306E-01  0.14033505352E+00 -0.80149483112E-02  0.89256041150E+00  0.88000000000E+00 0. -1.
        -11    1    4    4    0    0  0.37545574871E-01 -0.84889168866E-01  0.14315341823E-01  0.93920345590E-01  0.51100000000E-03 0.  1.
         11    1    4    4    0    0  0.94962471700E-02 -0.32372712910E-01 -0.53328740616E-02  0.34159506996E-01  0.51100000000E-03 0. -1.
</event>
<event>
 8    1  0.1088270E+005  0.1043930E+01  0.7957747E-01            NaN
         13   -1    0    0    0    0  0.00000000000E+00  0.00000000000E+00  0.74505805969E-08  0.10566000000E+00  0.10566000000E+00 0. -1.
     999900   -1    0    0    0    0 -0.00000000000E+00 -0.00000000000E+00 -0.74505805969E-08  0.93827000000E+00  0.93827000000E+00 0. -1.
     999902    2    1    2    0    0 -0.29483874747E-02  0.22739238090E-01  0.52443241857E-02  0.10204083318E+01  0.10201371941E+01 0.  0.
     999903    2    3    3    0    0 -0.12223810495E+00 -0.35703277578E-01  0.18680413641E-01  0.13033749597E+00  0.20543287760E-01 0.  0.
         14    1    1    2    0    0  0.29483874747E-02 -0.22739238090E-01 -0.52443241857E-02  0.23521668176E-01  0.00000000000E+00 0.  1.
     999901    1    3    3    0    0  0.11928971747E+00  0.58442515669E-01 -0.13436089455E-01  0.89007083585E+00  0.88000000000E+00 0. -1.
        -11    1    4    4    0    0 -0.30995270907E-01 -0.18588996613E-01  0.59884327718E-02  0.36638505179E-01  0.51100000000E-03 0.  1.
         11    1    4    4    0    0 -0.91242834039E-01 -0.17114280966E-01  0.12691980869E-01  0.93698990794E-01  0.51100000000E-03 0. -1.
</event>
<event>
 8    1  0.1088270E+005  0.1043930E+01  0.7957747E-01            NaN
         13   -1    0    0    0    0  0.00000000000E+00  0.00000000000E+00  0.74505805969E-08  0.10566000000E+00  0.10566000000E+00 0. -1.
     999900   -1    0    0    0    0 -0.00000000000E+00 -0.00000000000E+00 -0.74505805969E-08  0.93827000000E+00  0.93827000000E+00 0.  1.
     999902    2    1    2    0    0  0.85450763812E-02 -0.91903454324E-02 -0.85032827129E-03  0.10313520893E+01  0.10312753891E+01 0.  0.
     999903    2    3    3    0    0  0.11215352409E-01  0.10763572473E+00  0.85506661109E-01  0.13943673980E+00  0.20493461061E-01 0.  0.
         14    1    1    2    0    0 -0.85450763812E-02  0.91903454324E-02  0.85032827129E-03  0.12577910705E-01  0.00000000000E+00 0.  1.
     999901    1    3    3    0    0 -0.26702760275E-02 -0.11682607016E+00 -0.86356989380E-01  0.89191534949E+00  0.88000000000E+00 0.  1.
        -11    1    4    4    0    0 -0.26311278420E-02  0.47658744785E-01  0.28847477539E-01  0.55773800924E-01  0.51100000000E-03 0. -1.
         11    1    4    4    0    0  0.13846480251E-01  0.59976979941E-01  0.56659183570E-01  0.83662938880E-01  0.51100000000E-03 0.  1.
</event>
<event>
 8    1  0.1088270E+005  0.1043930E+01  0.7957747E-01            NaN
         13   -1    0    0    0    0  0.00000000000E+00  0.00000000000E+00  0.74505805969E-08  0.10566000000E+00  0.10566000000E+00 0. -1.
     999900   -1    0    0    0    0 -0.00000000000E+00 -0.00000000000E+00 -0.74505805969E-08  0.93827000000E+00  0.93827000000E+00 0.  1.
     999902    2    1    2    0    0  0.13070299942E-01  0.14233944680E-01 -0.14450543637E-01  0.10198000159E+01  0.10195145003E+01 0.  0.
     999903    2    3    3    0    0 -0.75560782643E-01  0.31044153997E-02 -0.10476096080E+00  0.13067949162E+00  0.19575529465E-01 0.  0.
         14    1    1    2    0    0 -0.13070299942E-01 -0.14233944680E-01  0.14450543637E-01  0.24129984109E-01  0.00000000000E+00 0.  1.
     999901    1    3    3    0    0  0.88631082586E-01  0.11129529280E-01  0.90310417168E-01  0.88912052427E+00  0.88000000000E+00 0. -1.
        -11    1    4    4    0    0 -0.23499190211E-02  0.30314971537E-02 -0.16183045577E-02  0.41942967277E-02  0.51100000000E-03 0.  1.
         11    1    4    4    0    0 -0.73210863622E-01  0.72918245978E-04 -0.10314265625E+00  0.12648519490E+00  0.51100000000E-03 0. -1.
</event>
<event>
 8    1  0.1088270E+005  0.1043930E+01  0.7957747E-01            NaN
         13   -1    0    0    0    0  0.00000000000E+00  0.00000000000E+00  0.74505805969E-08  0.10566000000E+00  0.10566000000E+00 0. -1.
     999900   -1    0    0    0    0 -0.00000000000E+00 -0.00000000000E+00 -0.74505805969E-08  0.93827000000E+00  0.93827000000E+00 0.  1.
     999902    2    1    2    0    0 -0.84912394530E-02 -0.20122399206E-01  0.70053185198E-02  0.10209934226E+01  0.10207357554E+01 0.  0.
     999903    2    3    3    0    0  0.12158152133E+00  0.20963493484E-01 -0.34437391934E-01  0.12952021941E+00  0.19183818289E-01 0.  0.
         14    1    1    2    0    0  0.84912394530E-02  0.20122399206E-01 -0.70053185198E-02  0.22936577443E-01  0.00000000000E+00 0. -1.
     999901    1    3    3    0    0 -0.13007276079E+00 -0.41085892690E-01  0.41442710454E-01  0.89147320315E+00  0.88000000000E+00 0.  1.
        -11    1    4    4    0    0  0.85642387366E-01  0.21875189854E-01 -0.29729202706E-01  0.93258935547E-01  0.51100000000E-03 0.  1.
         11    1    4    4    0    0  0.35939133968E-01 -0.91169637031E-03 -0.47081892280E-02  0.36261283864E-01  0.51100000000E-03 0. -1.
</event>
<event>
 8    1  0.1088270E+005  0.1043930E+01  0.7957747E-01            NaN
         13   -1    0    0    0    0  0.00000000000E+00  0.00000000000E+00  0.74505805969E-08  0.10566000000E+00  0.10566000000E+00 0.  1.
     999900   -1    0    0    0    0 -0.00000000000E+00 -0.00000000000E+00 -0.74505805969E-08  0.93827000000E+00  0.93827000000E+00 0. -1.
     999902    2    1    2    0    0  0.14556276727E-01  0.13818286682E-01 -0.12836399179E-01  0.10201055717E+01  0.10198273256E+01 0.  0.
     999903    2    3    3    0    0 -0.48910699884E-01  0.40594478594E-01  0.11034089703E+00  0.12886056171E+00  0.19742404891E-01 0.  0.
         14    1    1    2    0    0 -0.14556276727E-01 -0.13818286682E-01  0.12836399179E-01  0.23824428280E-01  0.00000000000E+00 0.  1.
     999901    1    3    3    0    0  0.63466976611E-01 -0.26776191912E-01 -0.12317729621E+00  0.89124501001E+00  0.88000000000E+00 0. -1.
        -11    1    4    4    0    0 -0.10799551279E-01  0.11409946594E-02  0.26772685551E-01  0.28895847266E-01  0.51100000000E-03 0. -1.
         11    1    4    4    0    0 -0.38111148606E-01  0.39453483935E-01  0.83568211478E-01  0.99964714441E-01  0.51100000000E-03 0.  1.
</event>
<event>
 8    1  0.1088270E+005  0.1043930E+01  0.7957747E-01            NaN
         13   -1    0    0    0    0  0.00000000000E+00  0.00000000000E+00  0.74505805969E-08  0.10566000000E+00  0.10566000000E+00 0.  1.
     999900   -1    0    0    0    0 -0.00000000000E+00 -0.00000000000E+00 -0.74505805969E-08  0.93827000000E+00  0.93827000000E+00 0. -1.
     999902    2    1    2    0    0  0.16447876037E-01 -0.75109587565E-02 -0.14791960589E-01  0.10205687238E+01  0.10203013137E+01 0.  0.
     999903    2    3    3    0    0  0.41468641574E-01  0.43423254009E-02  0.12048192750E+00  0.12980188346E+00  0.24374783541E-01 0.  0.
         14    1    1    2    0    0 -0.16447876037E-01  0.75109587565E-02  0.14791960589E-01  0.23361276198E-01  0.00000000000E+00 0.  1.
     999901    1    3    3    0    0 -0.25020765537E-01 -0.11853284157E-01 -0.13527388809E+00  0.89076684034E+00  0.88000000000E+00 0. -1.
        -11    1    4    4    0    0  0.37515801432E-01  0.64958904758E-02  0.75169573531E-01  0.84263621190E-01  0.51100000000E-03 0. -1.
         11    1    4    4    0    0  0.39528401417E-02 -0.21535650749E-02  0.45312353966E-01  0.45538262270E-01  0.51100000000E-03 0.  1.
</event>
<event>
 8    1  0.1088270E+005  0.1043930E+01  0.7957747E-01            NaN
         13   -1    0    0    0    0  0.00000000000E+00  0.00000000000E+00  0.74505805969E-08  0.10566000000E+00  0.10566000000E+00 0. -1.
     999900   -1    0    0    0    0 -0.00000000000E+00 -0.00000000000E+00 -0.74505805969E-08  0.93827000000E+00  0.93827000000E+00 0.  1.
     999902    2    1    2    0    0 -0.31306259136E-02 -0.16939883070E-01  0.16457738427E-01  0.10201052731E+01  0.10198270200E+01 0.  0.
     999903    2    3    3    0    0  0.22023655690E-01 -0.88390661092E-02  0.12878892110E+00  0.13257124238E+00  0.20624684432E-01 0.  0.
         14    1    1    2    0    0  0.31306259136E-02  0.16939883070E-01 -0.16457738427E-01  0.23824726885E-01  0.00000000000E+00 0.  1.
     999901    1    3    3    0    0 -0.25154281603E-01 -0.81008169609E-02 -0.11233118267E+00  0.88753403074E+00  0.88000000000E+00 0.  1.
        -11    1    4    4    0    0  0.14819191691E-01 -0.12131978187E-01  0.52792529211E-01  0.56161424471E-01  0.51100000000E-03 0.  1.
         11    1    4    4    0    0  0.72044639988E-02  0.32929120776E-02  0.75996391887E-01  0.76409817906E-01  0.51100000000E-03 0. -1.
</event>
<event>
 8    1  0.1088270E+005  0.1043930E+01  0.7957747E-01            NaN
         13   -1    0    0    0    0  0.00000000000E+00  0.00000000000E+00  0.74505805969E-08  0.10566000000E+00  0.10566000000E+00 0. -1.
     999900   -1    0    0    0    0 -0.00000000000E+00 -0.00000000000E+00 -0.74505805969E-08  0.93827000000E+00  0.93827000000E+00 0.  1.
     999902    2    1    2    0    0  0.12951945969E-01 -0.16792122178E-01 -0.10843930714E-01  0.10201115386E+01  0.10198334335E+01 0.  0.
     999903    2    3    3    0    0 -0.85312744402E-01  0.73495045744E-01  0.56201904453E-01  0.12752940449E+00  0.20623017213E-01 0.  0.
         14    1    1    2    0    0 -0.12951945969E-01  0.16792122178E-01  0.10843930714E-01  0.23818461432E-01  0.00000000000E+00 0. -1.
     999901    1    3    3    0    0  0.98264690371E-01 -0.90287167922E-01 -0.67045835166E-01  0.89258213408E+00  0.88000000000E+00 0.  1.
        -11    1    4    4    0    0 -0.21566192753E-01  0.19525558376E-01  0.48991085543E-02  0.29506109289E-01  0.51100000000E-03 0. -1.
         11    1    4    4    0    0 -0.63746551649E-01  0.53969487367E-01  0.51302795898E-01  0.98023295200E-01  0.51100000000E-03 0.  1.
</event>
<event>
 8    1  0.1088270E+005  0.1043930E+01  0.7957747E-01            NaN
         13   -1    0    0    0    0  0.00000000000E+00  0.00000000000E+00  0.74505805969E-08  0.10566000000E+00  0.10566000000E+00 0.  1.
     999900   -1    0    0    0    0 -0.00000000000E+00 -0.00000000000E+00 -0.74505805969E-08  0.93827000000E+00  0.93827000000E+00 0. -1.
     999902    2    1    2    0    0 -0.14908011710E-01 -0.17447609984E-01 -0.23576497161E-02  0.10208599671E+01  0.10205992583E+01 0.  0.
     999903    2    3    3    0    0  0.95068865348E-01 -0.87193770184E-01 -0.21198357363E-01  0.13107661556E+00  0.95323698622E-02 0.  0.
         14    1    1    2    0    0  0.14908011710E-01  0.17447609984E-01  0.23576497161E-02  0.23070032932E-01  0.00000000000E+00 0. -1.
     999901    1    3    3    0    0 -0.10997687706E+00  0.69746160200E-01  0.18840707647E-01  0.88978335150E+00  0.88000000000E+00 0.  1.
        -11    1    4    4    0    0  0.87899212546E-01 -0.83304934113E-01 -0.20931606905E-01  0.12289986535E+00  0.51100000000E-03 0.  1.
         11    1    4    4    0    0  0.71696528020E-02 -0.38888360714E-02 -0.26675045800E-03  0.81767502162E-02  0.51100000000E-03 0. -1.
</event>
<event>
 8    1  0.1088270E+005  0.1043930E+01  0.7957747E-01            NaN
         13   -1    0    0    0    0  0.00000000000E+00  0.00000000000E+00  0.74505805969E-08  0.10566000000E+00  0.10566000000E+00 0.  1.
     999900   -1    0    0    0    0 -0.00000000000E+00 -0.00000000000E+00 -0.74505805969E-08  0.93827000000E+00  0.93827000000E+00 0.  1.
     999902    2    1    2    0    0  0.51277057611E-02  0.18973680338E-01  0.13766134093E-01  0.10199341595E+01  0.10196518472E+01 0.  0.
     999903    2    3    3    0    0  0.10322292913E+00  0.67379583623E-01 -0.40769597452E-01  0.13148610233E+00  0.20771462233E-01 0.  0.
         14    1    1    2    0    0 -0.51277057611E-02 -0.18973680338E-01 -0.13766134093E-01  0.23995840469E-01  0.00000000000E+00 0. -1.
     999901    1    3    3    0    0 -0.98095223369E-01 -0.48405903284E-01  0.54535731546E-01  0.88844805720E+00  0.88000000000E+00 0.  1.
        -11    1    4    4    0    0  0.42778496891E-01  0.40249565510E-01 -0.20021933498E-01  0.62057765526E-01  0.51100000000E-03 0.  1.
         11    1    4    4    0    0  0.60444432239E-01  0.27130018112E-01 -0.20747663955E-01  0.69428336809E-01  0.51100000000E-03 0. -1.
</event>
<event>
 8    1  0.1088270E+005  0.1043930E+01  0.7957747E-01            NaN
         13   -1    0    0    0    0  0.00000000000E+00  0.00000000000E+00  0.74505805969E-08  0.10566000000E+00  0.10566000000E+00 0. -1.
     999900   -1    0    0    0    0 -0.00000000000E+00 -0.00000000000E+00 -0.74505805969E-08  0.93827000000E+00  0.93827000000E+00 0. -1.
     999902    2    1    2    0    0 -0.93997033144E-02 -0.16943889595E-01 -0.12882719961E-01  0.10206616891E+01  0.10203964276E+01 0.  0.
     999903    2    3    3    0    0  0.11801244181E+00  0.23195769192E-01 -0.45471951202E-01  0.12998379846E+00  0.19055429334E-01 0.  0.
         14    1    1    2    0    0  0.93997033144E-02  0.16943889595E-01  0.12882719961E-01  0.23268310867E-01  0.00000000000E+00 0. -1.
     999901    1    3    3    0    0 -0.12741214512E+00 -0.40139658788E-01  0.32589231241E-01  0.89067789067E+00  0.88000000000E+00 0.  1.
        -11    1    4    4    0    0  0.81050568891E-01  0.13024968705E-01 -0.39786667221E-01  0.91225459916E-01  0.51100000000E-03 0. -1.
         11    1    4    4    0    0  0.36961872917E-01  0.10170800487E-01 -0.56852839818E-02  0.38758338548E-01  0.51100000000E-03 0.  1.
</event>
<event>
 8    1  0.1088270E+005  0.1043930E+01  0.7957747E-01            NaN
         13   -1    0    0    0    0  0.00000000000E+00  0.00000000000E+00  0.74505805969E-08  0.10566000000E+00  0.10566000000E+00 0.  1.
     999900   -1    0    0    0    0 -0.00000000000E+00 -0.00000000000E+00 -0.74505805969E-08  0.93827000000E+00  0.93827000000E+00 0. -1.
     999902    2    1    2    0    0  0.40118699209E-02  0.22670402489E-01 -0.28586439389E-02  0.10207305583E+01  0.10204668827E+01 0.  0.
     999903    2    3    3    0    0 -0.67976017170E-01 -0.89417361125E-01  0.59136472351E-01  0.12854822433E+00  0.20281031397E-01 0.  0.
         14    1    1    2    0    0 -0.40118699209E-02 -0.22670402489E-01  0.28586439389E-02  0.23199441684E-01  0.00000000000E+00 0. -1.
     999901    1    3    3    0    0  0.71987887091E-01  0.11208776361E+00 -0.61995116289E-01  0.89218233399E+00  0.88000000000E+00 0.  1.
        -11    1    4    4    0    0 -0.62069225537E-01 -0.83456632305E-01  0.47884636505E-01  0.11450239198E+00  0.51100000000E-03 0. -1.
         11    1    4    4    0    0 -0.59067916330E-02 -0.59607288198E-02  0.11251835846E-01  0.14045832348E-01  0.51100000000E-03 0.  1.
</event>
<event>
 8    1  0.1088270E+005  0.1043930E+01  0.7957747E-01            NaN
         13   -1    0    0    0    0  0.00000000000E+00  0.00000000000E+00  0.74505805969E-08  0.10566000000E+00  0.10566000000E+00 0.  1.
     999900   -1    0    0    0    0 -0.00000000000E+00 -0.00000000000E+00 -0.74505805969E-08  0.93827000000E+00  0.93827000000E+00 0. -1.
     999902    2    1    2    0    0 -0.16758078909E-01 -0.90225166618E-02 -0.16578973622E-01  0.10186891327E+01  0.10183763782E+01 0.  0.
     999903    2    3    3    0    0 -0.77658933516E-01 -0.46376162459E-01  0.89970349864E-01  0.12938773988E+00  0.21560727634E-01 0.  0.
         14    1    1    2    0    0  0.16758078909E-01  0.90225166618E-02  0.16578973622E-01  0.25240867299E-01  0.00000000000E+00 0.  1.
     999901    1    3    3    0    0  0.60900854608E-01  0.37353645797E-01 -0.10654932349E+00  0.88930139283E+00  0.88000000000E+00 0. -1.
        -11    1    4    4    0    0 -0.15472649484E-01 -0.53846357791E-02  0.28227656690E-01  0.32641368044E-01  0.51100000000E-03 0. -1.
         11    1    4    4    0    0 -0.62186284033E-01 -0.40991526680E-01  0.61742693174E-01  0.96746371832E-01  0.51100000000E-03 0.  1.
</event>
<event>
 8    1  0.1088270E+005  0.1043930E+01  0.7957747E-01            NaN
         13   -1    0    0    0    0  0.00000000000E+00  0.00000000000E+00  0.74505805969E-08  0.10566000000E+00  0.10566000000E+00 0. -1.
     999900   -1    0    0    0    0 -0.00000000000E+00 -0.00000000000E+00 -0.74505805969E-08  0.93827000000E+00  0.93827000000E+00 0. -1.
     999902    2    1    2    0    0  0.20664116091E-01  0.95734153419E-02 -0.73050089428E-02  0.10200130786E+01  0.10197326421E+01 0.  0.
     999903    2    3    3    0    0  0.59262614888E-01  0.27437129735E-01 -0.11344558988E+00  0.13261532146E+00  0.21261891066E-01 0.  0.
         14    1    1    2    0    0 -0.20664116091E-01 -0.95734153419E-02  0.73050089428E-02  0.23916921432E-01  0.00000000000E+00 0.  1.
     999901    1    3    3    0    0 -0.38598498797E-01 -0.17863714394E-01  0.10614058093E+00  0.88739775711E+00  0.88000000000E+00 0.  1.
        -11    1    4    4    0    0  0.43109455248E-01  0.29176513743E-01 -0.80283588843E-01  0.95683905880E-01  0.51100000000E-03 0. -1.
         11    1    4    4    0    0  0.16153159640E-01 -0.17393840079E-02 -0.33162001034E-01  0.36931415579E-01  0.51100000000E-03 0.  1.
</event>
<event>
 8    1  0.1088270E+005  0.1043930E+01  0.7957747E-01            NaN
         13   -1    0    0    0    0  0.00000000000E+00  0.00000000000E+00  0.74505805969E-08  0.10566000000E+00  0.10566000000E+00 0. -1.
     999900   -1    0    0    0    0 -0.00000000000E+00 -0.00000000000E+00 -0.74505805969E-08  0.93827000000E+00  0.93827000000E+00 0.  1.
     999902    2    1    2    0    0  0.97042090001E-02  0.16464738453E-01  0.13301193155E-01  0.10206452190E+01  0.10203795775E+01 0.  0.
     999903    2    3    3    0    0 -0.12550957615E+00 -0.14346263076E-01  0.21251735993E-01  0.12974943578E+00  0.20610939684E-01 0.  0.
         14    1    1    2    0    0 -0.97042090001E-02 -0.16464738453E-01 -0.13301193155E-01  0.23284780952E-01  0.00000000000E+00 0.  1.
     999901    1    3    3    0    0  0.13521378515E+00  0.30811001530E-01 -0.79505428385E-02  0.89089578327E+00  0.88000000000E+00 0. -1.
        -11    1    4    4    0    0 -0.10726371965E+00 -0.64158708337E-02  0.13134669086E-01  0.10825640676E+00  0.51100000000E-03 0. -1.
         11    1    4    4    0    0 -0.18245856497E-01 -0.79303922424E-02  0.81170669068E-02  0.21493029023E-01  0.51100000000E-03 0.  1.
</event>
<event>
 8    1  0.1219735E+005  0.1043930E+01  0.7957747E-01            NaN
         13   -1    0    0    0    0  0.00000000000E+00  0.00000000000E+00  0.74505805969E-08  0.10566000000E+00  0.10566000000E+00 0. -1.
     999900   -1    0    0    0    0 -0.00000000000E+00 -0.00000000000E+00 -0.74505805969E-08  0.93827000000E+00  0.93827000000E+00 0.  1.
     999902    2    1    2    0    0  0.18008722385E-01  0.13982672881E-01 -0.33906546917E-02  0.10208794954E+01  0.10206192328E+01 0.  0.
     999903    2    3    3    0    0 -0.36231314050E-01 -0.41020927965E-01 -0.11658096147E+00  0.13027328433E+00  0.19610797664E-01 0.  0.
         14    1    1    2    0    0 -0.18008722385E-01 -0.13982672881E-01  0.33906546917E-02  0.23050504595E-01  0.00000000000E+00 0. -1.
     999901    1    3    3    0    0  0.54240036435E-01  0.55003600846E-01  0.11319030677E+00  0.89060621108E+00  0.88000000000E+00 0. -1.
        -11    1    4    4    0    0 -0.11939659036E-01 -0.28276625914E-01 -0.60895977183E-01  0.68196071655E-01  0.51100000000E-03 0. -1.
         11    1    4    4    0    0 -0.24291655013E-01 -0.12744302051E-01 -0.55684984282E-01  0.62077212675E-01  0.51100000000E-03 0.  1.
</event>
<event>
 8    1  0.1088270E+005  0.1043930E+01  0.7957747E-01            NaN
         13   -1    0    0    0    0  0.00000000000E+00  0.00000000000E+00  0.74505805969E-08  0.10566000000E+00  0.10566000000E+00 0.  1.
     999900   -1    0    0    0    0 -0.00000000000E+00 -0.00000000000E+00 -0.74505805969E-08  0.93827000000E+00  0.93827000000E+00 0.  1.
     999902    2    1    2    0    0 -0.19683789027E-01 -0.98213005729E-02  0.67040511857E-02  0.10209331785E+01  0.10206741406E+01 0.  0.
     999903    2    3    3    0    0 -0.59888342482E-01  0.31391829246E-01 -0.11079646581E+00  0.13125835047E+00  0.19515051213E-01 0.  0.
         14    1    1    2    0    0  0.19683789027E-01  0.98213005729E-02 -0.67040511857E-02  0.22996821470E-01  0.00000000000E+00 0. -1.
     999901    1    3    3    0    0  0.40204553455E-01 -0.41213129819E-01  0.11750051700E+00  0.88967482806E+00  0.88000000000E+00 0. -1.
        -11    1    4    4    0    0 -0.20517764457E-01  0.61050813068E-02 -0.51116021807E-01  0.55419847369E-01  0.51100000000E-03 0. -1.
         11    1    4    4    0    0 -0.39370578025E-01  0.25286747939E-01 -0.59680444003E-01  0.75838503102E-01  0.51100000000E-03 0.  1.
</event>
<event>
 8    1  0.1088270E+005  0.1043930E+01  0.7957747E-01            NaN
         13   -1    0    0    0    0  0.00000000000E+00  0.00000000000E+00  0.74505805969E-08  0.10566000000E+00  0.10566000000E+00 0. -1.
     999900   -1    0    0    0    0 -0.00000000000E+00 -0.00000000000E+00 -0.74505805969E-08  0.93827000000E+00  0.93827000000E+00 0.  1.
     999902    2    1    2    0    0  0.15599269878E-01  0.88685993339E-02  0.17513162370E-01  0.10188561066E+01  0.10185475275E+01 0.  0.
     999903    2    3    3    0    0 -0.46385429613E-01  0.83883862771E-01 -0.82378365767E-01  0.12787478797E+00  0.19433366634E-01 0.  0.
         14    1    1    2    0    0 -0.15599269878E-01 -0.88685993339E-02 -0.17513162370E-01  0.25073893417E-01  0.00000000000E+00 0.  1.
     999901    1    3    3    0    0  0.61984699491E-01 -0.75015263437E-01  0.99891528137E-01  0.89098131861E+00  0.88000000000E+00 0. -1.
        -11    1    4    4    0    0 -0.77917339796E-02  0.31213190648E-01 -0.32230823367E-01  0.45541865188E-01  0.51100000000E-03 0. -1.
         11    1    4    4    0    0 -0.38593695633E-01  0.52670672123E-01 -0.50147542399E-01  0.82332922784E-01  0.51100000000E-03 0.  1.
</event>
<event>
 8    1  0.1088270E+005  0.1043930E+01  0.7957747E-01            NaN
         13   -1    0    0    0    0  0.00000000000E+00  0.00000000000E+00  0.74505805969E-08  0.10566000000E+00  0.10566000000E+00 0.  1.
     999900   -1    0    0    0    0 -0.00000000000E+00 -0.00000000000E+00 -0.74505805969E-08  0.93827000000E+00  0.93827000000E+00 0.  1.
     999902    2    1    2    0    0 -0.16580069956E-01  0.16491934740E-01  0.15707363006E-02  0.10204917867E+01  0.10202225918E+01 0.  0.
     999903    2    3    3    0    0  0.77039787503E-01 -0.16776070510E-01 -0.98590996540E-01  0.12925455080E+00  0.27748673920E-01 0.  0.
         14    1    1    2    0    0  0.16580069956E-01 -0.16491934740E-01 -0.15707363006E-02  0.23438213323E-01  0.00000000000E+00 0. -1.
     999901    1    3    3    0    0 -0.93619857459E-01  0.33268005250E-01  0.10016173284E+00  0.89123723587E+00  0.88000000000E+00 0. -1.
        -11    1    4    4    0    0  0.58213119345E-01 -0.50876680863E-02 -0.54508608141E-01  0.79913084741E-01  0.51100000000E-03 0.  1.
         11    1    4    4    0    0  0.18826668158E-01 -0.11688402424E-01 -0.44082388399E-01  0.49341466062E-01  0.51100000000E-03 0. -1.
</event>
<event>
 8    1  0.1088270E+005  0.1043930E+01  0.7957747E-01            NaN
         13   -1    0    0    0    0  0.00000000000E+00  0.00000000000E+00  0.74505805969E-08  0.10566000000E+00  0.10566000000E+00 0.  1.
     999900   -1    0    0    0    0 -0.00000000000E+00 -0.00000000000E+00 -0.74505805969E-08  0.93827000000E+00  0.93827000000E+00 0. -1.
     999902    2    1    2    0    0  0.31949673199E-01 -0.99338884094E-02 -0.38815299300E-02  0.10102472146E+01  0.10096855474E+01 0.  0.
     999903    2    3    3    0    0  0.41835790060E-01  0.20523300985E-01  0.11095841336E+00  0.12220803290E+00  0.21250755218E-01 0.  0.
         14    1    1    2    0    0 -0.31949673199E-01  0.99338884094E-02  0.38815299300E-02  0.33682785381E-01  0.00000000000E+00 0.  1.
     999901    1    3    3    0    0 -0.98861168605E-02 -0.30457189394E-01 -0.11483994329E+00  0.88803918172E+00  0.88000000000E+00 0. -1.
        -11    1    4    4    0    0  0.12549746671E-01  0.16226628700E-01  0.58199276676E-01  0.61710749040E-01  0.51100000000E-03 0. -1.
         11    1    4    4    0    0  0.29286043389E-01  0.42966722846E-02  0.52759136681E-01  0.60497283860E-01  0.51100000000E-03 0.  1.
</event>
<event>
 8    1  0.1088270E+005  0.1043930E+01  0.7957747E-01            NaN
         13   -1    0    0    0    0  0.00000000000E+00  0.00000000000E+00  0.74505805969E-08  0.10566000000E+00  0.10566000000E+00 0. -1.
     999900   -1    0    0    0    0 -0.00000000000E+00 -0.00000000000E+00 -0.74505805969E-08  0.93827000000E+00  0.93827000000E+00 0. -1.
     999902    2    1    2    0    0  0.40229064769E-02  0.13160218198E-03 -0.23544574473E-01  0.10200438517E+01  0.10197641449E+01 0.  0.
     999903    2    3    3    0    0 -0.48716412228E-01 -0.82008022084E-01 -0.89254007684E-01  0.13221161343E+00  0.20372244166E-01 0.  0.
         14    1    1    2    0    0 -0.40229064769E-02 -0.13160218198E-03  0.23544574473E-01  0.23886148345E-01  0.00000000000E+00 0. -1.
     999901    1    3    3    0    0  0.52739318705E-01  0.82139624266E-01  0.65709433211E-01  0.88783223822E+00  0.88000000000E+00 0. -1.
        -11    1    4    4    0    0 -0.29945135333E-01 -0.64641822841E-01 -0.72439318917E-01  0.10160212811E+00  0.51100000000E-03 0. -1.
         11    1    4    4    0    0 -0.18771276895E-01 -0.17366199244E-01 -0.16814688768E-01  0.30609485324E-01  0.51100000000E-03 0.  1.
</event>
<event>
 8    1  0.1088270E+005  0.1043930E+01  0.7957747E-01            NaN
         13   -1    0    0    0    0  0.00000000000E+00  0.00000000000E+00  0.74505805969E-08  0.10566000000E+00  0.10566000000E+00 0.  1.
     999900   -1    0    0    0    0 -0.00000000000E+00 -0.00000000000E+00 -0.74505805969E-08  0.93827000000E+00  0.93827000000E+00 0. -1.
     999902    2    1    2    0    0 -0.10291977024E-01  0.21458587423E-01  0.36640140702E-02  0.10198505323E+01  0.10195662252E+01 0.  0.
     999903    2    3    3    0    0  0.12604911655E+00 -0.66837662193E-02 -0.11195436249E-01  0.12878280810E+00  0.22948232077E-01 0.  0.
         14    1    1    2    0    0  0.10291977024E-01 -0.21458587423E-01 -0.36640140702E-02  0.24079467693E-01  0.00000000000E+00 0. -1.
     999901    1    3    3    0    0 -0.13634109357E+00  0.28142353642E-01  0.14859450319E-01  0.89106772421E+00  0.88000000000E+00 0. -1.
        -11    1    4    4    0    0  0.49736241619E-01  0.82236895354E-02 -0.71729258861E-02  0.50921849797E-01  0.51100000000E-03 0.  1.
         11    1    4    4    0    0  0.76312874928E-01 -0.14907455755E-01 -0.40225103628E-02  0.77860958300E-01  0.51100000000E-03 0. -1.
</event>
<event>
 8    1  0.1088270E+005  0.1043930E+01  0.7957747E-01            NaN
         13   -1    0    0    0    0  0.00000000000E+00  0.00000000000E+00  0.74505805969E-08  0.10566000000E+00  0.10566000000E+00 0. -1.
     999900   -1    0    0    0    0 -0.00000000000E+00 -0.00000000000E+00 -0.74505805969E-08  0.93827000000E+00  0.93827000000E+00 0. -1.
     999902    2    1    2    0    0  0.19100428266E-01 -0.96954457877E-02  0.92367573893E-02  0.10206030689E+01  0.10203364536E+01 0.  0.
     999903    2    3    3    0    0  0.96945190941E-01  0.62315251503E-01 -0.59699570664E-01  0.13156000752E+00  0.21504330388E-01 0.  0.
         14    1    1    2    0    0 -0.19100428266E-01  0.96954457877E-02 -0.92367573893E-02  0.23326931132E-01  0.00000000000E+00 0.  1.
     999901    1    3    3    0    0 -0.77844762675E-01 -0.72010697291E-01  0.68936328053E-01  0.88904306135E+00  0.88000000000E+00 0.  1.
        -11    1    4    4    0    0  0.40317727960E-01  0.17802014122E-01 -0.31643350991E-01  0.54258581603E-01  0.51100000000E-03 0. -1.
         11    1    4    4    0    0  0.56627462982E-01  0.44513237381E-01 -0.28056219672E-01  0.77301425920E-01  0.51100000000E-03 0.  1.
</event>
<event>
 8    1  0.1088270E+005  0.1043930E+01  0.7957747E-01            NaN
         13   -1    0    0    0    0  0.00000000000E+00  0.00000000000E+00  0.74505805969E-08  0.10566000000E+00  0.10566000000E+00 0.  1.
     999900   -1    0    0    0    0 -0.00000000000E+00 -0.00000000000E+00 -0.74505805969E-08  0.93827000000E+00  0.93827000000E+00 0. -1.
     999902    2    1    2    0    0 -0.18796215508E-01  0.14056297659E-01 -0.53722760125E-02  0.10198522391E+01  0.10195679727E+01 0.  0.
     999903    2    3    3    0    0 -0.72680227091E-01  0.80602950380E-01 -0.74206197207E-01  0.13302077121E+00  0.20216697321E-01 0.  0.
         14    1    1    2    0    0  0.18796215508E-01 -0.14056297659E-01  0.53722760125E-02  0.24077760918E-01  0.00000000000E+00 0. -1.
     999901    1    3    3    0    0  0.53884011583E-01 -0.66546652722E-01  0.68833921194E-01  0.88683146787E+00  0.88000000000E+00 0.  1.
        -11    1    4    4    0    0 -0.31927427158E-01  0.22990708762E-01 -0.32605844266E-01  0.51101227927E-01  0.51100000000E-03 0.  1.
         11    1    4    4    0    0 -0.40752799933E-01  0.57612241619E-01 -0.41600352940E-01  0.81919543288E-01  0.51100000000E-03 0. -1.
</event>
<event>
 8    1  0.1088270E+005  0.1043930E+01  0.7957747E-01            NaN
         13   -1    0    0    0    0  0.00000000000E+00  0.00000000000E+00  0.74505805969E-08  0.10566000000E+00  0.10566000000E+00 0.  1.
     999900   -1    0    0    0    0 -0.00000000000E+00 -0.00000000000E+00 -0.74505805969E-08  0.93827000000E+00  0.93827000000E+00 0. -1.
     999902    2    1    2    0    0  0.12008816489E-02  0.22458385784E-01 -0.66615260804E-02  0.10204737186E+01  0.10202041037E+01 0.  0.
     999903    2    3    3    0    0  0.12103011131E+00 -0.40069491441E-01 -0.16630039511E-01  0.13009843198E+00  0.19879431630E-01 0.  0.
         14    1    1    2    0    0 -0.12008816489E-02 -0.22458385784E-01  0.66615260804E-02  0.23456281429E-01  0.00000000000E+00 0.  1.
     999901    1    3    3    0    0 -0.11982922966E+00  0.62527877225E-01  0.99685134302E-02  0.89037528659E+00  0.88000000000E+00 0.  1.
        -11    1    4    4    0    0  0.89198016525E-01 -0.25408339600E-01 -0.39712303466E-02  0.92832654086E-01  0.51100000000E-03 0.  1.
         11    1    4    4    0    0  0.31832094784E-01 -0.14661151841E-01 -0.12658809164E-01  0.37265777894E-01  0.51100000000E-03 0. -1.
</event>
<event>
 8    1  0.1088270E+005  0.1043930E+01  0.7957747E-01            NaN
         13   -1    0    0    0    0  0.00000000000E+00  0.00000000000E+00  0.74505805969E-08  0.10566000000E+00  0.10566000000E+00 0. -1.
     999900   -1    0    0    0    0 -0.00000000000E+00 -0.00000000000E+00 -0.74505805969E-08  0.93827000000E+00  0.93827000000E+00 0.  1.
     999902    2    1    2    0    0  0.17688404359E-01 -0.10719621262E-01  0.10586170321E-01  0.10206951785E+01  0.10204306887E+01 0.  0.
     999903    2    3    3    0    0 -0.45031236940E-01 -0.88831966044E-01 -0.81451517734E-01  0.13024235670E+00  0.20243301232E-01 0.  0.
         14    1    1    2    0    0 -0.17688404359E-01  0.10719621262E-01 -0.10586170321E-01  0.23234821514E-01  0.00000000000E+00 0. -1.
     999901    1    3    3    0    0  0.62719641299E-01  0.78112344782E-01  0.92037688055E-01  0.89045282179E+00  0.88000000000E+00 0. -1.
        -11    1    4    4    0    0 -0.13796149063E-01 -0.25864608671E-01 -0.36459803437E-01  0.46785575751E-01  0.51100000000E-03 0. -1.
         11    1    4    4    0    0 -0.31235087877E-01 -0.62967357373E-01 -0.44991714297E-01  0.83456780945E-01  0.51100000000E-03 0.  1.
</event>
<event>
 8    1  0.1088270E+005  0.1043930E+01  0.7957747E-01            NaN
         13   -1    0    0    0    0  0.00000000000E+00  0.00000000000E+00  0.74505805969E-08  0.10566000000E+00  0.10566000000E+00 0. -1.
     999900   -1    0    0    0    0 -0.00000000000E+00 -0.00000000000E+00 -0.74505805969E-08  0.93827000000E+00  0.93827000000E+00 0. -1.
     999902    2    1    2    0    0  0.15761440174E-01  0.13338070913E-01  0.94731475720E-02  0.10212128775E+01  0.10209601723E+01 0.  0.
     999903    2    3    3    0    0 -0.58450292504E-01 -0.11041891808E+00 -0.22974958497E-01  0.12886986427E+00  0.21698364796E-01 0.  0.
         14    1    1    2    0    0 -0.15761440174E-01 -0.13338070913E-01 -0.94731475720E-02  0.22717122550E-01  0.00000000000E+00 0. -1.
     999901    1    3    3    0    0  0.74211732677E-01  0.12375698899E+00  0.32448106069E-01  0.89234301318E+00  0.88000000000E+00 0. -1.
        -11    1    4    4    0    0 -0.26986316636E-01 -0.38124230924E-01  0.11577330354E-03  0.46711805720E-01  0.51100000000E-03 0.  1.
         11    1    4    4    0    0 -0.31463975868E-01 -0.72294687154E-01 -0.23090731801E-01  0.82158058546E-01  0.51100000000E-03 0. -1.
</event>
<event>
 8    1  0.1088270E+005  0.1043930E+01  0.7957747E-01            NaN
         13   -1    0    0    0    0  0.00000000000E+00  0.00000000000E+00  0.74505805969E-08  0.10566000000E+00  0.10566000000E+00 0.  1.
     999900   -1    0    0    0    0 -0.00000000000E+00 -0.00000000000E+00 -0.74505805969E-08  0.93827000000E+00  0.93827000000E+00 0. -1.
     999902    2    1    2    0    0  0.15685051842E-01 -0.11234411480E-01  0.13660891193E-01  0.10202899323E+01  0.10200160259E+01 0.  0.
     999903    2    3    3    0    0  0.31854134239E-01  0.12375860998E+00  0.12023947494E-01  0.12984777548E+00  0.19621163867E-01 0.  0.
         14    1    1    2    0    0 -0.15685051842E-01  0.11234411480E-01 -0.13660891193E-01  0.23640067698E-01  0.00000000000E+00 0. -1.
     999901    1    3    3    0    0 -0.16169082397E-01 -0.13499302146E+00  0.16369436988E-02  0.89044215683E+00  0.88000000000E+00 0. -1.
        -11    1    4    4    0    0  0.33787913277E-01  0.10346163903E+00  0.87499098075E-02  0.10919137272E+00  0.51100000000E-03 0.  1.
         11    1    4    4    0    0 -0.19337790379E-02  0.20296970949E-01  0.32740376864E-02  0.20656402757E-01  0.51100000000E-03 0. -1.
</event>
<event>
 8    1  0.1088270E+005  0.1043930E+01  0.7957747E-01            NaN
         13   -1    0    0    0    0  0.00000000000E+00  0.00000000000E+00  0.74505805969E-08  0.10566000000E+00  0.10566000000E+00 0. -1.
     999900   -1    0    0    0    0 -0.00000000000E+00 -0.00000000000E+00 -0.74505805969E-08  0.93827000000E+00  0.93827000000E+00 0. -1.
     999902    2    1    2    0    0  0.13481503449E-01  0.94304655471E-02 -0.17230412954E-01  0.10201062357E+01  0.10198280053E+01 0.  0.
     999903    2    3    3    0    0  0.42764105830E-01 -0.12084758087E+00  0.44230498744E-02  0.12976994381E+00  0.19691835783E-01 0.  0.
         14    1    1    2    0    0 -0.13481503449E-01 -0.94304655471E-02  0.17230412954E-01  0.23823764317E-01  0.00000000000E+00 0. -1.
     999901    1    3    3    0    0 -0.29282602381E-01  0.13027804641E+00 -0.21653462828E-01  0.89033629188E+00  0.88000000000E+00 0. -1.
        -11    1    4    4    0    0  0.20081199410E-01 -0.47012749802E-01  0.10841997879E-01  0.52261489193E-01  0.51100000000E-03 0.  1.
         11    1    4    4    0    0  0.22682906420E-01 -0.73834831066E-01 -0.64189480043E-02  0.77508454614E-01  0.51100000000E-03 0. -1.
</event>
<event>
 8    1  0.1485265E+005  0.1043930E+01  0.7957747E-01            NaN
         13   -1    0    0    0    0  0.00000000000E+00  0.00000000000E+00  0.74505805969E-08  0.10566000000E+00  0.10566000000E+00 0. -1.
     999900   -1    0    0    0    0 -0.00000000000E+00 -0.00000000000E+00 -0.74505805969E-08  0.93827000000E+00  0.93827000000E+00 0.  1.
     999902    2    1    2    0    0 -0.22627993152E-01  0.46604808818E-02 -0.67044053400E-02  0.10198739154E+01  0.10195901667E+01 0.  0.
     999903    2    3    3    0    0 -0.10663938109E+00 -0.62867508304E-01  0.41515126825E-01  0.13198706116E+00  0.19307961011E-01 0.  0.
         14    1    1    2    0    0  0.22627993152E-01 -0.46604808818E-02  0.67044053400E-02  0.24056084617E-01  0.00000000000E+00 0.  1.
     999901    1    3    3    0    0  0.84011387935E-01  0.67527989186E-01 -0.48219532165E-01  0.88788685423E+00  0.88000000000E+00 0.  1.
        -11    1    4    4    0    0 -0.42916853763E-01 -0.36330716610E-01  0.19996381455E-01  0.59681602681E-01  0.51100000000E-03 0. -1.
         11    1    4    4    0    0 -0.63722527325E-01 -0.26536791694E-01  0.21518745370E-01  0.72305458476E-01  0.51100000000E-03 0.  1.
</event>
<event>
 8    1  0.1088270E+005  0.1043930E+01  0.7957747E-01            NaN
         13   -1    0    0    0    0  0.00000000000E+00  0.00000000000E+00  0.74505805969E-08  0.10566000000E+00  0.10566000000E+00 0. -1.
     999900   -1    0    0    0    0 -0.00000000000E+00 -0.00000000000E+00 -0.74505805969E-08  0.93827000000E+00  0.93827000000E+00 0. -1.
     999902    2    1    2    0    0  0.12442715569E-01 -0.36155338119E-02  0.19952049407E-01  0.10201397177E+01  0.10198622780E+01 0.  0.
     999903    2    3    3    0    0  0.21504384216E-01  0.12688811737E+00  0.14000622944E-02  0.13027596802E+00  0.20170146170E-01 0.  0.
         14    1    1    2    0    0 -0.12442715569E-01  0.36155338119E-02 -0.19952049407E-01  0.23790282281E-01  0.00000000000E+00 0.  1.
     999901    1    3    3    0    0 -0.90616686469E-02 -0.13050365119E+00  0.18551987112E-01  0.88986374970E+00  0.88000000000E+00 0.  1.
        -11    1    4    4    0    0  0.65477043514E-02  0.85426287679E-01 -0.45344069388E-02  0.85798281021E-01  0.51100000000E-03 0. -1.
         11    1    4    4    0    0  0.14956679864E-01  0.41461829695E-01  0.59344692332E-02  0.44477686994E-01  0.51100000000E-03 0.  1.
</event>
<event>
 8    1  0.1088270E+005  0.1043930E+01  0.7957747E-01            NaN
         13   -1    0    0    0    0  0.00000000000E+00  0.00000000000E+00  0.74505805969E-08  0.10566000000E+00  0.10566000000E+00 0. -1.
     999900   -1    0    0    0    0 -0.00000000000E+00 -0.00000000000E+00 -0.74505805969E-08  0.93827000000E+00  0.93827000000E+00 0.  1.
     999902    2    1    2    0    0 -0.10446521233E-01  0.16165624061E-01  0.94718302553E-02  0.10224783619E+01  0.10222533090E+01 0.  0.
     999903    2    3    3    0    0  0.93040488912E-01 -0.57516436766E-01  0.70147974578E-01  0.13128803331E+00  0.18738630601E-01 0.  0.
         14    1    1    2    0    0  0.10446521233E-01 -0.16165624061E-01 -0.94718302553E-02  0.21451638062E-01  0.00000000000E+00 0.  1.
     999901    1    3    3    0    0 -0.10348701015E+00  0.73682060827E-01 -0.60676144323E-01  0.89119032863E+00  0.88000000000E+00 0.  1.
        -11    1    4    4    0    0  0.98647768748E-02 -0.10021602119E-01  0.32077252591E-02  0.14432496463E-01  0.51100000000E-03 0.  1.
         11    1    4    4    0    0  0.83175712037E-01 -0.47494834647E-01  0.66940249319E-01  0.11685553684E+00  0.51100000000E-03 0. -1.
</event>
<event>
 8    1  0.1088270E+005  0.1043930E+01  0.7957747E-01            NaN
         13   -1    0    0    0    0  0.00000000000E+00  0.00000000000E+00  0.74505805969E-08  0.10566000000E+00  0.10566000000E+00 0.  1.
     999900   -1    0    0    0    0 -0.00000000000E+00 -0.00000000000E+00 -0.74505805969E-08  0.93827000000E+00  0.93827000000E+00 0. -1.
     999902    2    1    2    0    0 -0.64542368520E-02 -0.28237928194E-02  0.21144661918E-01  0.10216426110E+01  0.10213994796E+01 0.  0.
     999903    2    3    3    0    0  0.10020029718E+00  0.47469121079E-01  0.69715298576E-01  0.13244990213E+00  0.19731617012E-01 0.  0.
         14    1    1    2    0    0  0.64542368520E-02  0.28237928194E-02 -0.21144661918E-01  0.22287388965E-01  0.00000000000E+00 0. -1.
     999901    1    3    3    0    0 -0.10665453403E+00 -0.50292913898E-01 -0.48570636658E-01  0.88919270890E+00  0.88000000000E+00 0. -1.
        -11    1    4    4    0    0  0.49520678831E-01  0.33940627236E-01  0.34109980798E-01  0.69050819836E-01  0.51100000000E-03 0.  1.
         11    1    4    4    0    0  0.50679618344E-01  0.13528493843E-01  0.35605317778E-01  0.63399082298E-01  0.51100000000E-03 0. -1.
</event>
<event>
 8    1  0.1088270E+005  0.1043930E+01  0.7957747E-01            NaN
         13   -1    0    0    0    0  0.00000000000E+00  0.00000000000E+00  0.74505805969E-08  0.10566000000E+00  0.10566000000E+00 0. -1.
     999900   -1    0    0    0    0 -0.00000000000E+00 -0.00000000000E+00 -0.74505805969E-08  0.93827000000E+00  0.93827000000E+00 0. -1.
     999902    2    1    2    0    0  0.27841276575E-02 -0.10015151768E-03  0.22944430597E-01  0.10208170536E+01  0.10205553628E+01 0.  0.
     999903    2    3    3    0    0 -0.20579354672E-01 -0.11068379213E+00 -0.61010638165E-01  0.12962512843E+00  0.20148555050E-01 0.  0.
         14    1    1    2    0    0 -0.27841276575E-02  0.10015151768E-03 -0.22944430597E-01  0.23112946427E-01  0.00000000000E+00 0.  1.
     999901    1    3    3    0    0  0.23363482329E-01  0.11058364061E+00  0.83955068762E-01  0.89119192515E+00  0.88000000000E+00 0. -1.
        -11    1    4    4    0    0 -0.17704276314E-01 -0.62985431452E-01 -0.44234950771E-01  0.78978465202E-01  0.51100000000E-03 0.  1.
         11    1    4    4    0    0 -0.28750783581E-02 -0.47698360680E-01 -0.16775687394E-01  0.50646663223E-01  0.51100000000E-03 0. -1.
</event>
<event>
 8    1  0.1088270E+005  0.1043930E+01  0.7957747E-01            NaN
         13   -1    0    0    0    0  0.00000000000E+00  0.00000000000E+00  0.74505805969E-08  0.10566000000E+00  0.10566000000E+00 0. -1.
     999900   -1    0    0    0    0 -0.00000000000E+00 -0.00000000000E+00 -0.74505805969E-08  0.93827000000E+00  0.93827000000E+00 0. -1.
     999902    2    1    2    0    0 -0.20091002114E-01 -0.10899788651E-01 -0.28906411022E-02  0.10208906952E+01  0.10206306884E+01 0.  0.
     999903    2    3    3    0    0 -0.30329963783E-01  0.85197563407E-01 -0.92639384371E-01  0.13106241161E+00  0.20414913310E-01 0.  0.
         14    1    1    2    0    0  0.20091002114E-01  0.10899788651E-01  0.28906411022E-02  0.23039304776E-01  0.00000000000E+00 0. -1.
     999901    1    3    3    0    0  0.10238961669E-01 -0.96097352059E-01  0.89748743269E-01  0.88982828362E+00  0.88000000000E+00 0.  1.
        -11    1    4    4    0    0 -0.25421225088E-01  0.69982523959E-01 -0.63663618046E-01  0.97964839246E-01  0.51100000000E-03 0.  1.
         11    1    4    4    0    0 -0.49087386950E-02  0.15215039448E-01 -0.28975766325E-01  0.33097572360E-01  0.51100000000E-03 0. -1.
</event>
<event>
 8    1  0.1088270E+005  0.1043930E+01  0.7957747E-01            NaN
         13   -1    0    0    0    0  0.00000000000E+00  0.00000000000E+00  0.74505805969E-08  0.10566000000E+00  0.10566000000E+00 0. -1.
     999900   -1    0    0    0    0 -0.00000000000E+00 -0.00000000000E+00 -0.74505805969E-08  0.93827000000E+00  0.93827000000E+00 0. -1.
     999902    2    1    2    0    0  0.62405454032E-02 -0.14754699760E-01  0.18118984611E-01  0.10197444015E+01  0.10194575524E+01 0.  0.
     999903    2    3    3    0    0  0.11701663115E+00  0.49141667453E-01  0.22579920799E-01  0.13048966472E+00  0.20246094193E-01 0.  0.
         14    1    1    2    0    0 -0.62405454032E-02  0.14754699760E-01 -0.18118984611E-01  0.24185598510E-01  0.00000000000E+00 0.  1.
     999901    1    3    3    0    0 -0.11077608575E+00 -0.63896367212E-01 -0.44609361878E-02  0.88925473677E+00  0.88000000000E+00 0.  1.
        -11    1    4    4    0    0  0.32577471636E-01  0.13145121258E-01  0.15571346362E-01  0.38429335404E-01  0.51100000000E-03 0. -1.
         11    1    4    4    0    0  0.84439159513E-01  0.35996546195E-01  0.70085744377E-02  0.92060329317E-01  0.51100000000E-03 0.  1.
</event>
<event>
 8    1  0.1088270E+005  0.1043930E+01  0.7957747E-01            NaN
         13   -1    0    0    0    0  0.00000000000E+00  0.00000000000E+00  0.74505805969E-08  0.10566000000E+00  0.10566000000E+00 0.  1.
     999900   -1    0    0    0    0 -0.00000000000E+00 -0.00000000000E+00 -0.74505805969E-08  0.93827000000E+00  0.93827000000E+00 0.  1.
     999902    2    1    2    0    0 -0.20582434877E-01  0.25393930435E-02 -0.10976456307E-01  0.10204658202E+01  0.10201960215E+01 0.  0.
     999903    2    3    3    0    0 -0.13195587102E-01 -0.82241870405E-01 -0.10026565294E+00  0.13186299055E+00  0.19919797985E-01 0.  0.
         14    1    1    2    0    0  0.20582434877E-01 -0.25393930435E-02  0.10976456307E-01  0.23464179840E-01  0.00000000000E+00 0.  1.
     999901    1    3    3    0    0 -0.73868477751E-02  0.84781263449E-01  0.89289196630E-01  0.88860282961E+00  0.88000000000E+00 0. -1.
        -11    1    4    4    0    0 -0.30772756083E-02 -0.63947894511E-01 -0.67858061598E-01  0.93294053843E-01  0.51100000000E-03 0.  1.
         11    1    4    4    0    0 -0.10118311494E-01 -0.18293975894E-01 -0.32407591339E-01  0.38568936709E-01  0.51100000000E-03 0. -1.
</event>
<event>
 8    1  0.1088270E+005  0.1043930E+01  0.7957747E-01            NaN
         13   -1    0    0    0    0  0.00000000000E+00  0.00000000000E+00  0.74505805969E-08  0.10566000000E+00  0.10566000000E+00 0. -1.
     999900   -1    0    0    0    0 -0.00000000000E+00 -0.00000000000E+00 -0.74505805969E-08  0.93827000000E+00  0.93827000000E+00 0.  1.
     999902    2    1    2    0    0 -0.17863168973E-01  0.10651100326E-01 -0.11586116981E-01  0.10201229244E+01  0.10198450882E+01 0.  0.
     999903    2    3    3    0    0  0.35790848506E-01  0.10866768526E+00 -0.61852240926E-01  0.13163393302E+00  0.20301279719E-01 0.  0.
         14    1    1    2    0    0  0.17863168973E-01 -0.10651100326E-01  0.11586116981E-01  0.23807075642E-01  0.00000000000E+00 0.  1.
     999901    1    3    3    0    0 -0.53654017479E-01 -0.98016584933E-01  0.50266123945E-01  0.88848899134E+00  0.88000000000E+00 0.  1.
        -11    1    4    4    0    0  0.35489369311E-01  0.81108136175E-01 -0.49430412269E-01  0.10139848059E+00  0.51100000000E-03 0.  1.
         11    1    4    4    0    0  0.30147919491E-03  0.27559549084E-01 -0.12421828657E-01  0.30235452430E-01  0.51100000000E-03 0. -1.
</event>
<event>
 8    1  0.1088270E+005  0.1043930E+01  0.7957747E-01            NaN
         13   -1    0    0    0    0  0.00000000000E+00  0.00000000000E+00  0.74505805969E-08  0.10566000000E+00  0.10566000000E+00 0. -1.
     999900   -1    0    0    0    0 -0.00000000000E+00 -0.00000000000E+00 -0.74505805969E-08  0.93827000000E+00  0.93827000000E+00 0. -1.
     999902    2    1    2    0    0 -0.13841205585E-01  0.17159079152E-01  0.77537570519E-02  0.10205604960E+01  0.10202928953E+01 0.  0.
     999903    2    3    3    0    0 -0.61587427924E-01  0.59140035239E-01 -0.98216407780E-01  0.13192571259E+00  0.21618876933E-01 0.  0.
         14    1    1    2    0    0  0.13841205585E-01 -0.17159079152E-01 -0.77537570519E-02  0.23369504013E-01  0.00000000000E+00 0.  1.
     999901    1    3    3    0    0  0.47746222339E-01 -0.41980956087E-01  0.10597016483E+00  0.88863478339E+00  0.88000000000E+00 0.  1.
        -11    1    4    4    0    0 -0.69111647823E-02  0.12224655172E-01 -0.27966239553E-01  0.31298211905E-01  0.51100000000E-03 0.  1.
         11    1    4    4    0    0 -0.54676263141E-01  0.46915380067E-01 -0.70250168227E-01  0.10062750069E+00  0.51100000000E-03 0. -1.
</event>
<event>
 8    1  0.1088270E+005  0.1043930E+01  0.7957747E-01            NaN
         13   -1    0    0    0    0  0.00000000000E+00  0.00000000000E+00  0.74505805969E-08  0.10566000000E+00  0.10566000000E+00 0.  1.
     999900   -1    0    0    0    0 -0.00000000000E+00 -0.00000000000E+00 -0.74505805969E-08  0.93827000000E+00  0.93827000000E+00 0.  1.
     999902    2    1    2    0    0  0.10694288605E-01  0.10469090732E-02 -0.17117807042E-01  0.10237190340E+01  0.10235195052E+01 0.  0.
     999903    2    3    3    0    0 -0.31823462583E-01  0.10977100676E+00 -0.68340546439E-01  0.13453263197E+00  0.19136145912E-01 0.  0.
         14    1    1    2    0    0 -0.10694288605E-01 -0.10469090732E-02  0.17117807042E-01  0.20210965967E-01  0.00000000000E+00 0.  1.
     999901    1    3    3    0    0  0.42517751188E-01 -0.10872409769E+00  0.51222739396E-01  0.88918640206E+00  0.88000000000E+00 0. -1.
        -11    1    4    4    0    0 -0.25972148816E-01  0.74680917309E-01 -0.55931645292E-01  0.96852475395E-01  0.51100000000E-03 0.  1.
         11    1    4    4    0    0 -0.58513137664E-02  0.35090089455E-01 -0.12408901147E-01  0.37680156573E-01  0.51100000000E-03 0. -1.
</event>
<event>
 8    1  0.1088270E+005  0.1043930E+01  0.7957747E-01            NaN
         13   -1    0    0    0    0  0.00000000000E+00  0.00000000000E+00  0.74505805969E-08  0.10566000000E+00  0.10566000000E+00 0.  1.
     999900   -1    0    0    0    0 -0.00000000000E+00 -0.00000000000E+00 -0.74505805969E-08  0.93827000000E+00  0.93827000000E+00 0.  1.
     999902    2    1    2    0    0  0.48057440277E-02  0.18113275830E-01 -0.13173829363E-01  0.10210228894E+01  0.10207658913E+01 0.  0.
     999903    2    3    3    0    0 -0.98190832446E-01  0.75685703109E-01 -0.43537593672E-01  0.13262836141E+00  0.18027616456E-01 0.  0.
         14    1    1    2    0    0 -0.48057440277E-02 -0.18113275830E-01  0.13173829363E-01  0.22907110622E-01  0.00000000000E+00 0.  1.
     999901    1    3    3    0    0  0.10299657647E+00 -0.57572427279E-01  0.30363764309E-01  0.88839452797E+00  0.88000000000E+00 0.  1.
        -11    1    4    4    0    0 -0.31178376281E-01  0.23627073170E-01 -0.50429465574E-02  0.39446446800E-01  0.51100000000E-03 0.  1.
         11    1    4    4    0    0 -0.67012456164E-01  0.52058629939E-01 -0.38494647115E-01  0.93181914607E-01  0.51100000000E-03 0. -1.
</event>
<event>
 8    1  0.1088270E+005  0.1043930E+01  0.7957747E-01            NaN
         13   -1    0    0    0    0  0.00000000000E+00  0.00000000000E+00  0.74505805969E-08  0.10566000000E+00  0.10566000000E+00 0.  1.
     999900   -1    0    0    0    0 -0.00000000000E+00 -0.00000000000E+00 -0.74505805969E-08  0.93827000000E+00  0.93827000000E+00 0. -1.
     999902    2    1    2    0    0  0.28779577270E-02  0.14879930589E-01  0.17212935324E-01  0.10209957436E+01  0.10207381291E+01 0.  0.
     999903    2    3    3    0    0 -0.90888459854E-01 -0.27221272284E-02  0.94388165896E-01  0.13248125877E+00  0.19340009123E-01 0.  0.
         14    1    1    2    0    0 -0.28779577270E-02 -0.14879930589E-01 -0.17212935324E-01  0.22934256419E-01  0.00000000000E+00 0. -1.
     999901    1    3    3    0    0  0.93766417581E-01  0.17602057817E-01 -0.77175230572E-01  0.88851448481E+00  0.88000000000E+00 0. -1.
        -11    1    4    4    0    0 -0.83328485578E-01  0.46367199523E-03  0.77969162136E-01  0.11411968658E+00  0.51100000000E-03 0. -1.
         11    1    4    4    0    0 -0.75599742756E-02 -0.31857992236E-02  0.16419003760E-01  0.18361572188E-01  0.51100000000E-03 0.  1.
</event>
<event>
 8    1  0.1088270E+005  0.1043930E+01  0.7957747E-01            NaN
         13   -1    0    0    0    0  0.00000000000E+00  0.00000000000E+00  0.74505805969E-08  0.10566000000E+00  0.10566000000E+00 0. -1.
     999900   -1    0    0    0    0 -0.00000000000E+00 -0.00000000000E+00 -0.74505805969E-08  0.93827000000E+00  0.93827000000E+00 0. -1.
     999902    2    1    2    0    0 -0.13793642452E-01  0.18205028380E-01  0.13593736482E-02  0.10210491013E+01  0.10207926977E+01 0.  0.
     999903    2    3    3    0    0  0.13148122182E-01 -0.11039180321E+00  0.62706403152E-01  0.12918226041E+00  0.19918335181E-01 0.  0.
         14    1    1    2    0    0  0.13793642452E-01 -0.18205028380E-01 -0.13593736482E-02  0.22880898740E-01  0.00000000000E+00 0. -1.
     999901    1    3    3    0    0 -0.26941764634E-01  0.12859683159E+00 -0.61347029504E-01  0.89186684085E+00  0.88000000000E+00 0. -1.
        -11    1    4    4    0    0  0.97728645546E-02 -0.88032853750E-01  0.40187560121E-01  0.97265581427E-01  0.51100000000E-03 0. -1.
         11    1    4    4    0    0  0.33752576273E-02 -0.22358949459E-01  0.22518843031E-01  0.31916678985E-01  0.51100000000E-03 0.  1.
</event>
<event>
 8    1  0.1088270E+005  0.1043930E+01  0.7957747E-01            NaN
         13   -1    0    0    0    0  0.00000000000E+00  0.00000000000E+00  0.74505805969E-08  0.10566000000E+00  0.10566000000E+00 0.  1.
     999900   -1    0    0    0    0 -0.00000000000E+00 -0.00000000000E+00 -0.74505805969E-08  0.93827000000E+00  0.93827000000E+00 0. -1.
     999902    2    1    2    0    0  0.13730399142E-01  0.20627838642E-01 -0.49049279312E-03  0.10191454853E+01  0.10188440744E+01 0.  0.
     999903    2    3    3    0    0 -0.79638781368E-01  0.38193655293E-01 -0.92416633752E-01  0.12927090018E+00  0.19210430414E-01 0.  0.
         14    1    1    2    0    0 -0.13730399142E-01 -0.20627838642E-01  0.49049279312E-03  0.24784514738E-01  0.00000000000E+00 0.  1.
     999901    1    3    3    0    0  0.93369180510E-01 -0.17565816652E-01  0.91926140959E-01  0.88987458508E+00  0.88000000000E+00 0.  1.
        -11    1    4    4    0    0 -0.62360833902E-01  0.21227273878E-01 -0.62832931177E-01  0.91036855847E-01  0.51100000000E-03 0. -1.
         11    1    4    4    0    0 -0.17277947467E-01  0.16966381415E-01 -0.29583702575E-01  0.38234044333E-01  0.51100000000E-03 0.  1.
</event>
<event>
 8    1  0.1088270E+005  0.1043930E+01  0.7957747E-01            NaN
         13   -1    0    0    0    0  0.00000000000E+00  0.00000000000E+00  0.74505805969E-08  0.10566000000E+00  0.10566000000E+00 0.  1.
     999900   -1    0    0    0    0 -0.00000000000E+00 -0.00000000000E+00 -0.74505805969E-08  0.93827000000E+00  0.93827000000E+00 0. -1.
     999902    2    1    2    0    0  0.95539965205E-02 -0.16201461651E-01 -0.14009328949E-01  0.10204773348E+01  0.10202078040E+01 0.  0.
     999903    2    3    3    0    0  0.12801484101E+00 -0.24844120267E-01 -0.17308451702E-01  0.13249166402E+00  0.15793312073E-01 0.  0.
         14    1    1    2    0    0 -0.95539965205E-02  0.16201461651E-01  0.14009328949E-01  0.23452665238E-01  0.00000000000E+00 0.  1.
     999901    1    3    3    0    0 -0.11846084448E+00  0.86426586160E-02  0.32991227525E-02  0.88798567074E+00  0.88000000000E+00 0.  1.
        -11    1    4    4    0    0  0.37455781215E-01 -0.12887112597E-01 -0.53326780163E-03  0.39617656582E-01  0.51100000000E-03 0. -1.
         11    1    4    4    0    0  0.90559059790E-01 -0.11957007670E-01 -0.16775183900E-01  0.92874007442E-01  0.51100000000E-03 0.  1.
</event>
<event>
 8    1  0.1088270E+005  0.1043930E+01  0.7957747E-01            NaN
         13   -1    0    0    0    0  0.00000000000E+00  0.00000000000E+00  0.74505805969E-08  0.10566000000E+00  0.10566000000E+00 0. -1.
     999900   -1    0    0    0    0 -0.00000000000E+00 -0.00000000000E+00 -0.74505805969E-08  0.93827000000E+00  0.93827000000E+00 0. -1.
     999902    2    1    2    0    0 -0.15138167290E-01 -0.17269570997E-01  0.46510649419E-02  0.10204985127E+01  0.10202294741E+01 0.  0.
     999903    2    3    3    0    0 -0.34805198385E-01 -0.24868806903E-01 -0.12252036084E+00  0.13110708481E+00  0.18653939904E-01 0.  0.
         14    1    1    2    0    0  0.15138167290E-01  0.17269570997E-01 -0.46510649419E-02  0.23431487285E-01  0.00000000000E+00 0.  1.
     999901    1    3    3    0    0  0.19667031095E-01  0.75992359059E-02  0.12717142579E+00  0.88939142791E+00  0.88000000000E+00 0.  1.
        -11    1    4    4    0    0 -0.34049037631E-01 -0.15957259044E-01 -0.95351314154E-01  0.10249929420E+00  0.51100000000E-03 0.  1.
         11    1    4    4    0    0 -0.75616075355E-03 -0.89115478586E-02 -0.27169046691E-01  0.28607790607E-01  0.51100000000E-03 0. -1.
</event>
<event>
 8    1  0.1088270E+005  0.1043930E+01  0.7957747E-01            NaN
         13   -1    0    0    0    0  0.00000000000E+00  0.00000000000E+00  0.74505805969E-08  0.10566000000E+00  0.10566000000E+00 0.  1.
     999900   -1    0    0    0    0 -0.00000000000E+00 -0.00000000000E+00 -0.74505805969E-08  0.93827000000E+00  0.93827000000E+00 0. -1.
     999902    2    1    2    0    0  0.67212966900E-02 -0.16184452209E-03  0.22406726843E-01  0.10205363378E+01  0.10202681772E+01 0.  0.
     999903    2    3    3    0    0 -0.99411350012E-01  0.70223422336E-01 -0.38774366561E-01  0.12926682151E+00  0.19811968263E-01 0.  0.
         14    1    1    2    0    0 -0.67212966900E-02  0.16184452209E-03 -0.22406726843E-01  0.23393662190E-01  0.00000000000E+00 0. -1.
     999901    1    3    3    0    0  0.10613264670E+00 -0.70385266858E-01  0.61181093404E-01  0.89126951630E+00  0.88000000000E+00 0.  1.
        -11    1    4    4    0    0 -0.88598497058E-01  0.55619580121E-01 -0.37167458521E-01  0.11101762233E+00  0.51100000000E-03 0.  1.
         11    1    4    4    0    0 -0.10812852954E-01  0.14603842215E-01 -0.16069080395E-02  0.18249199185E-01  0.51100000000E-03 0. -1.
</event>
<event>
 8    1  0.1088270E+005  0.1043930E+01  0.7957747E-01            NaN
         13   -1    0    0    0    0  0.00000000000E+00  0.00000000000E+00  0.74505805969E-08  0.10566000000E+00  0.10566000000E+00 0.  1.
     999900   -1    0    0    0    0 -0.00000000000E+00 -0.00000000000E+00 -0.74505805969E-08  0.93827000000E+00  0.93827000000E+00 0. -1.
     999902    2    1    2    0    0  0.72163787464E-02 -0.22319717627E-01 -0.22482960001E-02  0.10203651798E+01  0.10200930347E+01 0.  0.
     999903    2    3    3    0    0  0.73693307221E-01 -0.90577500846E-01 -0.61432331876E-01  0.13324565170E+00  0.18587229745E-01 0.  0.
         14    1    1    2    0    0 -0.72163787464E-02  0.22319717627E-01  0.22482960001E-02  0.23564820221E-01  0.00000000000E+00 0.  1.
     999901    1    3    3    0    0 -0.66476928475E-01  0.68257783219E-01  0.59184035876E-01  0.88711952807E+00  0.88000000000E+00 0.  1.
        -11    1    4    4    0    0  0.30068052672E-01 -0.30848759368E-01 -0.31882252188E-01  0.53595455699E-01  0.51100000000E-03 0. -1.
         11    1    4    4    0    0  0.43625254549E-01 -0.59728741478E-01 -0.29550079688E-01  0.79650196004E-01  0.51100000000E-03 0.  1.
</event>
<event>
 8    1  0.1088270E+005  0.1043930E+01  0.7957747E-01            NaN
         13   -1    0    0    0    0  0.00000000000E+00  0.00000000000E+00  0.74505805969E-08  0.10566000000E+00  0.10566000000E+00 0.  1.
     999900   -1    0    0    0    0 -0.00000000000E+00 -0.00000000000E+00 -0.74505805969E-08  0.93827000000E+00  0.93827000000E+00 0. -1.
     999902    2    1    2    0    0  0.16472127161E-01  0.17179741026E-01  0.10073567835E-02  0.10201079673E+01  0.10198297778E+01 0.  0.
     999903    2    3    3    0    0 -0.68789786053E-01 -0.88778153066E-01  0.57674752268E-01  0.12785919991E+00  0.20199079843E-01 0.  0.
         14    1    1    2    0    0 -0.16472127161E-01 -0.17179741026E-01 -0.10073567835E-02  0.23822032714E-01  0.00000000000E+00 0.  1.
     999901    1    3    3    0    0  0.85261913214E-01  0.10595789409E+00 -0.56667395485E-01  0.89224876737E+00  0.88000000000E+00 0. -1.
        -11    1    4    4    0    0 -0.10337258897E-01 -0.10901285860E-01  0.15964152258E-01  0.21927431067E-01  0.51100000000E-03 0. -1.
         11    1    4    4    0    0 -0.58452527157E-01 -0.77876867206E-01  0.41710600010E-01  0.10593176885E+00  0.51100000000E-03 0.  1.
</event>
<event>
 8    1  0.1088270E+005  0.1043930E+01  0.7957747E-01            NaN
         13   -1    0    0    0    0  0.00000000000E+00  0.00000000000E+00  0.74505805969E-08  0.10566000000E+00  0.10566000000E+00 0.  1.
     999900   -1    0    0    0    0 -0.00000000000E+00 -0.00000000000E+00 -0.74505805969E-08  0.93827000000E+00  0.93827000000E+00 0.  1.
     999902    2    1    2    0    0  0.10620299163E-01  0.13723324815E-01 -0.15175423360E-01  0.10208775842E+01  0.10206172780E+01 0.  0.
     999903    2    3    3    0    0  0.10523950716E+00  0.13088128758E-02  0.76736272199E-01  0.13095923157E+00  0.13594042980E-01 0.  0.
         14    1    1    2    0    0 -0.10620299163E-01 -0.13723324815E-01  0.15175423360E-01  0.23052415761E-01  0.00000000000E+00 0.  1.
     999901    1    3    3    0    0 -0.94619207999E-01  0.12414511939E-01 -0.91911695559E-01  0.88991835266E+00  0.88000000000E+00 0.  1.
        -11    1    4    4    0    0  0.45061022306E-01  0.43296024163E-02  0.26131157868E-01  0.52271787045E-01  0.51100000000E-03 0. -1.
         11    1    4    4    0    0  0.60178484856E-01 -0.30207895405E-02  0.50605114331E-01  0.78687444529E-01  0.51100000000E-03 0.  1.
</event>
<event>
 8    1  0.1088270E+005  0.1043930E+01  0.7957747E-01            NaN
         13   -1    0    0    0    0  0.00000000000E+00  0.00000000000E+00  0.74505805969E-08  0.10566000000E+00  0.10566000000E+00 0. -1.
     999900   -1    0    0    0    0 -0.00000000000E+00 -0.00000000000E+00 -0.74505805969E-08  0.93827000000E+00  0.93827000000E+00 0. -1.
     999902    2    1    2    0    0  0.15933054345E-01 -0.10378784230E-01 -0.13977163090E-01  0.10203303714E+01  0.10200574123E+01 0.  0.
     999903    2    3    3    0    0 -0.59477664455E-01 -0.90277494082E-01  0.68720780472E-01  0.12965111923E+00  0.19981204717E-01 0.  0.
         14    1    1    2    0    0 -0.15933054345E-01  0.10378784230E-01  0.13977163090E-01  0.23599628618E-01  0.00000000000E+00 0. -1.
     999901    1    3    3    0    0  0.75410718800E-01  0.79898709852E-01 -0.82697943563E-01  0.89067925215E+00  0.88000000000E+00 0. -1.
        -11    1    4    4    0    0 -0.38077896942E-01 -0.54242787650E-01  0.30614686434E-01  0.73004975132E-01  0.51100000000E-03 0.  1.
         11    1    4    4    0    0 -0.21399767513E-01 -0.36034706432E-01  0.38106094038E-01  0.56646144097E-01  0.51100000000E-03 0. -1.
</event>
<event>
 8    1  0.1088270E+005  0.1043930E+01  0.7957747E-01            NaN
         13   -1    0    0    0    0  0.00000000000E+00  0.00000000000E+00  0.74505805969E-08  0.10566000000E+00  0.10566000000E+00 0.  1.
     999900   -1    0    0    0    0 -0.00000000000E+00 -0.00000000000E+00 -0.74505805969E-08  0.93827000000E+00  0.93827000000E+00 0.  1.
     999902    2    1    2    0    0  0.38199663686E-03 -0.20098270252E-01  0.38826136050E-03  0.10238243507E+01  0.10236269163E+01 0.  0.
     999903    2    3    3    0    0 -0.10992910902E+00 -0.75971651949E-01  0.99931275660E-02  0.13512719849E+00  0.17418273831E-01 0.  0.
         14    1    1    2    0    0 -0.38199663686E-03  0.20098270252E-01 -0.38826136050E-03  0.20105649341E-01  0.00000000000E+00 0.  1.
     999901    1    3    3    0    0  0.11031110566E+00  0.55873381698E-01 -0.96048662055E-02  0.88869715217E+00  0.88000000000E+00 0.  1.
        -11    1    4    4    0    0 -0.59749529412E-01 -0.41797992718E-01  0.14117424748E-01  0.74274095502E-01  0.51100000000E-03 0.  1.
         11    1    4    4    0    0 -0.50179579612E-01 -0.34173659231E-01 -0.41242971822E-02  0.60853102990E-01  0.51100000000E-03 0. -1.
</event>
<event>
 8    1  0.1088270E+005  0.1043930E+01  0.7957747E-01            NaN
         13   -1    0    0    0    0  0.00000000000E+00  0.00000000000E+00  0.74505805969E-08  0.10566000000E+00  0.10566000000E+00 0. -1.
     999900   -1    0    0    0    0 -0.00000000000E+00 -0.00000000000E+00 -0.74505805969E-08  0.93827000000E+00  0.93827000000E+00 0.  1.
     999902    2    1    2    0    0  0.26785799301E-02  0.15733864500E-01 -0.17602379198E-01  0.10201692543E+01  0.10198925112E+01 0.  0.
     999903    2    3    3    0    0  0.66415918231E-01 -0.27785525384E-01  0.10467816548E+00  0.12836831396E+00  0.18379229774E-01 0.  0.
         14    1    1    2    0    0 -0.26785799301E-02 -0.15733864500E-01  0.17602379198E-01  0.23760745695E-01  0.00000000000E+00 0. -1.
     999901    1    3    3    0    0 -0.63737338301E-01  0.43519389884E-01 -0.12228054467E+00  0.89180094034E+00  0.88000000000E+00 0.  1.
        -11    1    4    4    0    0  0.44167889107E-01 -0.96777503494E-02  0.57484415446E-01  0.73138091444E-01  0.51100000000E-03 0.  1.
         11    1    4    4    0    0  0.22248029125E-01 -0.18107775034E-01  0.47193750030E-01  0.55230222519E-01  0.51100000000E-03 0. -1.
</event>
<event>
 8    1  0.1088270E+005  0.1043930E+01  0.7957747E-01            NaN
         13   -1    0    0    0    0  0.00000000000E+00  0.00000000000E+00  0.74505805969E-08  0.10566000000E+00  0.10566000000E+00 0.  1.
     999900   -1    0    0    0    0 -0.00000000000E+00 -0.00000000000E+00 -0.74505805969E-08  0.93827000000E+00  0.93827000000E+00 0.  1.
     999902    2    1    2    0    0 -0.58837193433E-02  0.11505953175E-01  0.19232742325E-01  0.10207588220E+01  0.10204957958E+01 0.  0.
     999903    2    3    3    0    0  0.44771854576E-01  0.72309745250E-01  0.10090121520E+00  0.13344105044E+00  0.19805062292E-01 0.  0.
         14    1    1    2    0    0  0.58837193433E-02 -0.11505953175E-01 -0.19232742325E-01  0.23171177983E-01  0.00000000000E+00 0. -1.
     999901    1    3    3    0    0 -0.50655573919E-01 -0.60803792075E-01 -0.81668472875E-01  0.88731777158E+00  0.88000000000E+00 0.  1.
        -11    1    4    4    0    0  0.12313056804E-01  0.34452851050E-01  0.33602923594E-01  0.49679250281E-01  0.51100000000E-03 0.  1.
         11    1    4    4    0    0  0.32458797772E-01  0.37856894200E-01  0.67298291606E-01  0.83761800156E-01  0.51100000000E-03 0. -1.
</event>
<event>
 8    1  0.1228838E+005  0.1043930E+01  0.7957747E-01            NaN
         13   -1    0    0    0    0  0.00000000000E+00  0.00000000000E+00  0.74505805969E-08  0.10566000000E+00  0.10566000000E+00 0. -1.
     999900   -1    0    0    0    0 -0.00000000000E+00 -0.00000000000E+00 -0.74505805969E-08  0.93827000000E+00  0.93827000000E+00 0. -1.
     999902    2    1    2    0    0 -0.25126485891E-02  0.66957099363E-03 -0.24736905921E-01  0.10190567967E+01  0.10187531981E+01 0.  0.
     999903    2    3    3    0    0 -0.76044384343E-01 -0.73570709873E-01 -0.75742469028E-01  0.13140815960E+00  0.18324438688E-01 0.  0.
         14    1    1    2    0    0  0.25126485891E-02 -0.66957099363E-03  0.24736905921E-01  0.24873203308E-01  0.00000000000E+00 0. -1.
     999901    1    3    3    0    0  0.73531735754E-01  0.74240280867E-01  0.51005563107E-01  0.88764863709E+00  0.88000000000E+00 0. -1.
        -11    1    4    4    0    0 -0.27529107340E-01 -0.39150695614E-01 -0.35389121231E-01  0.59525454559E-01  0.51100000000E-03 0. -1.
         11    1    4    4    0    0 -0.48515277004E-01 -0.34420014259E-01 -0.40353347797E-01  0.71882705039E-01  0.51100000000E-03 0.  1.
</event>
<event>
 8    1  0.1088270E+005  0.1043930E+01  0.7957747E-01            NaN
         13   -1    0    0    0    0  0.00000000000E+00  0.00000000000E+00  0.74505805969E-08  0.10566000000E+00  0.10566000000E+00 0. -1.
     999900   -1    0    0    0    0 -0.00000000000E+00 -0.00000000000E+00 -0.74505805969E-08  0.93827000000E+00  0.93827000000E+00 0. -1.
     999902    2    1    2    0    0  0.21631901552E-01 -0.62749428088E-02 -0.65545475792E-02  0.10204720341E+01  0.10202023800E+01 0.  0.
     999903    2    3    3    0    0  0.42072942046E-01  0.96133623413E-02  0.12177610131E+00  0.13078724166E+00  0.20330630665E-01 0.  0.
         14    1    1    2    0    0 -0.21631901552E-01  0.62749428088E-02  0.65545475792E-02  0.23457965939E-01  0.00000000000E+00 0. -1.
     999901    1    3    3    0    0 -0.20441040495E-01 -0.15888305150E-01 -0.12833064889E+00  0.88968479240E+00  0.88000000000E+00 0. -1.
        -11    1    4    4    0    0  0.18210206679E-01 -0.57190656827E-02  0.55586494884E-01  0.58774474681E-01  0.51100000000E-03 0.  1.
         11    1    4    4    0    0  0.23862735368E-01  0.15332428024E-01  0.66189606430E-01  0.72012766984E-01  0.51100000000E-03 0. -1.
</event>
<event>
 8    1  0.1088270E+005  0.1043930E+01  0.7957747E-01            NaN
         13   -1    0    0    0    0  0.00000000000E+00  0.00000000000E+00  0.74505805969E-08  0.10566000000E+00  0.10566000000E+00 0.  1.
     999900   -1    0    0    0    0 -0.00000000000E+00 -0.00000000000E+00 -0.74505805969E-08  0.93827000000E+00  0.93827000000E+00 0. -1.
     999902    2    1    2    0    0 -0.13344250050E-02 -0.22732449468E-01  0.10058456691E-01  0.10190358742E+01  0.10187317583E+01 0.  0.
     999903    2    3    3    0    0 -0.48865764855E-01 -0.80654533525E-01  0.90494396974E-01  0.13219646563E+00  0.19840687677E-01 0.  0.
         14    1    1    2    0    0  0.13344250050E-02  0.22732449468E-01 -0.10058456691E-01  0.24894125811E-01  0.00000000000E+00 0.  1.
     999901    1    3    3    0    0  0.47531339850E-01  0.57922084058E-01 -0.80435940284E-01  0.88683940856E+00  0.88000000000E+00 0. -1.
        -11    1    4    4    0    0 -0.11304590043E-01 -0.36765539429E-01  0.32834602863E-01  0.50575398285E-01  0.51100000000E-03 0.  1.
         11    1    4    4    0    0 -0.37561174813E-01 -0.43888994096E-01  0.57659794111E-01  0.81621067342E-01  0.51100000000E-03 0. -1.
</event>
<event>
 8    1  0.1088270E+005  0.1043930E+01  0.7957747E-01            NaN
         13   -1    0    0    0    0  0.00000000000E+00  0.00000000000E+00  0.74505805969E-08  0.10566000000E+00  0.10566000000E+00 0.  1.
     999900   -1    0    0    0    0 -0.00000000000E+00 -0.00000000000E+00 -0.74505805969E-08  0.93827000000E+00  0.93827000000E+00 0. -1.
     999902    2    1    2    0    0 -0.10335026802E-01  0.21244900868E-01  0.37973596848E-02  0.10200013867E+01  0.10197206727E+01 0.  0.
     999903    2    3    3    0    0  0.99181761635E-01 -0.18872222167E-01 -0.77315157754E-01  0.12860778625E+00  0.19213184419E-01 0.  0.
         14    1    1    2    0    0  0.10335026802E-01 -0.21244900868E-01 -0.37973596848E-02  0.23928613258E-01  0.00000000000E+00 0.  1.
     999901    1    3    3    0    0 -0.10951678844E+00  0.40117123034E-01  0.81112517438E-01  0.89139360049E+00  0.88000000000E+00 0. -1.
        -11    1    4    4    0    0  0.44917211558E-01 -0.12953818349E-01 -0.25077630732E-01  0.53051917855E-01  0.51100000000E-03 0.  1.
         11    1    4    4    0    0  0.54264550077E-01 -0.59184038177E-02 -0.52237527022E-01  0.75555868396E-01  0.51100000000E-03 0. -1.
</event>
<event>
 8    1  0.1088270E+005  0.1043930E+01  0.7957747E-01            NaN
         13   -1    0    0    0    0  0.00000000000E+00  0.00000000000E+00  0.74505805969E-08  0.10566000000E+00  0.10566000000E+00 0. -1.
     999900   -1    0    0    0    0 -0.00000000000E+00 -0.00000000000E+00 -0.74505805969E-08  0.93827000000E+00  0.93827000000E+00 0.  1.
     999902    2    1    2    0    0 -0.32644094545E-02  0.80674825709E-02  0.23304098624E-01  0.10190538738E+01  0.10187502029E+01 0.  0.
     999903    2    3    3    0    0  0.29124678144E-01  0.74599489769E-01 -0.97413597703E-01  0.12773556744E+00  0.20338028909E-01 0.  0.
         14    1    1    2    0    0  0.32644094545E-02 -0.80674825709E-02 -0.23304098624E-01  0.24876126242E-01  0.00000000000E+00 0.  1.
     999901    1    3    3    0    0 -0.32389087598E-01 -0.66532007198E-01  0.12071769633E+00  0.89131830632E+00  0.88000000000E+00 0. -1.
        -11    1    4    4    0    0 -0.24084841753E-02  0.86697975453E-02 -0.66250755523E-02  0.11185657449E-01  0.51100000000E-03 0.  1.
         11    1    4    4    0    0  0.31533162319E-01  0.65929692224E-01 -0.90788522151E-01  0.11654990999E+00  0.51100000000E-03 0. -1.
</event>
<event>
 8    1  0.1088270E+005  0.1043930E+01  0.7957747E-01            NaN
         13   -1    0    0    0    0  0.00000000000E+00  0.00000000000E+00  0.74505805969E-08  0.10566000000E+00  0.10566000000E+00 0.  1.
     999900   -1    0    0    0    0 -0.00000000000E+00 -0.00000000000E+00 -0.74505805969E-08  0.93827000000E+00  0.93827000000E+00 0.  1.
     999902    2    1    2    0    0  0.23337240456E-02 -0.13179697252E-01 -0.24385732943E-01  0.10161124757E+01  0.10157316322E+01 0.  0.
     999903    2    3    3    0    0 -0.40074658089E-01  0.45463353038E-01 -0.11160842978E+00  0.12884403995E+00  0.21712907234E-01 0.  0.
         14    1    1    2    0    0 -0.23337240456E-02  0.13179697252E-01  0.24385732943E-01  0.27817524310E-01  0.00000000000E+00 0.  1.
     999901    1    3    3    0    0  0.42408382134E-01 -0.58643050291E-01  0.87222696841E-01  0.88726843574E+00  0.88000000000E+00 0.  1.
        -11    1    4    4    0    0 -0.12945353719E-01  0.89248996650E-02 -0.48846407560E-01  0.51317333032E-01  0.51100000000E-03 0. -1.
         11    1    4    4    0    0 -0.27129304370E-01  0.36538453373E-01 -0.62762022223E-01  0.77526706915E-01  0.51100000000E-03 0.  1.
</event>
<event>
 8    1  0.1088270E+005  0.1043930E+01  0.7957747E-01            NaN
         13   -1    0    0    0    0  0.00000000000E+00  0.00000000000E+00  0.74505805969E-08  0.10566000000E+00  0.10566000000E+00 0.  1.
     999900   -1    0    0    0    0 -0.00000000000E+00 -0.00000000000E+00 -0.74505805969E-08  0.93827000000E+00  0.93827000000E+00 0.  1.
     999902    2    1    2    0    0 -0.94675107712E-02 -0.20878960440E-01 -0.58771958825E-02  0.10202634375E+01  0.10199889096E+01 0.  0.
     999903    2    3    3    0    0 -0.41593428830E-01  0.11511050025E+00 -0.34639877210E-01  0.12877451448E+00  0.20062748960E-01 0.  0.
         14    1    1    2    0    0  0.94675107712E-02  0.20878960440E-01  0.58771958825E-02  0.23666562503E-01  0.00000000000E+00 0. -1.
     999901    1    3    3    0    0  0.32125918059E-01 -0.13598946069E+00  0.28762681328E-01  0.89148892302E+00  0.88000000000E+00 0. -1.
        -11    1    4    4    0    0 -0.89299904012E-02  0.42845631624E-01 -0.47625476035E-02  0.44027671509E-01  0.51100000000E-03 0. -1.
         11    1    4    4    0    0 -0.32663438429E-01  0.72264868627E-01 -0.29877329607E-01  0.84746842969E-01  0.51100000000E-03 0.  1.
</event>
<event>
 8    1  0.1088270E+005  0.1043930E+01  0.7957747E-01            NaN
         13   -1    0    0    0    0  0.00000000000E+00  0.00000000000E+00  0.74505805969E-08  0.10566000000E+00  0.10566000000E+00 0. -1.
     999900   -1    0    0    0    0 -0.00000000000E+00 -0.00000000000E+00 -0.74505805969E-08  0.93827000000E+00  0.93827000000E+00 0.  1.
     999902    2    1    2    0    0 -0.48380114771E-02  0.17166843449E-02 -0.24177549225E-01  0.10192134621E+01  0.10189137226E+01 0.  0.
     999903    2    3    3    0    0 -0.11921590820E-01 -0.43471050426E-01 -0.12271384733E+00  0.13253341239E+00  0.21784410059E-01 0.  0.
         14    1    1    2    0    0  0.48380114771E-02 -0.17166843449E-02  0.24177549225E-01  0.24716537919E-01  0.00000000000E+00 0. -1.
     999901    1    3    3    0    0  0.70835793434E-02  0.45187734771E-01  0.98536298103E-01  0.88668004969E+00  0.88000000000E+00 0. -1.
        -11    1    4    4    0    0 -0.22070407085E-02 -0.28590947524E-01 -0.49655866677E-01  0.57343522088E-01  0.51100000000E-03 0. -1.
         11    1    4    4    0    0 -0.97145501120E-02 -0.14880102902E-01 -0.73057980651E-01  0.75189890305E-01  0.51100000000E-03 0.  1.
</event>
<event>
 8    1  0.1088270E+005  0.1043930E+01  0.7957747E-01            NaN
         13   -1    0    0    0    0  0.00000000000E+00  0.00000000000E+00  0.74505805969E-08  0.10566000000E+00  0.10566000000E+00 0. -1.
     999900   -1    0    0    0    0 -0.00000000000E+00 -0.00000000000E+00 -0.74505805969E-08  0.93827000000E+00  0.93827000000E+00 0. -1.
     999902    2    1    2    0    0 -0.21023771817E-01 -0.24836755481E-02 -0.10141668320E-01  0.10204561622E+01  0.10201861388E+01 0.  0.
     999903    2    3    3    0    0  0.97520343598E-01  0.33478470521E-01 -0.75511547346E-01  0.12937860981E+00  0.20144614437E-01 0.  0.
         14    1    1    2    0    0  0.21023771817E-01  0.24836755481E-02  0.10141668320E-01  0.23473837819E-01  0.00000000000E+00 0.  1.
     999901    1    3    3    0    0 -0.11854411541E+00 -0.35962146069E-01  0.65369879026E-01  0.89107755237E+00  0.88000000000E+00 0. -1.
        -11    1    4    4    0    0  0.39937090574E-01  0.86049935069E-02 -0.40559211375E-01  0.57570199454E-01  0.51100000000E-03 0.  1.
         11    1    4    4    0    0  0.57583253023E-01  0.24873477014E-01 -0.34952335971E-01  0.71808410359E-01  0.51100000000E-03 0. -1.
</event>
<event>
 8    1  0.1088270E+005  0.1043930E+01  0.7957747E-01            NaN
         13   -1    0    0    0    0  0.00000000000E+00  0.00000000000E+00  0.74505805969E-08  0.10566000000E+00  0.10566000000E+00 0. -1.
     999900   -1    0    0    0    0 -0.00000000000E+00 -0.00000000000E+00 -0.74505805969E-08  0.93827000000E+00  0.93827000000E+00 0.  1.
     999902    2    1    2    0    0 -0.97194739037E-03 -0.28742715914E-02  0.23486565181E-01  0.10202482589E+01  0.10199733746E+01 0.  0.
     999903    2    3    3    0    0 -0.57024522849E-01  0.65171564093E-01  0.98641472954E-01  0.13265579206E+00  0.19190883485E-01 0.  0.
         14    1    1    2    0    0  0.97194739037E-03  0.28742715914E-02 -0.23486565181E-01  0.23681741130E-01  0.00000000000E+00 0.  1.
     999901    1    3    3    0    0  0.56052575459E-01 -0.68045835684E-01 -0.75154907773E-01  0.88759246681E+00  0.88000000000E+00 0.  1.
        -11    1    4    4    0    0 -0.48994327859E-01  0.61757838352E-01  0.81350976949E-01  0.11328158426E+00  0.51100000000E-03 0. -1.
         11    1    4    4    0    0 -0.80301949900E-02  0.34137257412E-02  0.17290496006E-01  0.19374207807E-01  0.51100000000E-03 0.  1.
</event>
<event>
 8    1  0.1088270E+005  0.1043930E+01  0.7957747E-01            NaN
         13   -1    0    0    0    0  0.00000000000E+00  0.00000000000E+00  0.74505805969E-08  0.10566000000E+00  0.10566000000E+00 0. -1.
     999900   -1    0    0    0    0 -0.00000000000E+00 -0.00000000000E+00 -0.74505805969E-08  0.93827000000E+00  0.93827000000E+00 0. -1.
     999902    2    1    2    0    0  0.18374006199E-01  0.16366925954E-01  0.30784233497E-03  0.10193215637E+01  0.10190244723E+01 0.  0.
     999903    2    3    3    0    0  0.74207959936E-02  0.10032007699E+00  0.82242679865E-01  0.13146942402E+00  0.20029103804E-01 0.  0.
         14    1    1    2    0    0 -0.18374006199E-01 -0.16366925954E-01 -0.30784233497E-03  0.24608436275E-01  0.00000000000E+00 0. -1.
     999901    1    3    3    0    0  0.10953210205E-01 -0.83953151038E-01 -0.81934837530E-01  0.88785213971E+00  0.88000000000E+00 0.  1.
        -11    1    4    4    0    0 -0.66771502256E-02  0.44109885105E-01  0.35738087780E-01  0.57164135070E-01  0.51100000000E-03 0.  1.
         11    1    4    4    0    0  0.14097946219E-01  0.56210191887E-01  0.46504592085E-01  0.74305288947E-01  0.51100000000E-03 0. -1.
</event>
<event>
 8    1  0.1088270E+005  0.1043930E+01  0.7957747E-01            NaN
         13   -1    0    0    0    0  0.00000000000E+00  0.00000000000E+00  0.74505805969E-08  0.10566000000E+00  0.10566000000E+00 0.  1.
     999900   -1    0    0    0    0 -0.00000000000E+00 -0.00000000000E+00 -0.74505805969E-08  0.93827000000E+00  0.93827000000E+00 0.  1.
     999902    2    1    2    0    0 -0.94359509379E-02 -0.27721878653E-03  0.21504815733E-01  0.10204444487E+01  0.10201741527E+01 0.  0.
     999903    2    3    3    0    0 -0.54370415392E-01 -0.44200113427E-01 -0.10639614634E+00  0.12898105468E+00  0.20153918103E-01 0.  0.
         14    1    1    2    0    0  0.94359509379E-02  0.27721878653E-03 -0.21504815733E-01  0.23485551304E-01  0.00000000000E+00 0.  1.
     999901    1    3    3    0    0  0.44934464454E-01  0.43922894640E-01  0.12790096207E+00  0.89146339401E+00  0.88000000000E+00 0. -1.
        -11    1    4    4    0    0 -0.29725563438E-01 -0.19078746933E-01 -0.69666937698E-01  0.78111145399E-01  0.51100000000E-03 0.  1.
         11    1    4    4    0    0 -0.24644851954E-01 -0.25121366494E-01 -0.36729208638E-01  0.50869909283E-01  0.51100000000E-03 0. -1.
</event>
<event>
 8    1  0.1088270E+005  0.1043930E+01  0.7957747E-01            NaN
         13   -1    0    0    0    0  0.00000000000E+00  0.00000000000E+00  0.74505805969E-08  0.10566000000E+00  0.10566000000E+00 0. -1.
     999900   -1    0    0    0    0 -0.00000000000E+00 -0.00000000000E+00 -0.74505805969E-08  0.93827000000E+00  0.93827000000E+00 0. -1.
     999902    2    1    2    0    0  0.11991961213E-01 -0.17311279477E-01 -0.10272456734E-01  0.10204990184E+01  0.10202299916E+01 0.  0.
     999903    2    3    3    0    0  0.74829647264E-02  0.88291128588E-01  0.90788013057E-01  0.12843096148E+00  0.20018251765E-01 0.  0.
         14    1    1    2    0    0 -0.11991961213E-01  0.17311279477E-01  0.10272456734E-01  0.23430981589E-01  0.00000000000E+00 0. -1.
     999901    1    3    3    0    0  0.45089964870E-02 -0.10560240807E+00 -0.10106046979E+00  0.89206805693E+00  0.88000000000E+00 0. -1.
        -11    1    4    4    0    0 -0.44116100337E-02  0.43381582386E-01  0.35632693668E-01  0.56314953364E-01  0.51100000000E-03 0. -1.
         11    1    4    4    0    0  0.11894574760E-01  0.44909546202E-01  0.55155319390E-01  0.72116008117E-01  0.51100000000E-03 0.  1.
</event>
<event>
 8    1  0.1162082E+005  0.1043930E+01  0.7957747E-01            NaN
         13   -1    0    0    0    0  0.00000000000E+00  0.00000000000E+00  0.74505805969E-08  0.10566000000E+00  0.10566000000E+00 0.  1.
     999900   -1    0    0    0    0 -0.00000000000E+00 -0.00000000000E+00 -0.74505805969E-08  0.93827000000E+00  0.93827000000E+00 0. -1.
     999902    2    1    2    0    0  0.85992085195E-03  0.21858553759E-01 -0.74485699392E-02  0.10208211915E+01  0.10205595955E+01 0.  0.
     999903    2    3    3    0    0 -0.46455462957E-02  0.13106033971E+00 -0.10360491180E-01  0.13404962029E+00  0.25759797674E-01 0.  0.
         14    1    1    2    0    0 -0.85992085195E-03 -0.21858553759E-01  0.74485699392E-02  0.23108808504E-01  0.00000000000E+00 0.  1.
     999901    1    3    3    0    0  0.55054671476E-02 -0.10920178595E+00  0.29119212413E-02  0.88677157121E+00  0.88000000000E+00 0.  1.
        -11    1    4    4    0    0 -0.61278871848E-02  0.81648729401E-01  0.56779202067E-02  0.82076585657E-01  0.51100000000E-03 0. -1.
         11    1    4    4    0    0  0.14823408891E-02  0.49411610307E-01 -0.16038411387E-01  0.51973034629E-01  0.51100000000E-03 0.  1.
</event>
<event>
 8    1  0.1088270E+005  0.1043930E+01  0.7957747E-01            NaN
         13   -1    0    0    0    0  0.00000000000E+00  0.00000000000E+00  0.74505805969E-08  0.10566000000E+00  0.10566000000E+00 0. -1.
     999900   -1    0    0    0    0 -0.00000000000E+00 -0.00000000000E+00 -0.74505805969E-08  0.93827000000E+00  0.93827000000E+00 0. -1.
     999902    2    1    2    0    0  0.18753631111E-01 -0.82321554724E-02  0.16251732127E-02  0.10233847268E+01  0.10231784745E+01 0.  0.
     999903    2    3    3    0    0  0.95217799228E-01 -0.30402597817E-01 -0.88720265146E-01  0.13518396358E+00  0.20314313137E-01 0.  0.
         14    1    1    2    0    0 -0.18753631111E-01  0.82321554724E-02 -0.16251732127E-02  0.20545273217E-01  0.00000000000E+00 0. -1.
     999901    1    3    3    0    0 -0.76464168117E-01  0.22170442344E-01  0.90345438359E-01  0.88820076320E+00  0.88000000000E+00 0.  1.
        -11    1    4    4    0    0  0.53108495765E-01 -0.20107693989E-01 -0.37378405612E-01  0.67987042935E-01  0.51100000000E-03 0.  1.
         11    1    4    4    0    0  0.42109303464E-01 -0.10294903828E-01 -0.51341859534E-01  0.67196920647E-01  0.51100000000E-03 0. -1.
</event>
<event>
 8    1  0.1088270E+005  0.1043930E+01  0.7957747E-01            NaN
         13   -1    0    0    0    0  0.00000000000E+00  0.00000000000E+00  0.74505805969E-08  0.10566000000E+00  0.10566000000E+00 0.  1.
     999900   -1    0    0    0    0 -0.00000000000E+00 -0.00000000000E+00 -0.74505805969E-08  0.93827000000E+00  0.93827000000E+00 0.  1.
     999902    2    1    2    0    0  0.14449244111E-01  0.16013626247E-01  0.83954320042E-02  0.10207848027E+01  0.10205223727E+01 0.  0.
     999903    2    3    3    0    0  0.39772824766E-01 -0.32847319226E-01  0.11984949165E+00  0.13204936220E+00  0.20305404206E-01 0.  0.
         14    1    1    2    0    0 -0.14449244111E-01 -0.16013626247E-01 -0.83954320042E-02  0.23145197331E-01  0.00000000000E+00 0.  1.
     999901    1    3    3    0    0 -0.25323580655E-01  0.48860945473E-01 -0.11145405964E+00  0.88873544047E+00  0.88000000000E+00 0.  1.
        -11    1    4    4    0    0  0.71085670431E-02 -0.12172208265E-01  0.16510656527E-01  0.21715369659E-01  0.51100000000E-03 0. -1.
         11    1    4    4    0    0  0.32664257723E-01 -0.20675110961E-01  0.10333883512E+00  0.11033399254E+00  0.51100000000E-03 0.  1.
</event>
<event>
 7    1  0.1088270E+005  0.1043930E+01  0.7957747E-01            NaN
         13   -1    0    0    0    0  0.00000000000E+00  0.00000000000E+00  0.74505805969E-08  0.10566000000E+00  0.10566000000E+00 0.  1.
     999900   -1    0    0    0    0 -0.00000000000E+00 -0.00000000000E+00 -0.74505805969E-08  0.93827000000E+00  0.93827000000E+00 0.  1.
     999903    2    1    2    0    0  0.18028957013E-01  0.34526265354E-01 -0.10532703113E+00  0.11421608955E+00  0.20842872533E-01 0.  0.
         14    1    1    2    0    0 -0.44611810058E-03 -0.39888275921E-01 -0.12189583204E-01  0.41711623272E-01  0.00000000000E+00 0.  1.
     999901    1    1    2    0    0 -0.17582838912E-01  0.53620105668E-02  0.11751661434E+00  0.88800228717E+00  0.88000000000E+00 0. -1.
        -11    1    3    3    0    0 -0.26962559372E-02  0.21353553600E-02 -0.24047994227E-01  0.24298079882E-01  0.51100000000E-03 0. -1.
         11    1    3    3    0    0  0.20725212950E-01  0.32390909994E-01 -0.81279036905E-01  0.89918009672E-01  0.51100000000E-03 0.  1.
</event>
<event>
 8    1  0.1088270E+005  0.1043930E+01  0.7957747E-01            NaN
         13   -1    0    0    0    0  0.00000000000E+00  0.00000000000E+00  0.74505805969E-08  0.10566000000E+00  0.10566000000E+00 0.  1.
     999900   -1    0    0    0    0 -0.00000000000E+00 -0.00000000000E+00 -0.74505805969E-08  0.93827000000E+00  0.93827000000E+00 0.  1.
     999902    2    1    2    0    0  0.85799214141E-02 -0.18928298055E-02  0.26060270454E-01  0.10164284445E+01  0.10160563209E+01 0.  0.
     999903    2    3    3    0    0 -0.12411595839E+00 -0.10217903119E-01  0.10992833264E-02  0.12609111845E+00  0.19712560936E-01 0.  0.
         14    1    1    2    0    0 -0.85799214141E-02  0.18928298055E-02 -0.26060270454E-01  0.27501555452E-01  0.00000000000E+00 0. -1.
     999901    1    3    3    0    0  0.13269587980E+00  0.83250733137E-02  0.24960987127E-01  0.89033732610E+00  0.88000000000E+00 0. -1.
        -11    1    4    4    0    0 -0.60977687033E-01 -0.16124660683E-02  0.97744010673E-02  0.61779271604E-01  0.51100000000E-03 0. -1.
         11    1    4    4    0    0 -0.63138271353E-01 -0.86054370509E-02 -0.86751177409E-02  0.64311846848E-01  0.51100000000E-03 0.  1.
</event>
<event>
 8    1  0.1088270E+005  0.1043930E+01  0.7957747E-01            NaN
         13   -1    0    0    0    0  0.00000000000E+00  0.00000000000E+00  0.74505805969E-08  0.10566000000E+00  0.10566000000E+00 0.  1.
     999900   -1    0    0    0    0 -0.00000000000E+00 -0.00000000000E+00 -0.74505805969E-08  0.93827000000E+00  0.93827000000E+00 0. -1.
     999902    2    1    2    0    0  0.21480469417E-01 -0.66606852819E-02 -0.72027654014E-02  0.10203152774E+01  0.10200419649E+01 0.  0.
     999903    2    3    3    0    0 -0.33531237897E-01 -0.66978510821E-01  0.10380602370E+00  0.12959226810E+00  0.20199023929E-01 0.  0.
         14    1    1    2    0    0 -0.21480469417E-01  0.66606852819E-02  0.72027654014E-02  0.23614722616E-01  0.00000000000E+00 0.  1.
     999901    1    3    3    0    0  0.55011707315E-01  0.60317825539E-01 -0.11100878910E+00  0.89072300929E+00  0.88000000000E+00 0. -1.
        -11    1    4    4    0    0 -0.17293521658E-01 -0.15064571110E-01  0.26251453647E-01  0.34862689708E-01  0.51100000000E-03 0.  1.
         11    1    4    4    0    0 -0.16237716239E-01 -0.51913939711E-01  0.77554570049E-01  0.94729578387E-01  0.51100000000E-03 0. -1.
</event>
<event>
 8    1  0.1088270E+005  0.1043930E+01  0.7957747E-01            NaN
         13   -1    0    0    0    0  0.00000000000E+00  0.00000000000E+00  0.74505805969E-08  0.10566000000E+00  0.10566000000E+00 0. -1.
     999900   -1    0    0    0    0 -0.00000000000E+00 -0.00000000000E+00 -0.74505805969E-08  0.93827000000E+00  0.93827000000E+00 0.  1.
     999902    2    1    2    0    0  0.12771244312E-02  0.78851035744E-02 -0.22201681826E-01  0.10203350730E+01  0.10200622239E+01 0.  0.
     999903    2    3    3    0    0  0.60665903486E-01  0.22700132863E-01  0.10907428738E+00  0.12849434041E+00  0.20443763674E-01 0.  0.
         14    1    1    2    0    0 -0.12771244312E-02 -0.78851035744E-02  0.22201681826E-01  0.23594927020E-01  0.00000000000E+00 0. -1.
     999901    1    3    3    0    0 -0.59388779055E-01 -0.14815029289E-01 -0.13127596921E+00  0.89184073256E+00  0.88000000000E+00 0.  1.
        -11    1    4    4    0    0  0.11455799523E-01  0.12989671245E-01  0.21989304089E-01  0.27995669613E-01  0.51100000000E-03 0.  1.
         11    1    4    4    0    0  0.49210103963E-01  0.97104616176E-02  0.87084983292E-01  0.10049867080E+00  0.51100000000E-03 0. -1.
</event>
<event>
 8    1  0.1088270E+005  0.1043930E+01  0.7957747E-01            NaN
         13   -1    0    0    0    0  0.00000000000E+00  0.00000000000E+00  0.74505805969E-08  0.10566000000E+00  0.10566000000E+00 0. -1.
     999900   -1    0    0    0    0 -0.00000000000E+00 -0.00000000000E+00 -0.74505805969E-08  0.93827000000E+00  0.93827000000E+00 0. -1.
     999902    2    1    2    0    0 -0.14069785960E-01  0.53188825679E-02 -0.21582126454E-01  0.10176233930E+01  0.10172833098E+01 0.  0.
     999903    2    3    3    0    0  0.21149535327E-01 -0.89199020754E-01 -0.88944327219E-01  0.12930379921E+00  0.20114944664E-01 0.  0.
         14    1    1    2    0    0  0.14069785960E-01 -0.53188825679E-02  0.21582126454E-01  0.26306606984E-01  0.00000000000E+00 0. -1.
     999901    1    3    3    0    0 -0.35219321287E-01  0.94517903322E-01  0.67362200765E-01  0.88831959380E+00  0.88000000000E+00 0.  1.
        -11    1    4    4    0    0  0.57654521758E-02 -0.10694502319E-01 -0.44583326433E-02  0.12951859697E-01  0.51100000000E-03 0. -1.
         11    1    4    4    0    0  0.15384083151E-01 -0.78504518434E-01 -0.84485994576E-01  0.11635193952E+00  0.51100000000E-03 0.  1.
</event>
<event>
 8    1  0.1088270E+005  0.1043930E+01  0.7957747E-01            NaN
         13   -1    0    0    0    0  0.00000000000E+00  0.00000000000E+00  0.74505805969E-08  0.10566000000E+00  0.10566000000E+00 0.  1.
     999900   -1    0    0    0    0 -0.00000000000E+00 -0.00000000000E+00 -0.74505805969E-08  0.93827000000E+00  0.93827000000E+00 0. -1.
     999902    2    1    2    0    0 -0.14414150447E-01  0.86041827710E-02 -0.17024773395E-01  0.10200209514E+01  0.10197407017E+01 0.  0.
     999903    2    3    3    0    0  0.94492023119E-01 -0.33581398784E-01  0.76050273483E-01  0.12743866263E+00  0.20012892314E-01 0.  0.
         14    1    1    2    0    0  0.14414150447E-01 -0.86041827710E-02  0.17024773395E-01  0.23909048568E-01  0.00000000000E+00 0.  1.
     999901    1    3    3    0    0 -0.10890617357E+00  0.42185581555E-01 -0.93075046877E-01  0.89258228880E+00  0.88000000000E+00 0. -1.
        -11    1    4    4    0    0  0.59908149646E-01 -0.18805603206E-01  0.35508309468E-01  0.72136941079E-01  0.51100000000E-03 0. -1.
         11    1    4    4    0    0  0.34583873473E-01 -0.14775795578E-01  0.40541964014E-01  0.55301721551E-01  0.51100000000E-03 0.  1.
</event>
<event>
 8    1  0.1088270E+005  0.1043930E+01  0.7957747E-01            NaN
         13   -1    0    0    0    0  0.00000000000E+00  0.00000000000E+00  0.74505805969E-08  0.10566000000E+00  0.10566000000E+00 0.  1.
     999900   -1    0    0    0    0 -0.00000000000E+00 -0.00000000000E+00 -0.74505805969E-08  0.93827000000E+00  0.93827000000E+00 0. -1.
     999902    2    1    2    0    0  0.81591464096E-02  0.15044797174E-01 -0.15530695074E-01  0.10208189619E+01  0.10205573149E+01 0.  0.
     999903    2    3    3    0    0  0.42977556107E-01  0.78385282900E-01 -0.97861396419E-01  0.13402547796E+00  0.19865873496E-01 0.  0.
         14    1    1    2    0    0 -0.81591464096E-02 -0.15044797174E-01  0.15530695074E-01  0.23111038091E-01  0.00000000000E+00 0.  1.
     999901    1    3    3    0    0 -0.34818409698E-01 -0.63340485726E-01  0.82330701345E-01  0.88679348395E+00  0.88000000000E+00 0.  1.
        -11    1    4    4    0    0  0.12637539048E-02  0.18612240929E-01 -0.21138170051E-01  0.28197445637E-01  0.51100000000E-03 0.  1.
         11    1    4    4    0    0  0.41713802202E-01  0.59773041972E-01 -0.76723226368E-01  0.10582803233E+00  0.51100000000E-03 0. -1.
</event>
<event>
 8    1  0.1088270E+005  0.1043930E+01  0.7957747E-01            NaN
         13   -1    0    0    0    0  0.00000000000E+00  0.00000000000E+00  0.74505805969E-08  0.10566000000E+00  0.10566000000E+00 0. -1.
     999900   -1    0    0    0    0 -0.00000000000E+00 -0.00000000000E+00 -0.74505805969E-08  0.93827000000E+00  0.93827000000E+00 0. -1.
     999902    2    1    2    0    0  0.18065740035E-01 -0.28987622167E-02 -0.15245517732E-01  0.10201140474E+01  0.10198360016E+01 0.  0.
     999903    2    3    3    0    0 -0.53337671685E-01  0.11595346238E+00 -0.27366417321E-02  0.12917029474E+00  0.19681544067E-01 0.  0.
         14    1    1    2    0    0 -0.18065740035E-01  0.28987622167E-02  0.15245517732E-01  0.23815952560E-01  0.00000000000E+00 0.  1.
     999901    1    3    3    0    0  0.71403411720E-01 -0.11885222460E+00 -0.12508876000E-01  0.89094375270E+00  0.88000000000E+00 0.  1.
        -11    1    4    4    0    0 -0.81076124871E-02  0.28725292170E-01  0.62578354109E-02  0.30500777294E-01  0.51100000000E-03 0. -1.
         11    1    4    4    0    0 -0.45230059198E-01  0.87228170209E-01 -0.89944771430E-02  0.98669517446E-01  0.51100000000E-03 0.  1.
</event>
<event>
 8    1  0.1088270E+005  0.1043930E+01  0.7957747E-01            NaN
         13   -1    0    0    0    0  0.00000000000E+00  0.00000000000E+00  0.74505805969E-08  0.10566000000E+00  0.10566000000E+00 0.  1.
     999900   -1    0    0    0    0 -0.00000000000E+00 -0.00000000000E+00 -0.74505805969E-08  0.93827000000E+00  0.93827000000E+00 0. -1.
     999902    2    1    2    0    0 -0.96079313992E-02 -0.14392958266E-01 -0.15738793153E-01  0.10205381381E+01  0.10202700192E+01 0.  0.
     999903    2    3    3    0    0 -0.45004122354E-01 -0.12063425817E+00 -0.28360742551E-01  0.13335190187E+00  0.20010066017E-01 0.  0.
         14    1    1    2    0    0  0.96079313992E-02  0.14392958266E-01  0.15738793153E-01  0.23391861904E-01  0.00000000000E+00 0.  1.
     999901    1    3    3    0    0  0.35396190955E-01  0.10624129990E+00  0.12621949398E-01  0.88718623622E+00  0.88000000000E+00 0.  1.
        -11    1    4    4    0    0 -0.19968516911E-01 -0.67117049254E-01 -0.64052890615E-02  0.70318765754E-01  0.51100000000E-03 0.  1.
         11    1    4    4    0    0 -0.25035605443E-01 -0.53517208915E-01 -0.21955453490E-01  0.63033136118E-01  0.51100000000E-03 0. -1.
</event>
<event>
 8    1  0.1088270E+005  0.1043930E+01  0.7957747E-01            NaN
         13   -1    0    0    0    0  0.00000000000E+00  0.00000000000E+00  0.74505805969E-08  0.10566000000E+00  0.10566000000E+00 0. -1.
     999900   -1    0    0    0    0 -0.00000000000E+00 -0.00000000000E+00 -0.74505805969E-08  0.93827000000E+00  0.93827000000E+00 0.  1.
     999902    2    1    2    0    0 -0.16844600494E-01  0.90467855210E-02 -0.14153440986E-01  0.10201412467E+01  0.10198638430E+01 0.  0.
     999903    2    3    3    0    0 -0.12009956340E+00  0.19739194162E-01 -0.50630497073E-01  0.13328923499E+00  0.19723894553E-01 0.  0.
         14    1    1    2    0    0  0.16844600494E-01 -0.90467855210E-02  0.14153440986E-01  0.23788753347E-01  0.00000000000E+00 0. -1.
     999901    1    3    3    0    0  0.10325496290E+00 -0.10692408641E-01  0.36477056087E-01  0.88685201166E+00  0.88000000000E+00 0. -1.
        -11    1    4    4    0    0 -0.68147686752E-01  0.14671884747E-01 -0.19003785103E-01  0.72254940184E-01  0.51100000000E-03 0.  1.
         11    1    4    4    0    0 -0.51951876646E-01  0.50673094151E-02 -0.31626711970E-01  0.61034294808E-01  0.51100000000E-03 0. -1.
</event>
<event>
 8    1  0.1088270E+005  0.1043930E+01  0.7957747E-01            NaN
         13   -1    0    0    0    0  0.00000000000E+00  0.00000000000E+00  0.74505805969E-08  0.10566000000E+00  0.10566000000E+00 0. -1.
     999900   -1    0    0    0    0 -0.00000000000E+00 -0.00000000000E+00 -0.74505805969E-08  0.93827000000E+00  0.93827000000E+00 0. -1.
     999902    2    1    2    0    0  0.98245612768E-03 -0.33131573225E-02  0.23321152410E-01  0.10203541992E+01  0.10200817975E+01 0.  0.
     999903    2    3    3    0    0  0.15566558828E-01 -0.84744168405E-01  0.99977522011E-01  0.13315641711E+00  0.17641844545E-01 0.  0.
         14    1    1    2    0    0 -0.98245612768E-03  0.33131573225E-02 -0.23321152410E-01  0.23575800755E-01  0.00000000000E+00 0.  1.
     999901    1    3    3    0    0 -0.14584102700E-01  0.81431011082E-01 -0.76656369600E-01  0.88719778213E+00  0.88000000000E+00 0.  1.
        -11    1    4    4    0    0  0.16190861723E-01 -0.56306294426E-01  0.75917676735E-01  0.95897328207E-01  0.51100000000E-03 0. -1.
         11    1    4    4    0    0 -0.62430289464E-03 -0.28437873979E-01  0.24059845275E-01  0.37259088908E-01  0.51100000000E-03 0.  1.
</event>
<event>
 8    1  0.1088270E+005  0.1043930E+01  0.7957747E-01            NaN
         13   -1    0    0    0    0  0.00000000000E+00  0.00000000000E+00  0.74505805969E-08  0.10566000000E+00  0.10566000000E+00 0.  1.
     999900   -1    0    0    0    0 -0.00000000000E+00 -0.00000000000E+00 -0.74505805969E-08  0.93827000000E+00  0.93827000000E+00 0. -1.
     999902    2    1    2    0    0 -0.19592349395E-01  0.14860578054E-02 -0.12556282291E-01  0.10206120081E+01  0.10203455994E+01 0.  0.
     999903    2    3    3    0    0  0.86408994797E-01  0.55328350254E-01 -0.77563730704E-01  0.13024059918E+00  0.20463152975E-01 0.  0.
         14    1    1    2    0    0  0.19592349395E-01 -0.14860578054E-02  0.12556282291E-01  0.23317991929E-01  0.00000000000E+00 0. -1.
     999901    1    3    3    0    0 -0.10600134419E+00 -0.53842292448E-01  0.65007448413E-01  0.89037140889E+00  0.88000000000E+00 0.  1.
        -11    1    4    4    0    0  0.37002530053E-01  0.15418798613E-01 -0.21336087079E-01  0.45413833948E-01  0.51100000000E-03 0.  1.
         11    1    4    4    0    0  0.49406464744E-01  0.39909551640E-01 -0.56227643625E-01  0.84826765229E-01  0.51100000000E-03 0. -1.
</event>
<event>
 8    1  0.1088270E+005  0.1043930E+01  0.7957747E-01            NaN
         13   -1    0    0    0    0  0.00000000000E+00  0.00000000000E+00  0.74505805969E-08  0.10566000000E+00  0.10566000000E+00 0. -1.
     999900   -1    0    0    0    0 -0.00000000000E+00 -0.00000000000E+00 -0.74505805969E-08  0.93827000000E+00  0.93827000000E+00 0. -1.
     999902    2    1    2    0    0  0.20996875581E-01 -0.10653890931E-01  0.34876783267E-02  0.10201279397E+01  0.10198502219E+01 0.  0.
     999903    2    3    3    0    0  0.11797769086E+00  0.97701723254E-02  0.57166544384E-01  0.13293921028E+00  0.19764311899E-01 0.  0.
         14    1    1    2    0    0 -0.20996875581E-01  0.10653890931E-01 -0.34876783267E-02  0.23802060336E-01  0.00000000000E+00 0.  1.
     999901    1    3    3    0    0 -0.96980815276E-01 -0.20424063257E-01 -0.53678866057E-01  0.88718872939E+00  0.88000000000E+00 0. -1.
        -11    1    4    4    0    0  0.50821385855E-01  0.14034926442E-01  0.25271661058E-01  0.58469739131E-01  0.51100000000E-03 0. -1.
         11    1    4    4    0    0  0.67156305002E-01 -0.42647541170E-02  0.31894883326E-01  0.74469471145E-01  0.51100000000E-03 0.  1.
</event>
<event>
 8    1  0.1088270E+005  0.1043930E+01  0.7957747E-01            NaN
         13   -1    0    0    0    0  0.00000000000E+00  0.00000000000E+00  0.74505805969E-08  0.10566000000E+00  0.10566000000E+00 0. -1.
     999900   -1    0    0    0    0 -0.00000000000E+00 -0.00000000000E+00 -0.74505805969E-08  0.93827000000E+00  0.93827000000E+00 0. -1.
     999902    2    1    2    0    0 -0.70085761142E-03  0.22001380798E-01 -0.99616415146E-02  0.10197683308E+01  0.10194820558E+01 0.  0.
     999903    2    3    3    0    0 -0.62453684202E-01 -0.10926405092E+00 -0.86188754691E-02  0.12789063278E+00  0.21038855583E-01 0.  0.
         14    1    1    2    0    0  0.70085761142E-03 -0.22001380798E-01  0.99616415146E-02  0.24161669232E-01  0.00000000000E+00 0. -1.
     999901    1    3    3    0    0  0.61752826591E-01  0.13126543171E+00 -0.13427660455E-02  0.89187769799E+00  0.88000000000E+00 0. -1.
        -11    1    4    4    0    0 -0.48361216026E-01 -0.66502431361E-01 -0.10750250643E-02  0.82236229195E-01  0.51100000000E-03 0.  1.
         11    1    4    4    0    0 -0.14092468176E-01 -0.42761619556E-01 -0.75438504049E-02  0.45654403580E-01  0.51100000000E-03 0. -1.
</event>
<event>
 8    1  0.1088270E+005  0.1043930E+01  0.7957747E-01            NaN
         13   -1    0    0    0    0  0.00000000000E+00  0.00000000000E+00  0.74505805969E-08  0.10566000000E+00  0.10566000000E+00 0. -1.
     999900   -1    0    0    0    0 -0.00000000000E+00 -0.00000000000E+00 -0.74505805969E-08  0.93827000000E+00  0.93827000000E+00 0.  1.
     999902    2    1    2    0    0 -0.20985659527E-01  0.10417996628E-01  0.59891173682E-03  0.10204930366E+01  0.10202238707E+01 0.  0.
     999903    2    3    3    0    0  0.63162409573E-01 -0.18362691484E-01  0.10947949999E+00  0.12933412367E+00  0.20368510160E-01 0.  0.
         14    1    1    2    0    0  0.20985659527E-01 -0.10417996628E-01 -0.59891173682E-03  0.23436963430E-01  0.00000000000E+00 0.  1.
     999901    1    3    3    0    0 -0.84148069101E-01  0.28780688112E-01 -0.10888058825E+00  0.89115891290E+00  0.88000000000E+00 0.  1.
        -11    1    4    4    0    0  0.47471451396E-01 -0.21685080603E-01  0.75847914471E-01  0.92070346306E-01  0.51100000000E-03 0. -1.
         11    1    4    4    0    0  0.15690958177E-01  0.33223891187E-02  0.33631585519E-01  0.37263777365E-01  0.51100000000E-03 0.  1.
</event>
<event>
 8    1  0.1088270E+005  0.1043930E+01  0.7957747E-01            NaN
         13   -1    0    0    0    0  0.00000000000E+00  0.00000000000E+00  0.74505805969E-08  0.10566000000E+00  0.10566000000E+00 0.  1.
     999900   -1    0    0    0    0 -0.00000000000E+00 -0.00000000000E+00 -0.74505805969E-08  0.93827000000E+00  0.93827000000E+00 0.  1.
     999902    2    1    2    0    0  0.16886869816E-01  0.28721956321E-02  0.10132414119E-01  0.10240281987E+01  0.10238347865E+01 0.  0.
     999903    2    3    3    0    0 -0.65916096163E-01  0.98192887688E-01  0.58786002991E-01  0.13368582789E+00  0.20720316251E-01 0.  0.
         14    1    1    2    0    0 -0.16886869816E-01 -0.28721956321E-02 -0.10132414119E-01  0.19901801321E-01  0.00000000000E+00 0.  1.
     999901    1    3    3    0    0  0.82802965980E-01 -0.95320692056E-01 -0.48653588872E-01  0.89034237079E+00  0.88000000000E+00 0.  1.
        -11    1    4    4    0    0 -0.56438823068E-02  0.22503196579E-01  0.92018720450E-02  0.24963630223E-01  0.51100000000E-03 0. -1.
         11    1    4    4    0    0 -0.60272213857E-01  0.75689691109E-01  0.49584130946E-01  0.10872219767E+00  0.51100000000E-03 0.  1.
</event>
<event>
 8    1  0.1088270E+005  0.1043930E+01  0.7957747E-01            NaN
         13   -1    0    0    0    0  0.00000000000E+00  0.00000000000E+00  0.74505805969E-08  0.10566000000E+00  0.10566000000E+00 0.  1.
     999900   -1    0    0    0    0 -0.00000000000E+00 -0.00000000000E+00 -0.74505805969E-08  0.93827000000E+00  0.93827000000E+00 0. -1.
     999902    2    1    2    0    0  0.10210018916E-01  0.17876176109E-01 -0.12347845777E-01  0.10199243454E+01  0.10196417993E+01 0.  0.
     999903    2    3    3    0    0  0.78489547314E-01 -0.87432822047E-01 -0.51967586803E-01  0.13013684099E+00  0.20733062847E-01 0.  0.
         14    1    1    2    0    0 -0.10210018916E-01 -0.17876176109E-01  0.12347845777E-01  0.24005654623E-01  0.00000000000E+00 0. -1.
     999901    1    3    3    0    0 -0.68279528398E-01  0.10530899816E+00  0.39619741026E-01  0.88978750439E+00  0.88000000000E+00 0.  1.
        -11    1    4    4    0    0  0.42230856687E-01 -0.31911207858E-01 -0.25151042445E-01  0.58605515957E-01  0.51100000000E-03 0. -1.
         11    1    4    4    0    0  0.36258690627E-01 -0.55521614189E-01 -0.26816544358E-01  0.71531325029E-01  0.51100000000E-03 0.  1.
</event>
<event>
 8    1  0.1088270E+005  0.1043930E+01  0.7957747E-01            NaN
         13   -1    0    0    0    0  0.00000000000E+00  0.00000000000E+00  0.74505805969E-08  0.10566000000E+00  0.10566000000E+00 0. -1.
     999900   -1    0    0    0    0 -0.00000000000E+00 -0.00000000000E+00 -0.74505805969E-08  0.93827000000E+00  0.93827000000E+00 0.  1.
     999902    2    1    2    0    0 -0.14803704988E-02  0.12774737582E-01  0.20218275486E-01  0.10199682788E+01  0.10196867783E+01 0.  0.
     999903    2    3    3    0    0 -0.99851124636E-02  0.82781399654E-01  0.10206817277E+00  0.13336088600E+00  0.20365446771E-01 0.  0.
         14    1    1    2    0    0  0.14803704988E-02 -0.12774737582E-01 -0.20218275486E-01  0.23961721156E-01  0.00000000000E+00 0.  1.
     999901    1    3    3    0    0  0.85047419648E-02 -0.70006662072E-01 -0.81849897279E-01  0.88660739285E+00  0.88000000000E+00 0.  1.
        -11    1    4    4    0    0  0.17624300309E-02  0.43974252913E-01  0.41641680571E-01  0.60589865165E-01  0.51100000000E-03 0. -1.
         11    1    4    4    0    0 -0.11747542495E-01  0.38807146741E-01  0.60426492194E-01  0.72771020830E-01  0.51100000000E-03 0.  1.
</event>
<event>
 8    1  0.1088270E+005  0.1043930E+01  0.7957747E-01            NaN
         13   -1    0    0    0    0  0.00000000000E+00  0.00000000000E+00  0.74505805969E-08  0.10566000000E+00  0.10566000000E+00 0. -1.
     999900   -1    0    0    0    0 -0.00000000000E+00 -0.00000000000E+00 -0.74505805969E-08  0.93827000000E+00  0.93827000000E+00 0. -1.
     999902    2    1    2    0    0 -0.19401716206E-01  0.14333564135E-01 -0.33547534076E-02  0.10195756981E+01  0.10192847846E+01 0.  0.
     999903    2    3    3    0    0  0.23913048534E-01  0.11311937081E+00 -0.59043198309E-01  0.13124242313E+00  0.19252231579E-01 0.  0.
         14    1    1    2    0    0  0.19401716206E-01 -0.14333564135E-01  0.33547534076E-02  0.24354301940E-01  0.00000000000E+00 0. -1.
     999901    1    3    3    0    0 -0.43314764741E-01 -0.98785806675E-01  0.55688444901E-01  0.88833327493E+00  0.88000000000E+00 0.  1.
        -11    1    4    4    0    0  0.16602724358E-01  0.44923764406E-01 -0.31523711409E-01  0.57339345710E-01  0.51100000000E-03 0. -1.
         11    1    4    4    0    0  0.73103241764E-02  0.68195606404E-01 -0.27519486900E-01  0.73903077424E-01  0.51100000000E-03 0.  1.
</event>
<event>
 8    1  0.1088270E+005  0.1043930E+01  0.7957747E-01            NaN
         13   -1    0    0    0    0  0.00000000000E+00  0.00000000000E+00  0.74505805969E-08  0.10566000000E+00  0.10566000000E+00 0.  1.
     999900   -1    0    0    0    0 -0.00000000000E+00 -0.00000000000E+00 -0.74505805969E-08  0.93827000000E+00  0.93827000000E+00 0.  1.
     999902    2    1    2    0    0  0.44307308555E-02  0.19799530439E-01  0.16266107879E-01  0.10179254033E+01  0.10175931838E+01 0.  0.
     999903    2    3    3    0    0  0.62882281324E-01  0.43071227298E-01  0.10516128484E+00  0.13121208546E+00  0.18665573022E-01 0.  0.
         14    1    1    2    0    0 -0.44307308555E-02 -0.19799530439E-01 -0.16266107879E-01  0.26004596652E-01  0.00000000000E+00 0.  1.
     999901    1    3    3    0    0 -0.58451550469E-01 -0.23271696859E-01 -0.88895176964E-01  0.88671331788E+00  0.88000000000E+00 0.  1.
        -11    1    4    4    0    0  0.47178263955E-01  0.35587240397E-01  0.67440990594E-01  0.89670444418E-01  0.51100000000E-03 0.  1.
         11    1    4    4    0    0  0.15704017369E-01  0.74839869013E-02  0.37720294248E-01  0.41541641044E-01  0.51100000000E-03 0. -1.
</event>
<event>
 8    1  0.1088270E+005  0.1043930E+01  0.7957747E-01            NaN
         13   -1    0    0    0    0  0.00000000000E+00  0.00000000000E+00  0.74505805969E-08  0.10566000000E+00  0.10566000000E+00 0. -1.
     999900   -1    0    0    0    0 -0.00000000000E+00 -0.00000000000E+00 -0.74505805969E-08  0.93827000000E+00  0.93827000000E+00 0.  1.
     999902    2    1    2    0    0  0.18190341373E-01  0.11647846303E-01  0.95577241504E-02  0.10203098617E+01  0.10200364224E+01 0.  0.
     999903    2    3    3    0    0 -0.56873108647E-01  0.50319664243E-01  0.10500439858E+00  0.13113040922E+00  0.20065926502E-01 0.  0.
         14    1    1    2    0    0 -0.18190341373E-01 -0.11647846303E-01 -0.95577241504E-02  0.23620138309E-01  0.00000000000E+00 0.  1.
     999901    1    3    3    0    0  0.75063450020E-01 -0.38671817939E-01 -0.95446674425E-01  0.88917945247E+00  0.88000000000E+00 0.  1.
        -11    1    4    4    0    0 -0.10518296520E-01  0.18138873030E-02  0.88177483826E-02  0.13854189127E-01  0.51100000000E-03 0. -1.
         11    1    4    4    0    0 -0.46354812126E-01  0.48505776940E-01  0.96186650192E-01  0.11727622010E+00  0.51100000000E-03 0.  1.
</event>
<event>
 8    1  0.1088270E+005  0.1043930E+01  0.7957747E-01            NaN
         13   -1    0    0    0    0  0.00000000000E+00  0.00000000000E+00  0.74505805969E-08  0.10566000000E+00  0.10566000000E+00 0.  1.
     999900   -1    0    0    0    0 -0.00000000000E+00 -0.00000000000E+00 -0.74505805969E-08  0.93827000000E+00  0.93827000000E+00 0.  1.
     999902    2    1    2    0    0 -0.11605346642E-01  0.10844488481E-01 -0.28751390507E-02  0.10277883326E+01  0.10276615704E+01 0.  0.
     999903    2    3    3    0    0  0.10583655299E-01 -0.12990606415E+00  0.33028450918E-01  0.13560441793E+00  0.17609097861E-01 0.  0.
         14    1    1    2    0    0  0.11605346642E-01 -0.10844488481E-01  0.28751390507E-02  0.16141667376E-01  0.00000000000E+00 0.  1.
     999901    1    3    3    0    0 -0.22189001941E-01  0.14075055264E+00 -0.35903589969E-01  0.89218391470E+00  0.88000000000E+00 0. -1.
        -11    1    4    4    0    0  0.13241666484E-01 -0.81074899792E-01  0.26178137861E-01  0.86220862501E-01  0.51100000000E-03 0. -1.
         11    1    4    4    0    0 -0.26580111855E-02 -0.48831164361E-01  0.68503130573E-02  0.49383555424E-01  0.51100000000E-03 0.  1.
</event>
<event>
 8    1  0.1088270E+005  0.1043930E+01  0.7957747E-01            NaN
         13   -1    0    0    0    0  0.00000000000E+00  0.00000000000E+00  0.74505805969E-08  0.10566000000E+00  0.10566000000E+00 0.  1.
     999900   -1    0    0    0    0 -0.00000000000E+00 -0.00000000000E+00 -0.74505805969E-08  0.93827000000E+00  0.93827000000E+00 0.  1.
     999902    2    1    2    0    0 -0.18961962831E-01 -0.12666329732E-02 -0.15047436541E-01  0.10196898321E+01  0.10194016715E+01 0.  0.
     999903    2    3    3    0    0 -0.17015963158E-01  0.14892998383E-02 -0.12963681368E+00  0.13225414010E+00  0.19841700946E-01 0.  0.
         14    1    1    2    0    0  0.18961962831E-01  0.12666329732E-02  0.15047436541E-01  0.24240167903E-01  0.00000000000E+00 0.  1.
     999901    1    3    3    0    0 -0.19459996730E-02 -0.27559328115E-02  0.11458937714E+00  0.88743569200E+00  0.88000000000E+00 0. -1.
        -11    1    4    4    0    0  0.28735595384E-02  0.35540828328E-02 -0.47272381669E-01  0.47495558096E-01  0.51100000000E-03 0. -1.
         11    1    4    4    0    0 -0.19889522696E-01 -0.20647829945E-02 -0.82364432009E-01  0.84758582003E-01  0.51100000000E-03 0.  1.
</event>
<event>
 8    1  0.1088270E+005  0.1043930E+01  0.7957747E-01            NaN
         13   -1    0    0    0    0  0.00000000000E+00  0.00000000000E+00  0.74505805969E-08  0.10566000000E+00  0.10566000000E+00 0.  1.
     999900   -1    0    0    0    0 -0.00000000000E+00 -0.00000000000E+00 -0.74505805969E-08  0.93827000000E+00  0.93827000000E+00 0. -1.
     999902    2    1    2    0    0  0.23716697770E-01 -0.15900032939E-02 -0.12854966863E-02  0.10201253289E+01  0.10198475496E+01 0.  0.
     999903    2    3    3    0    0  0.20577925986E-01 -0.74976426802E-01  0.10323180382E+00  0.13090134974E+00  0.20819280204E-01 0.  0.
         14    1    1    2    0    0 -0.23716697770E-01  0.15900032939E-02  0.12854966863E-02  0.23804671082E-01  0.00000000000E+00 0. -1.
     999901    1    3    3    0    0  0.31387717846E-02  0.73386423508E-01 -0.10451730051E+00  0.88922397918E+00  0.88000000000E+00 0. -1.
        -11    1    4    4    0    0  0.61820654058E-02 -0.21907360245E-01  0.47143190578E-01  0.52353528099E-01  0.51100000000E-03 0.  1.
         11    1    4    4    0    0  0.14395860580E-01 -0.53069066558E-01  0.56088613247E-01  0.78547821638E-01  0.51100000000E-03 0. -1.
</event>
<event>
 8    1  0.1088270E+005  0.1043930E+01  0.7957747E-01            NaN
         13   -1    0    0    0    0  0.00000000000E+00  0.00000000000E+00  0.74505805969E-08  0.10566000000E+00  0.10566000000E+00 0. -1.
     999900   -1    0    0    0    0 -0.00000000000E+00 -0.00000000000E+00 -0.74505805969E-08  0.93827000000E+00  0.93827000000E+00 0.  1.
     999902    2    1    2    0    0  0.64164401343E-02 -0.56372398026E-02  0.22109562156E-01  0.10202280609E+01  0.10199527020E+01 0.  0.
     999903    2    3    3    0    0 -0.12678321336E+00 -0.14299520921E-01 -0.12033451315E-01  0.12950760638E+00  0.18680381999E-01 0.  0.
         14    1    1    2    0    0 -0.64164401343E-02  0.56372398026E-02 -0.22109562156E-01  0.23701939062E-01  0.00000000000E+00 0.  1.
     999901    1    3    3    0    0  0.13319965349E+00  0.86622811180E-02  0.34143013470E-01  0.89072045456E+00  0.88000000000E+00 0.  1.
        -11    1    4    4    0    0 -0.30859225705E-01  0.45200900832E-02 -0.30823083117E-02  0.31344613110E-01  0.51100000000E-03 0.  1.
         11    1    4    4    0    0 -0.95923987651E-01 -0.18819611004E-01 -0.89511430030E-02  0.98162993268E-01  0.51100000000E-03 0. -1.
</event>
<event>
 8    1  0.1088270E+005  0.1043930E+01  0.7957747E-01            NaN
         13   -1    0    0    0    0  0.00000000000E+00  0.00000000000E+00  0.74505805969E-08  0.10566000000E+00  0.10566000000E+00 0.  1.
     999900   -1    0    0    0    0 -0.00000000000E+00 -0.00000000000E+00 -0.74505805969E-08  0.93827000000E+00  0.93827000000E+00 0. -1.
     999902    2    1    2    0    0  0.11332953258E-01 -0.11160498542E-01  0.17041499359E-01  0.10206189456E+01  0.10203526973E+01 0.  0.
     999903    2    3    3    0    0 -0.89176369323E-02  0.92300259330E-01 -0.86458665277E-01  0.12830369922E+00  0.19694575691E-01 0.  0.
         14    1    1    2    0    0 -0.11332953258E-01  0.11160498542E-01 -0.17041499359E-01  0.23311054409E-01  0.00000000000E+00 0. -1.
     999901    1    3    3    0    0  0.20250590191E-01 -0.10346075787E+00  0.10350016464E+00  0.89231524637E+00  0.88000000000E+00 0.  1.
        -11    1    4    4    0    0 -0.28521880524E-02  0.75331844555E-01 -0.60309828273E-01  0.96543038528E-01  0.51100000000E-03 0. -1.
         11    1    4    4    0    0 -0.60654488799E-02  0.16968414775E-01 -0.26148837004E-01  0.31760660694E-01  0.51100000000E-03 0.  1.
</event>
<event>
 8    1  0.1088270E+005  0.1043930E+01  0.7957747E-01            NaN
         13   -1    0    0    0    0  0.00000000000E+00  0.00000000000E+00  0.74505805969E-08  0.10566000000E+00  0.10566000000E+00 0. -1.
     999900   -1    0    0    0    0 -0.00000000000E+00 -0.00000000000E+00 -0.74505805969E-08  0.93827000000E+00  0.93827000000E+00 0. -1.
     999902    2    1    2    0    0 -0.12292925719E-01 -0.19370351014E-01 -0.50960462653E-02  0.10204290169E+01  0.10201583614E+01 0.  0.
     999903    2    3    3    0    0  0.11344026655E+00  0.21298967410E-01 -0.54233819588E-01  0.12920662606E+00  0.20753432026E-01 0.  0.
         14    1    1    2    0    0  0.12292925719E-01  0.19370351014E-01  0.50960462653E-02  0.23500983143E-01  0.00000000000E+00 0. -1.
     999901    1    3    3    0    0 -0.12573319227E+00 -0.40669318424E-01  0.49137773323E-01  0.89122239080E+00  0.88000000000E+00 0.  1.
        -11    1    4    4    0    0  0.12964077607E-02  0.83844252462E-03  0.15912200092E-02  0.22752496713E-02  0.51100000000E-03 0.  1.
         11    1    4    4    0    0  0.11214385879E+00  0.20460524885E-01 -0.55825039598E-01  0.12693137638E+00  0.51100000000E-03 0. -1.
</event>
<event>
 8    1  0.1088270E+005  0.1043930E+01  0.7957747E-01            NaN
         13   -1    0    0    0    0  0.00000000000E+00  0.00000000000E+00  0.74505805969E-08  0.10566000000E+00  0.10566000000E+00 0. -1.
     999900   -1    0    0    0    0 -0.00000000000E+00 -0.00000000000E+00 -0.74505805969E-08  0.93827000000E+00  0.93827000000E+00 0.  1.
     999902    2    1    2    0    0  0.21368409381E-01  0.10118458814E-01 -0.27050346497E-02  0.10201327451E+01  0.10198551408E+01 0.  0.
     999903    2    3    3    0    0  0.94146935399E-01  0.46187603530E-01  0.78700579635E-01  0.13265059256E+00  0.20135995273E-01 0.  0.
         14    1    1    2    0    0 -0.21368409381E-01 -0.10118458814E-01  0.27050346497E-02  0.23797254899E-01  0.00000000000E+00 0. -1.
     999901    1    3    3    0    0 -0.72778526017E-01 -0.36069144716E-01 -0.81405614285E-01  0.88748215255E+00  0.88000000000E+00 0.  1.
        -11    1    4    4    0    0  0.62995659002E-01  0.27230672273E-01  0.39836262793E-01  0.79354593565E-01  0.51100000000E-03 0.  1.
         11    1    4    4    0    0  0.31151276397E-01  0.18956931257E-01  0.38864316842E-01  0.53295998991E-01  0.51100000000E-03 0. -1.
</event>
<event>
 8    1  0.1088270E+005  0.1043930E+01  0.7957747E-01            NaN
         13   -1    0    0    0    0  0.00000000000E+00  0.00000000000E+00  0.74505805969E-08  0.10566000000E+00  0.10566000000E+00 0.  1.
     999900   -1    0    0    0    0 -0.00000000000E+00 -0.00000000000E+00 -0.74505805969E-08  0.93827000000E+00  0.93827000000E+00 0.  1.
     999902    2    1    2    0    0 -0.80004900610E-03  0.24069509876E-01  0.51991912039E-03  0.10198415858E+01  0.10195570648E+01 0.  0.
     999903    2    3    3    0    0 -0.12304974331E-01 -0.72702537728E-01 -0.10328783620E+00  0.12839711607E+00  0.19503100324E-01 0.  0.
         14    1    1    2    0    0  0.80004900610E-03 -0.24069509876E-01 -0.51991912039E-03  0.24088414227E-01  0.00000000000E+00 0.  1.
     999901    1    3    3    0    0  0.11504925325E-01  0.96772047605E-01  0.10380775532E+00  0.89144446971E+00  0.88000000000E+00 0. -1.
        -11    1    4    4    0    0 -0.26528441028E-02 -0.27695653004E-01 -0.55260534996E-01  0.61871436270E-01  0.51100000000E-03 0. -1.
         11    1    4    4    0    0 -0.96521302281E-02 -0.45006884725E-01 -0.48027301203E-01  0.66525679797E-01  0.51100000000E-03 0.  1.
</event>
<event>
 8    1  0.1216960E+005  0.1043930E+01  0.7957747E-01            NaN
         13   -1    0    0    0    0  0.00000000000E+00  0.00000000000E+00  0.74505805969E-08  0.10566000000E+00  0.10566000000E+00 0.  1.
     999900   -1    0    0    0    0 -0.00000000000E+00 -0.00000000000E+00 -0.74505805969E-08  0.93827000000E+00  0.93827000000E+00 0. -1.
     999902    2    1    2    0    0  0.37613793431E-02 -0.23527203373E-02 -0.23731166046E-01  0.10197876822E+01  0.10195018711E+01 0.  0.
     999903    2    3    3    0    0  0.45743437531E-01 -0.11770516663E-01 -0.12305178490E+00  0.13315598107E+00  0.18914713541E-01 0.  0.
         14    1    1    2    0    0 -0.37613793431E-02  0.23527203373E-02  0.23731166046E-01  0.24142317814E-01  0.00000000000E+00 0.  1.
     999901    1    3    3    0    0 -0.41982058188E-01  0.94177963256E-02  0.99320618851E-01  0.88663170112E+00  0.88000000000E+00 0.  1.
        -11    1    4    4    0    0  0.28535643952E-01  0.14968189325E-02 -0.59898027321E-01  0.66366845945E-01  0.51100000000E-03 0.  1.
         11    1    4    4    0    0  0.17207793579E-01 -0.13267335595E-01 -0.63153757575E-01  0.66789135123E-01  0.51100000000E-03 0. -1.
</event>
<event>
 8    1  0.1088270E+005  0.1043930E+01  0.7957747E-01            NaN
         13   -1    0    0    0    0  0.00000000000E+00  0.00000000000E+00  0.74505805969E-08  0.10566000000E+00  0.10566000000E+00 0.  1.
     999900   -1    0    0    0    0 -0.00000000000E+00 -0.00000000000E+00 -0.74505805969E-08  0.93827000000E+00  0.93827000000E+00 0. -1.
     999902    2    1    2    0    0 -0.17487549597E-01 -0.66760104297E-02  0.18576900912E-01  0.10175579551E+01  0.10172161556E+01 0.  0.
     999903    2    3    3    0    0  0.95078625399E-01  0.29548820389E-01 -0.72725815740E-01  0.12496646498E+00  0.20359157645E-01 0.  0.
         14    1    1    2    0    0  0.17487549597E-01  0.66760104297E-02 -0.18576900912E-01  0.26372044927E-01  0.00000000000E+00 0. -1.
     999901    1    3    3    0    0 -0.11256617500E+00 -0.36224830819E-01  0.91302716651E-01  0.89259149009E+00  0.88000000000E+00 0.  1.
        -11    1    4    4    0    0  0.58274898549E-01  0.93591650223E-02 -0.49217069464E-01  0.76851407394E-01  0.51100000000E-03 0. -1.
         11    1    4    4    0    0  0.36803726850E-01  0.20189655367E-01 -0.23508746276E-01  0.48115057585E-01  0.51100000000E-03 0.  1.
</event>
<event>
 8    1  0.1088270E+005  0.1043930E+01  0.7957747E-01            NaN
         13   -1    0    0    0    0  0.00000000000E+00  0.00000000000E+00  0.74505805969E-08  0.10566000000E+00  0.10566000000E+00 0. -1.
     999900   -1    0    0    0    0 -0.00000000000E+00 -0.00000000000E+00 -0.74505805969E-08  0.93827000000E+00  0.93827000000E+00 0. -1.
     999902    2    1    2    0    0  0.93387833609E-02 -0.24473414414E-01 -0.20132143063E-02  0.10176580774E+01  0.10173189021E+01 0.  0.
     999903    2    3    3    0    0  0.12426606378E+00  0.92395613464E-02 -0.27622824391E-01  0.12917583406E+00  0.19898532029E-01 0.  0.
         14    1    1    2    0    0 -0.93387833609E-02  0.24473414414E-01  0.20132143063E-02  0.26271922648E-01  0.00000000000E+00 0. -1.
     999901    1    3    3    0    0 -0.11492728042E+00 -0.33712975761E-01  0.25609610085E-01  0.88848224329E+00  0.88000000000E+00 0. -1.
        -11    1    4    4    0    0  0.62438082724E-01 -0.53051420244E-02 -0.13146881913E-01  0.64029370848E-01  0.51100000000E-03 0.  1.
         11    1    4    4    0    0  0.61827981053E-01  0.14544703371E-01 -0.14475942478E-01  0.65146463211E-01  0.51100000000E-03 0. -1.
</event>
<event>
 8    1  0.1088270E+005  0.1043930E+01  0.7957747E-01            NaN
         13   -1    0    0    0    0  0.00000000000E+00  0.00000000000E+00  0.74505805969E-08  0.10566000000E+00  0.10566000000E+00 0. -1.
     999900   -1    0    0    0    0 -0.00000000000E+00 -0.00000000000E+00 -0.74505805969E-08  0.93827000000E+00  0.93827000000E+00 0.  1.
     999902    2    1    2    0    0  0.57260301393E-02 -0.37938207082E-03 -0.24523865862E-01  0.10187436674E+01  0.10184322798E+01 0.  0.
     999903    2    3    3    0    0  0.78182709351E-01 -0.64046738197E-02 -0.10449296008E+00  0.13213138997E+00  0.19656287023E-01 0.  0.
         14    1    1    2    0    0 -0.57260301393E-02  0.37938207082E-03  0.24523865862E-01  0.25186332578E-01  0.00000000000E+00 0. -1.
     999901    1    3    3    0    0 -0.72456679212E-01  0.60252917488E-02  0.79969094220E-01  0.88661227745E+00  0.88000000000E+00 0. -1.
        -11    1    4    4    0    0  0.47539785567E-01  0.57717524683E-02 -0.62153567632E-01  0.78464459654E-01  0.51100000000E-03 0.  1.
         11    1    4    4    0    0  0.30642923784E-01 -0.12176426288E-01 -0.42339392450E-01  0.53666930313E-01  0.51100000000E-03 0. -1.
</event>
<event>
 7    1  0.1088270E+005  0.1043930E+01  0.7957747E-01            NaN
         13   -1    0    0    0    0  0.00000000000E+00  0.00000000000E+00  0.74505805969E-08  0.10566000000E+00  0.10566000000E+00 0. -1.
     999900   -1    0    0    0    0 -0.00000000000E+00 -0.00000000000E+00 -0.74505805969E-08  0.93827000000E+00  0.93827000000E+00 0. -1.
     999903    2    1    2    0    0 -0.60163739259E-02 -0.10075485932E+00 -0.48789160724E-01  0.11387968380E+00  0.20011540328E-01 0.  0.
         14    1    1    2    0    0  0.30126817076E-01 -0.25397995348E-01  0.38630829774E-02  0.39593013082E-01  0.00000000000E+00 0. -1.
     999901    1    1    2    0    0 -0.24110443150E-01  0.12615285467E+00  0.44926077747E-01  0.89045730312E+00  0.88000000000E+00 0.  1.
        -11    1    3    3    0    0  0.37789988856E-02 -0.73801590091E-02 -0.55413645111E-03  0.83256091539E-02  0.51100000000E-03 0.  1.
         11    1    3    3    0    0 -0.97953728115E-02 -0.93374700314E-01 -0.48235024273E-01  0.10555407465E+00  0.51100000000E-03 0. -1.
</event>
<event>
 8    1  0.1088270E+005  0.1043930E+01  0.7957747E-01            NaN
         13   -1    0    0    0    0  0.00000000000E+00  0.00000000000E+00  0.74505805969E-08  0.10566000000E+00  0.10566000000E+00 0. -1.
     999900   -1    0    0    0    0 -0.00000000000E+00 -0.00000000000E+00 -0.74505805969E-08  0.93827000000E+00  0.93827000000E+00 0.  1.
     999902    2    1    2    0    0  0.21412447237E-01 -0.95342376499E-02  0.49406813293E-02  0.10199757746E+01  0.10196944522E+01 0.  0.
     999903    2    3    3    0    0  0.49374669707E-01  0.11182167006E-01  0.11746945795E+00  0.13212793801E+00  0.33103165759E-01 0.  0.
         14    1    1    2    0    0 -0.21412447237E-01  0.95342376499E-02 -0.49406813293E-02  0.23954225436E-01  0.00000000000E+00 0. -1.
     999901    1    3    3    0    0 -0.27962222471E-01 -0.20716404656E-01 -0.11252877662E+00  0.88784783656E+00  0.88000000000E+00 0.  1.
        -11    1    4    4    0    0  0.21619161674E-01  0.21854779104E-01  0.59368413440E-01  0.66857229651E-01  0.51100000000E-03 0.  1.
         11    1    4    4    0    0  0.27755508033E-01 -0.10672612098E-01  0.58101044512E-01  0.65270708358E-01  0.51100000000E-03 0. -1.
</event>
<event>
 8    1  0.1088270E+005  0.1043930E+01  0.7957747E-01            NaN
         13   -1    0    0    0    0  0.00000000000E+00  0.00000000000E+00  0.74505805969E-08  0.10566000000E+00  0.10566000000E+00 0. -1.
     999900   -1    0    0    0    0 -0.00000000000E+00 -0.00000000000E+00 -0.74505805969E-08  0.93827000000E+00  0.93827000000E+00 0. -1.
     999902    2    1    2    0    0 -0.62472017472E-02 -0.39780854405E-02 -0.22903337416E-01  0.10198589477E+01  0.10195748416E+01 0.  0.
     999903    2    3    3    0    0 -0.12904820826E+00 -0.37970195469E-02  0.60695463255E-02  0.13085976437E+00  0.20483679542E-01 0.  0.
         14    1    1    2    0    0  0.62472017472E-02  0.39780854405E-02  0.22903337416E-01  0.24071052287E-01  0.00000000000E+00 0. -1.
     999901    1    3    3    0    0  0.12280100651E+00 -0.18106589360E-03 -0.28972883741E-01  0.88899918334E+00  0.88000000000E+00 0.  1.
        -11    1    4    4    0    0 -0.61502871571E-01  0.13666918459E-02  0.12613962894E-01  0.62800033750E-01  0.51100000000E-03 0.  1.
         11    1    4    4    0    0 -0.67545336686E-01 -0.51637113928E-02 -0.65444165687E-02  0.68059730624E-01  0.51100000000E-03 0. -1.
</event>
<event>
 8    1  0.1088270E+005  0.1043930E+01  0.7957747E-01            NaN
         13   -1    0    0    0    0  0.00000000000E+00  0.00000000000E+00  0.74505805969E-08  0.10566000000E+00  0.10566000000E+00 0.  1.
     999900   -1    0    0    0    0 -0.00000000000E+00 -0.00000000000E+00 -0.74505805969E-08  0.93827000000E+00  0.93827000000E+00 0.  1.
     999902    2    1    2    0    0  0.20430334103E-01 -0.12057113204E-01  0.35903141228E-02  0.10199370242E+01  0.10196547801E+01 0.  0.
     999903    2    3    3    0    0 -0.98181238255E-01  0.28052954434E-02  0.80473943189E-01  0.12853325001E+00  0.19932776986E-01 0.  0.
         14    1    1    2    0    0 -0.20430334103E-01  0.12057113204E-01 -0.35903141228E-02  0.23992975761E-01  0.00000000000E+00 0.  1.
     999901    1    3    3    0    0  0.11861157236E+00 -0.14862408648E-01 -0.76883629066E-01  0.89140377423E+00  0.88000000000E+00 0.  1.
        -11    1    4    4    0    0 -0.35052919512E-01 -0.83877163151E-02  0.26798818120E-01  0.44916575169E-01  0.51100000000E-03 0. -1.
         11    1    4    4    0    0 -0.63128318744E-01  0.11193011758E-01  0.53675125069E-01  0.83616674843E-01  0.51100000000E-03 0.  1.
</event>
<event>
 8    1  0.1088270E+005  0.1043930E+01  0.7957747E-01            NaN
         13   -1    0    0    0    0  0.00000000000E+00  0.00000000000E+00  0.74505805969E-08  0.10566000000E+00  0.10566000000E+00 0.  1.
     999900   -1    0    0    0    0 -0.00000000000E+00 -0.00000000000E+00 -0.74505805969E-08  0.93827000000E+00  0.93827000000E+00 0. -1.
     999902    2    1    2    0    0 -0.86362171530E-02 -0.66188405265E-02  0.20941302512E-01  0.10203306049E+01  0.10200576513E+01 0.  0.
     999903    2    3    3    0    0  0.57807471759E-01 -0.11440727898E+00 -0.14721683602E-01  0.13055256529E+00  0.19912685929E-01 0.  0.
         14    1    1    2    0    0  0.86362171530E-02  0.66188405265E-02 -0.20941302512E-01  0.23599395067E-01  0.00000000000E+00 0. -1.
     999901    1    3    3    0    0 -0.66443688912E-01  0.10778843845E+00  0.35662986114E-01  0.88977803965E+00  0.88000000000E+00 0.  1.
        -11    1    4    4    0    0  0.23273093672E-01 -0.26925959197E-01 -0.20802799962E-02  0.35654352520E-01  0.51100000000E-03 0.  1.
         11    1    4    4    0    0  0.34534378086E-01 -0.87481319779E-01 -0.12641403606E-01  0.94898212766E-01  0.51100000000E-03 0. -1.
</event>
<event>
 8    1  0.1088270E+005  0.1043930E+01  0.7957747E-01            NaN
         13   -1    0    0    0    0  0.00000000000E+00  0.00000000000E+00  0.74505805969E-08  0.10566000000E+00  0.10566000000E+00 0.  1.
     999900   -1    0    0    0    0 -0.00000000000E+00 -0.00000000000E+00 -0.74505805969E-08  0.93827000000E+00  0.93827000000E+00 0. -1.
     999902    2    1    2    0    0  0.12657858754E-02  0.20041113762E-01  0.12877790443E-01  0.10200744778E+01  0.10197954963E+01 0.  0.
     999903    2    3    3    0    0 -0.21394072751E-01 -0.11390318463E+00  0.52423706994E-01  0.12877294417E+00  0.20064502896E-01 0.  0.
         14    1    1    2    0    0 -0.12657858754E-02 -0.20041113762E-01 -0.12877790443E-01  0.23855522241E-01  0.00000000000E+00 0.  1.
     999901    1    3    3    0    0  0.22659858627E-01  0.13394429839E+00 -0.39545916551E-01  0.89130153359E+00  0.88000000000E+00 0. -1.
        -11    1    4    4    0    0 -0.13408796572E-01 -0.10230055104E+00  0.49236957173E-01  0.11432295325E+00  0.51100000000E-03 0. -1.
         11    1    4    4    0    0 -0.79852761792E-02 -0.11602633595E-01  0.31867498210E-02  0.14449990914E-01  0.51100000000E-03 0.  1.
</event>
<event>
 8    1  0.1088270E+005  0.1043930E+01  0.7957747E-01            NaN
         13   -1    0    0    0    0  0.00000000000E+00  0.00000000000E+00  0.74505805969E-08  0.10566000000E+00  0.10566000000E+00 0. -1.
     999900   -1    0    0    0    0 -0.00000000000E+00 -0.00000000000E+00 -0.74505805969E-08  0.93827000000E+00  0.93827000000E+00 0.  1.
     999902    2    1    2    0    0 -0.56266649489E-02 -0.21407157368E-01 -0.68861834038E-02  0.10207492911E+01  0.10204860459E+01 0.  0.
     999903    2    3    3    0    0  0.21933715581E-01 -0.99852019039E-01  0.81733084722E-01  0.13239882780E+00  0.19940884601E-01 0.  0.
         14    1    1    2    0    0  0.56266649489E-02  0.21407157368E-01  0.68861834038E-02  0.23180708939E-01  0.00000000000E+00 0. -1.
     999901    1    3    3    0    0 -0.27560380530E-01  0.78444861671E-01 -0.88619268126E-01  0.88835046326E+00  0.88000000000E+00 0.  1.
        -11    1    4    4    0    0  0.79294712453E-02 -0.74625670864E-01  0.54800614864E-01  0.92925969334E-01  0.51100000000E-03 0.  1.
         11    1    4    4    0    0  0.14004244335E-01 -0.25226348175E-01  0.26932469859E-01  0.39472858464E-01  0.51100000000E-03 0. -1.
</event>
<event>
 8    1  0.1088270E+005  0.1043930E+01  0.7957747E-01            NaN
         13   -1    0    0    0    0  0.00000000000E+00  0.00000000000E+00  0.74505805969E-08  0.10566000000E+00  0.10566000000E+00 0.  1.
     999900   -1    0    0    0    0 -0.00000000000E+00 -0.00000000000E+00 -0.74505805969E-08  0.93827000000E+00  0.93827000000E+00 0.  1.
     999902    2    1    2    0    0  0.13451189318E-01  0.58740077114E-02 -0.18835441857E-01  0.10200508809E+01  0.10197713407E+01 0.  0.
     999903    2    3    3    0    0  0.24579439382E-01  0.12570722790E+00 -0.23857995112E-01  0.13184535023E+00  0.20187532306E-01 0.  0.
         14    1    1    2    0    0 -0.13451189318E-01 -0.58740077114E-02  0.18835441857E-01  0.23879119134E-01  0.00000000000E+00 0. -1.
     999901    1    3    3    0    0 -0.11128250064E-01 -0.11983322019E+00  0.50225532553E-02  0.88820553064E+00  0.88000000000E+00 0.  1.
        -11    1    4    4    0    0  0.27923827554E-01  0.10335495235E+00 -0.19664329877E-01  0.10885280571E+00  0.51100000000E-03 0.  1.
         11    1    4    4    0    0 -0.33443881719E-02  0.22352275550E-01 -0.41936652350E-02  0.22992544522E-01  0.51100000000E-03 0. -1.
</event>
<event>
 8    1  0.1088270E+005  0.1043930E+01  0.7957747E-01            NaN
         13   -1    0    0    0    0  0.00000000000E+00  0.00000000000E+00  0.74505805969E-08  0.10566000000E+00  0.10566000000E+00 0.  1.
     999900   -1    0    0    0    0 -0.00000000000E+00 -0.00000000000E+00 -0.74505805969E-08  0.93827000000E+00  0.93827000000E+00 0. -1.
     999902    2    1    2    0    0 -0.21158607964E-01  0.73321114039E-02  0.77711621144E-02  0.10202268882E+01  0.10199515017E+01 0.  0.
     999903    2    3    3    0    0  0.72748772770E-01 -0.51832234304E-01 -0.89812757302E-01  0.12790315922E+00  0.17717852927E-01 0.  0.
         14    1    1    2    0    0  0.21158607964E-01 -0.73321114039E-02 -0.77711621144E-02  0.23703111805E-01  0.00000000000E+00 0.  1.
     999901    1    3    3    0    0 -0.93907380734E-01  0.59164345708E-01  0.97583919417E-01  0.89232372897E+00  0.88000000000E+00 0.  1.
        -11    1    4    4    0    0  0.91489605625E-02 -0.28716892518E-03 -0.80601245578E-02  0.12207074762E-01  0.51100000000E-03 0. -1.
         11    1    4    4    0    0  0.63599812207E-01 -0.51545065379E-01 -0.81752632744E-01  0.11569608446E+00  0.51100000000E-03 0.  1.
</event>
<event>
 8    1  0.1088270E+005  0.1043930E+01  0.7957747E-01            NaN
         13   -1    0    0    0    0  0.00000000000E+00  0.00000000000E+00  0.74505805969E-08  0.10566000000E+00  0.10566000000E+00 0. -1.
     999900   -1    0    0    0    0 -0.00000000000E+00 -0.00000000000E+00 -0.74505805969E-08  0.93827000000E+00  0.93827000000E+00 0. -1.
     999902    2    1    2    0    0 -0.13832395381E-01  0.19388937179E-01 -0.41599689368E-02  0.10197520888E+01  0.10194654243E+01 0.  0.
     999903    2    3    3    0    0 -0.98083678933E-01 -0.80602191561E-01 -0.19304441768E-01  0.12996230486E+00  0.20010443634E-01 0.  0.
         14    1    1    2    0    0  0.13832395381E-01 -0.19388937179E-01  0.41599689368E-02  0.24177911168E-01  0.00000000000E+00 0. -1.
     999901    1    3    3    0    0  0.84251283552E-01  0.99991128740E-01  0.15144472831E-01  0.88978978397E+00  0.88000000000E+00 0.  1.
        -11    1    4    4    0    0 -0.70810040018E-01 -0.46414704535E-01 -0.15340409950E-01  0.86046358801E-01  0.51100000000E-03 0.  1.
         11    1    4    4    0    0 -0.27273638915E-01 -0.34187487026E-01 -0.39640318183E-02  0.43915946057E-01  0.51100000000E-03 0. -1.
</event>
<event>
 7    1  0.1088270E+005  0.1043930E+01  0.7957747E-01            NaN
         13   -1    0    0    0    0  0.00000000000E+00  0.00000000000E+00  0.74505805969E-08  0.10566000000E+00  0.10566000000E+00 0.  1.
     999900   -1    0    0    0    0 -0.00000000000E+00 -0.00000000000E+00 -0.74505805969E-08  0.93827000000E+00  0.93827000000E+00 0. -1.
     999902    2    1    2    0    0 -0.10720926379E-01 -0.13408351918E-01 -0.79858082190E-02  0.10249960280E+01  0.10248211366E+01 0.  0.
         14    1    1    2    0    0  0.10720926379E-01  0.13408351918E-01  0.79858082190E-02  0.18933972021E-01  0.00000000000E+00 0.  1.
     999901    1    3    3    0    0  0.68604669572E-01 -0.75963494173E-01 -0.73415584412E-01  0.88896957269E+00  0.88000000000E+00 0. -1.
        -11    1    3    3    0    0 -0.62583879603E-01  0.26700694793E-01  0.68221796259E-01  0.96354261423E-01  0.51100000000E-03 0. -1.
         11    1    3    3    0    0 -0.16741716348E-01  0.35854447462E-01 -0.27920200666E-02  0.39672193866E-01  0.51100000000E-03 0.  1.
</event>
<event>
 8    1  0.1088270E+005  0.1043930E+01  0.7957747E-01            NaN
         13   -1    0    0    0    0  0.00000000000E+00  0.00000000000E+00  0.74505805969E-08  0.10566000000E+00  0.10566000000E+00 0.  1.
     999900   -1    0    0    0    0 -0.00000000000E+00 -0.00000000000E+00 -0.74505805969E-08  0.93827000000E+00  0.93827000000E+00 0. -1.
     999902    2    1    2    0    0  0.22947512421E-03 -0.20014069627E-01 -0.10793606798E-01  0.10211897804E+01  0.10209365553E+01 0.  0.
     999903    2    3    3    0    0  0.10307137688E+00 -0.60628166443E-01 -0.54895764729E-01  0.13317459921E+00  0.20553481233E-01 0.  0.
         14    1    1    2    0    0 -0.22947512421E-03  0.20014069627E-01  0.10793606798E-01  0.22740219646E-01  0.00000000000E+00 0.  1.
     999901    1    3    3    0    0 -0.10284190175E+00  0.40614096816E-01  0.44102157931E-01  0.88801518115E+00  0.88000000000E+00 0. -1.
        -11    1    4    4    0    0  0.81158058476E-01 -0.37984045721E-01 -0.37127012881E-01  0.96995331802E-01  0.51100000000E-03 0. -1.
         11    1    4    4    0    0  0.21913318401E-01 -0.22644120722E-01 -0.17768751847E-01  0.36179267403E-01  0.51100000000E-03 0.  1.
</event>
<event>
 8    1  0.1088270E+005  0.1043930E+01  0.7957747E-01            NaN
         13   -1    0    0    0    0  0.00000000000E+00  0.00000000000E+00  0.74505805969E-08  0.10566000000E+00  0.10566000000E+00 0. -1.
     999900   -1    0    0    0    0 -0.00000000000E+00 -0.00000000000E+00 -0.74505805969E-08  0.93827000000E+00  0.93827000000E+00 0. -1.
     999902    2    1    2    0    0  0.12447271001E-02 -0.23405047286E-01 -0.12811389818E-03  0.10204915274E+01  0.10202223265E+01 0.  0.
     999903    2    3    3    0    0 -0.11772300611E+00  0.45541683750E-01 -0.21216151913E-01  0.12956410129E+00  0.20099256609E-01 0.  0.
         14    1    1    2    0    0 -0.12447271001E-02  0.23405047286E-01  0.12811389818E-03  0.23438472586E-01  0.00000000000E+00 0.  1.
     999901    1    3    3    0    0  0.11896773321E+00 -0.68946731036E-01  0.21088038015E-01  0.89092742612E+00  0.88000000000E+00 0. -1.
        -11    1    4    4    0    0 -0.44118354621E-01  0.27465469133E-01 -0.10414773230E-01  0.53004809514E-01  0.51100000000E-03 0. -1.
         11    1    4    4    0    0 -0.73604651487E-01  0.18076214617E-01 -0.10801378683E-01  0.76559291780E-01  0.51100000000E-03 0.  1.
</event>
<event>
 8    1  0.1088270E+005  0.1043930E+01  0.7957747E-01            NaN
         13   -1    0    0    0    0  0.00000000000E+00  0.00000000000E+00  0.74505805969E-08  0.10566000000E+00  0.10566000000E+00 0.  1.
     999900   -1    0    0    0    0 -0.00000000000E+00 -0.00000000000E+00 -0.74505805969E-08  0.93827000000E+00  0.93827000000E+00 0.  1.
     999902    2    1    2    0    0  0.17248575212E-01 -0.27594496736E-02  0.15730176622E-01  0.10204232698E+01  0.10201524803E+01 0.  0.
     999903    2    3    3    0    0 -0.10202637829E+00  0.67602940757E-01 -0.32303414035E-01  0.12829962008E+00  0.20922296408E-01 0.  0.
         14    1    1    2    0    0 -0.17248575212E-01  0.27594496736E-02 -0.15730176622E-01  0.23506730226E-01  0.00000000000E+00 0. -1.
     999901    1    3    3    0    0  0.11927495350E+00 -0.70362390431E-01  0.48033590657E-01  0.89212364970E+00  0.88000000000E+00 0. -1.
        -11    1    4    4    0    0 -0.20467637206E-01  0.17768859200E-01  0.87882295564E-03  0.27123605602E-01  0.51100000000E-03 0.  1.
         11    1    4    4    0    0 -0.81558741086E-01  0.49834081558E-01 -0.33182236990E-01  0.10117601447E+00  0.51100000000E-03 0. -1.
</event>
<event>
 8    1  0.1088270E+005  0.1043930E+01  0.7957747E-01            NaN
         13   -1    0    0    0    0  0.00000000000E+00  0.00000000000E+00  0.74505805969E-08  0.10566000000E+00  0.10566000000E+00 0.  1.
     999900   -1    0    0    0    0 -0.00000000000E+00 -0.00000000000E+00 -0.74505805969E-08  0.93827000000E+00  0.93827000000E+00 0. -1.
     999902    2    1    2    0    0  0.10446756271E-01 -0.20844139909E-01 -0.23150630988E-02  0.10204998399E+01  0.10202308321E+01 0.  0.
     999903    2    3    3    0    0 -0.12867956345E-01  0.28633420243E-01 -0.12523255177E+00  0.13027497291E+00  0.17404582388E-01 0.  0.
         14    1    1    2    0    0 -0.10446756271E-01  0.20844139909E-01  0.23150630988E-02  0.23430160100E-01  0.00000000000E+00 0. -1.
     999901    1    3    3    0    0  0.23314712616E-01 -0.49477560153E-01  0.12291748867E+00  0.89022486699E+00  0.88000000000E+00 0.  1.
        -11    1    4    4    0    0 -0.33318520658E-02  0.11490622781E-02 -0.41084482542E-01  0.41238542761E-01  0.51100000000E-03 0. -1.
         11    1    4    4    0    0 -0.95361042796E-02  0.27484357965E-01 -0.84148069232E-01  0.89036430151E-01  0.51100000000E-03 0.  1.
</event>
<event>
 8    1  0.1088270E+005  0.1043930E+01  0.7957747E-01            NaN
         13   -1    0    0    0    0  0.00000000000E+00  0.00000000000E+00  0.74505805969E-08  0.10566000000E+00  0.10566000000E+00 0. -1.
     999900   -1    0    0    0    0 -0.00000000000E+00 -0.00000000000E+00 -0.74505805969E-08  0.93827000000E+00  0.93827000000E+00 0. -1.
     999902    2    1    2    0    0 -0.65395473012E-02  0.18770980179E-01  0.13026051901E-01  0.10201646175E+01  0.10198877651E+01 0.  0.
     999903    2    3    3    0    0 -0.10908713472E+00 -0.22889866775E-01  0.67161441186E-01  0.13158019598E+00  0.19461239157E-01 0.  0.
         14    1    1    2    0    0  0.65395473012E-02 -0.18770980179E-01 -0.13026051901E-01  0.23765382469E-01  0.00000000000E+00 0. -1.
     999901    1    3    3    0    0  0.10254758742E+00  0.41660846954E-01 -0.54135389285E-01  0.88858442155E+00  0.88000000000E+00 0. -1.
        -11    1    4    4    0    0 -0.80578527388E-01 -0.17141339561E-01  0.59123794298E-01  0.10140319902E+00  0.51100000000E-03 0.  1.
         11    1    4    4    0    0 -0.28508607329E-01 -0.57485272145E-02  0.80376468885E-02  0.30176996960E-01  0.51100000000E-03 0. -1.
</event>
<event>
 8    1  0.1088270E+005  0.1043930E+01  0.7957747E-01            NaN
         13   -1    0    0    0    0  0.00000000000E+00  0.00000000000E+00  0.74505805969E-08  0.10566000000E+00  0.10566000000E+00 0.  1.
     999900   -1    0    0    0    0 -0.00000000000E+00 -0.00000000000E+00 -0.74505805969E-08  0.93827000000E+00  0.93827000000E+00 0. -1.
     999902    2    1    2    0    0 -0.13520263607E-01 -0.15962435365E-01 -0.85476296729E-02  0.10213322381E+01  0.10210822110E+01 0.  0.
     999903    2    3    3    0    0  0.65967152644E-01 -0.68626740176E-01  0.87872173560E-01  0.13094549245E+00  0.19076383586E-01 0.  0.
         14    1    1    2    0    0  0.13520263607E-01  0.15962435365E-01  0.85476296729E-02  0.22597761921E-01  0.00000000000E+00 0.  1.
     999901    1    3    3    0    0 -0.79487416251E-01  0.52664304811E-01 -0.96419803233E-01  0.89038674563E+00  0.88000000000E+00 0. -1.
        -11    1    4    4    0    0  0.26343732306E-01 -0.37202467980E-01  0.50686345611E-01  0.68171714134E-01  0.51100000000E-03 0. -1.
         11    1    4    4    0    0  0.39623420338E-01 -0.31424272196E-01  0.37185827949E-01  0.62773778312E-01  0.51100000000E-03 0.  1.
</event>
<event>
 8    1  0.1088270E+005  0.1043930E+01  0.7957747E-01            NaN
         13   -1    0    0    0    0  0.00000000000E+00  0.00000000000E+00  0.74505805969E-08  0.10566000000E+00  0.10566000000E+00 0.  1.
     999900   -1    0    0    0    0 -0.00000000000E+00 -0.00000000000E+00 -0.74505805969E-08  0.93827000000E+00  0.93827000000E+00 0.  1.
     999902    2    1    2    0    0 -0.29803801648E-01  0.12491628488E-03  0.33911142511E-02  0.10139336360E+01  0.10134898304E+01 0.  0.
     999903    2    3    3    0    0 -0.24111880357E-01  0.80720702956E-01 -0.90461334112E-01  0.12526251526E+00  0.20254137831E-01 0.  0.
         14    1    1    2    0    0  0.29803801648E-01 -0.12491628488E-03 -0.33911142511E-02  0.29996363990E-01  0.00000000000E+00 0.  1.
     999901    1    3    3    0    0 -0.56919212905E-02 -0.80595786671E-01  0.93852448363E-01  0.88867112075E+00  0.88000000000E+00 0. -1.
        -11    1    4    4    0    0 -0.17276811838E-01  0.25039341105E-01 -0.34969881382E-01  0.46353107287E-01  0.51100000000E-03 0.  1.
         11    1    4    4    0    0 -0.68350685189E-02  0.55681361850E-01 -0.55491452730E-01  0.78909407971E-01  0.51100000000E-03 0. -1.
</event>
<event>
 7    1  0.1088270E+005  0.1043930E+01  0.7957747E-01            NaN
         13   -1    0    0    0    0  0.00000000000E+00  0.00000000000E+00  0.74505805969E-08  0.10566000000E+00  0.10566000000E+00 0. -1.
     999900   -1    0    0    0    0 -0.00000000000E+00 -0.00000000000E+00 -0.74505805969E-08  0.93827000000E+00  0.93827000000E+00 0. -1.
     999903    2    1    2    0    0 -0.27304375705E-02 -0.73802969175E-01  0.91770955838E-01  0.11977438110E+00  0.21671651609E-01 0.  0.
         14    1    1    2    0    0  0.30826656467E-01  0.13223367754E-01 -0.19193657080E-01  0.38646302227E-01  0.00000000000E+00 0.  1.
     999901    1    1    2    0    0 -0.28096218896E-01  0.60579601421E-01 -0.72577298758E-01  0.88550931668E+00  0.88000000000E+00 0. -1.
        -11    1    3    3    0    0  0.85204032954E-02 -0.21771915428E-01  0.33398591286E-01  0.40771811274E-01  0.51100000000E-03 0. -1.
         11    1    3    3    0    0 -0.11250840866E-01 -0.52031053747E-01  0.58372364553E-01  0.79002569823E-01  0.51100000000E-03 0.  1.
</event>
<event>
 8    1  0.1088270E+005  0.1043930E+01  0.7957747E-01            NaN
         13   -1    0    0    0    0  0.00000000000E+00  0.00000000000E+00  0.74505805969E-08  0.10566000000E+00  0.10566000000E+00 0. -1.
     999900   -1    0    0    0    0 -0.00000000000E+00 -0.00000000000E+00 -0.74505805969E-08  0.93827000000E+00  0.93827000000E+00 0. -1.
     999902    2    1    2    0    0 -0.20868962781E-01  0.46239297279E-02 -0.10627687803E-01  0.10200586347E+01  0.10197792781E+01 0.  0.
     999903    2    3    3    0    0  0.40633324371E-01  0.16223334921E-01  0.11890967534E+00  0.12837651309E+00  0.20658039103E-01 0.  0.
         14    1    1    2    0    0  0.20868962781E-01 -0.46239297279E-02  0.10627687803E-01  0.23871365309E-01  0.00000000000E+00 0. -1.
     999901    1    3    3    0    0 -0.61502287152E-01 -0.11599405193E-01 -0.12953736314E+00  0.89168212160E+00  0.88000000000E+00 0. -1.
        -11    1    4    4    0    0  0.36398046181E-01  0.16773260219E-01  0.82574469369E-01  0.91787603394E-01  0.51100000000E-03 0.  1.
         11    1    4    4    0    0  0.42352781899E-02 -0.54992529840E-03  0.36335205969E-01  0.36588909700E-01  0.51100000000E-03 0. -1.
</event>
<event>
 8    1  0.1088270E+005  0.1043930E+01  0.7957747E-01            NaN
         13   -1    0    0    0    0  0.00000000000E+00  0.00000000000E+00  0.74505805969E-08  0.10566000000E+00  0.10566000000E+00 0. -1.
     999900   -1    0    0    0    0 -0.00000000000E+00 -0.00000000000E+00 -0.74505805969E-08  0.93827000000E+00  0.93827000000E+00 0.  1.
     999902    2    1    2    0    0 -0.77487686700E-02 -0.13747486147E-01 -0.17977776747E-01  0.10200085191E+01  0.10197279744E+01 0.  0.
     999903    2    3    3    0    0  0.62559887228E-01  0.96608804254E-01  0.51212027810E-01  0.12764701894E+00  0.20593423781E-01 0.  0.
         14    1    1    2    0    0  0.77487686700E-02  0.13747486147E-01  0.17977776747E-01  0.23921480891E-01  0.00000000000E+00 0. -1.
     999901    1    3    3    0    0 -0.70308655898E-01 -0.11035629040E+00 -0.69189804557E-01  0.89236150017E+00  0.88000000000E+00 0.  1.
        -11    1    4    4    0    0  0.35330142840E-01  0.71943805960E-01  0.36399389549E-01  0.88030147618E-01  0.51100000000E-03 0. -1.
         11    1    4    4    0    0  0.27229744388E-01  0.24664998294E-01  0.14812638261E-01  0.39616871325E-01  0.51100000000E-03 0.  1.
</event>
<event>
 8    1  0.1088270E+005  0.1043930E+01  0.7957747E-01            NaN
         13   -1    0    0    0    0  0.00000000000E+00  0.00000000000E+00  0.74505805969E-08  0.10566000000E+00  0.10566000000E+00 0.  1.
     999900   -1    0    0    0    0 -0.00000000000E+00 -0.00000000000E+00 -0.74505805969E-08  0.93827000000E+00  0.93827000000E+00 0.  1.
     999902    2    1    2    0    0  0.31771584986E-02 -0.22775670434E-01 -0.68838365879E-02  0.10199255690E+01  0.10196430521E+01 0.  0.
     999903    2    3    3    0    0 -0.96834333207E-02  0.12128861830E-01 -0.12864054744E+00  0.13076393140E+00  0.17605031664E-01 0.  0.
         14    1    1    2    0    0 -0.31771584986E-02  0.22775670434E-01  0.68838365879E-02  0.24004430967E-01  0.00000000000E+00 0. -1.
     999901    1    3    3    0    0  0.12860591819E-01 -0.34904532264E-01  0.12175671085E+00  0.88916163763E+00  0.88000000000E+00 0. -1.
        -11    1    4    4    0    0 -0.47873680164E-02 -0.40190929980E-02 -0.45175599191E-01  0.45608857521E-01  0.51100000000E-03 0.  1.
         11    1    4    4    0    0 -0.48960653043E-02  0.16147954828E-01 -0.83464948250E-01  0.85155073883E-01  0.51100000000E-03 0. -1.
</event>
<event>
 8    1  0.1088270E+005  0.1043930E+01  0.7957747E-01            NaN
         13   -1    0    0    0    0  0.00000000000E+00  0.00000000000E+00  0.74505805969E-08  0.10566000000E+00  0.10566000000E+00 0.  1.
     999900   -1    0    0    0    0 -0.00000000000E+00 -0.00000000000E+00 -0.74505805969E-08  0.93827000000E+00  0.93827000000E+00 0. -1.
     999902    2    1    2    0    0  0.13640926027E-01  0.19596167080E-01  0.22028316017E-03  0.10200525388E+01  0.10197730379E+01 0.  0.
     999903    2    3    3    0    0 -0.64327605724E-01  0.93198719933E-01  0.64505513231E-01  0.13121677305E+00  0.15259031331E-01 0.  0.
         14    1    1    2    0    0 -0.13640926027E-01 -0.19596167080E-01 -0.22028316017E-03  0.23877461166E-01  0.00000000000E+00 0. -1.
     999901    1    3    3    0    0  0.77968531751E-01 -0.73602552854E-01 -0.64285230071E-01  0.88883576578E+00  0.88000000000E+00 0. -1.
        -11    1    4    4    0    0 -0.30353256232E-01  0.34347021459E-01  0.20200057389E-01  0.50093327764E-01  0.51100000000E-03 0. -1.
         11    1    4    4    0    0 -0.33974349492E-01  0.58851698475E-01  0.44305455842E-01  0.81123445286E-01  0.51100000000E-03 0.  1.
</event>
<event>
 8    1  0.1088270E+005  0.1043930E+01  0.7957747E-01            NaN
         13   -1    0    0    0    0  0.00000000000E+00  0.00000000000E+00  0.74505805969E-08  0.10566000000E+00  0.10566000000E+00 0.  1.
     999900   -1    0    0    0    0 -0.00000000000E+00 -0.00000000000E+00 -0.74505805969E-08  0.93827000000E+00  0.93827000000E+00 0.  1.
     999902    2    1    2    0    0  0.21776422437E-02  0.23680175728E-01 -0.47733548134E-02  0.10196755620E+01  0.10193870579E+01 0.  0.
     999903    2    3    3    0    0  0.49124083435E-01  0.94407104331E-01  0.75612652803E-01  0.13194352075E+00  0.19129623198E-01 0.  0.
         14    1    1    2    0    0 -0.21776422437E-02 -0.23680175728E-01  0.47733548134E-02  0.24254438036E-01  0.00000000000E+00 0.  1.
     999901    1    3    3    0    0 -0.46946441191E-01 -0.70726928603E-01 -0.80386007616E-01  0.88773204121E+00  0.88000000000E+00 0.  1.
        -11    1    4    4    0    0  0.14566935302E-01  0.35538968126E-01  0.37869961189E-01  0.53940791067E-01  0.51100000000E-03 0.  1.
         11    1    4    4    0    0  0.34557148133E-01  0.58868136205E-01  0.37742691614E-01  0.78002729687E-01  0.51100000000E-03 0. -1.
</event>
<event>
 8    1  0.1088270E+005  0.1043930E+01  0.7957747E-01            NaN
         13   -1    0    0    0    0  0.00000000000E+00  0.00000000000E+00  0.74505805969E-08  0.10566000000E+00  0.10566000000E+00 0. -1.
     999900   -1    0    0    0    0 -0.00000000000E+00 -0.00000000000E+00 -0.74505805969E-08  0.93827000000E+00  0.93827000000E+00 0. -1.
     999902    2    1    2    0    0  0.22843972606E-01  0.23672928903E-03 -0.11648639083E-01  0.10182864059E+01  0.10179634623E+01 0.  0.
     999903    2    3    3    0    0  0.24459842351E-02  0.12672424127E+00  0.10548451746E-01  0.12873152877E+00  0.19887697218E-01 0.  0.
         14    1    1    2    0    0 -0.22843972606E-01 -0.23672928903E-03  0.11648639083E-01  0.25643594087E-01  0.00000000000E+00 0.  1.
     999901    1    3    3    0    0  0.20397988371E-01 -0.12648751198E+00 -0.22197090829E-01  0.88955487715E+00  0.88000000000E+00 0.  1.
        -11    1    4    4    0    0  0.79395829880E-02  0.10044251728E+00  0.28587997902E-02  0.10079766918E+00  0.51100000000E-03 0. -1.
         11    1    4    4    0    0 -0.54935987529E-02  0.26281723990E-01  0.76896519561E-02  0.27933859586E-01  0.51100000000E-03 0.  1.
</event>
<event>
 8    1  0.1088270E+005  0.1043930E+01  0.7957747E-01            NaN
         13   -1    0    0    0    0  0.00000000000E+00  0.00000000000E+00  0.74505805969E-08  0.10566000000E+00  0.10566000000E+00 0. -1.
     999900   -1    0    0    0    0 -0.00000000000E+00 -0.00000000000E+00 -0.74505805969E-08  0.93827000000E+00  0.93827000000E+00 0.  1.
     999902    2    1    2    0    0  0.11548769009E-02  0.17078875352E-01  0.16654084824E-01  0.10200473648E+01  0.10197677413E+01 0.  0.
     999903    2    3    3    0    0  0.76295813035E-01 -0.39216133832E-01  0.97446693630E-01  0.13137265827E+00  0.20098781117E-01 0.  0.
         14    1    1    2    0    0 -0.11548769009E-02 -0.17078875352E-01 -0.16654084824E-01  0.23882635225E-01  0.00000000000E+00 0. -1.
     999901    1    3    3    0    0 -0.75140936134E-01  0.56295009184E-01 -0.80792608806E-01  0.88867470650E+00  0.88000000000E+00 0.  1.
        -11    1    4    4    0    0  0.40028694855E-01 -0.12771330849E-01  0.36360419852E-01  0.55567477506E-01  0.51100000000E-03 0.  1.
         11    1    4    4    0    0  0.36267118180E-01 -0.26444802983E-01  0.61086273778E-01  0.75805180766E-01  0.51100000000E-03 0. -1.
</event>
<event>
 8    1  0.1088270E+005  0.1043930E+01  0.7957747E-01            NaN
         13   -1    0    0    0    0  0.00000000000E+00  0.00000000000E+00  0.74505805969E-08  0.10566000000E+00  0.10566000000E+00 0. -1.
     999900   -1    0    0    0    0 -0.00000000000E+00 -0.00000000000E+00 -0.74505805969E-08  0.93827000000E+00  0.93827000000E+00 0. -1.
     999902    2    1    2    0    0  0.16944108169E-01 -0.16363587576E-01 -0.54067796884E-02  0.10197617757E+01  0.10194753435E+01 0.  0.
     999903    2    3    3    0    0  0.91049792004E-01 -0.93426827563E-01 -0.17571797926E-01  0.13320755681E+00  0.20416865004E-01 0.  0.
         14    1    1    2    0    0 -0.16944108169E-01  0.16363587576E-01  0.54067796884E-02  0.24168224316E-01  0.00000000000E+00 0. -1.
     999901    1    3    3    0    0 -0.74105683835E-01  0.77063239987E-01  0.12165018238E-01  0.88655421887E+00  0.88000000000E+00 0. -1.
        -11    1    4    4    0    0  0.69487812536E-01 -0.58838689801E-01 -0.15742952327E-01  0.92404811441E-01  0.51100000000E-03 0.  1.
         11    1    4    4    0    0  0.21561979468E-01 -0.34588137762E-01 -0.18288455987E-02  0.40802745369E-01  0.51100000000E-03 0. -1.
</event>
<event>
 8    1  0.1088270E+005  0.1043930E+01  0.7957747E-01            NaN
         13   -1    0    0    0    0  0.00000000000E+00  0.00000000000E+00  0.74505805969E-08  0.10566000000E+00  0.10566000000E+00 0. -1.
     999900   -1    0    0    0    0 -0.00000000000E+00 -0.00000000000E+00 -0.74505805969E-08  0.93827000000E+00  0.93827000000E+00 0. -1.
     999902    2    1    2    0    0  0.13238618843E-01  0.79173543813E-02 -0.17902179745E-01  0.10202988009E+01  0.10200251025E+01 0.  0.
     999903    2    3    3    0    0 -0.32195932200E-01  0.12519690730E+00  0.91915146736E-02  0.13094349498E+00  0.18731558617E-01 0.  0.
         14    1    1    2    0    0 -0.13238618843E-01 -0.79173543813E-02  0.17902179745E-01  0.23631199057E-01  0.00000000000E+00 0.  1.
     999901    1    3    3    0    0  0.45434551042E-01 -0.11727955292E+00 -0.27093694419E-01  0.88935530596E+00  0.88000000000E+00 0. -1.
        -11    1    4    4    0    0 -0.14092853799E-01  0.31437028942E-01  0.83251645958E-02  0.35446647281E-01  0.51100000000E-03 0. -1.
         11    1    4    4    0    0 -0.18103078401E-01  0.93759878359E-01  0.86635007782E-03  0.95496847702E-01  0.51100000000E-03 0.  1.
</event>
<event>
 8    1  0.1088270E+005  0.1043930E+01  0.7957747E-01            NaN
         13   -1    0    0    0    0  0.00000000000E+00  0.00000000000E+00  0.74505805969E-08  0.10566000000E+00  0.10566000000E+00 0. -1.
     999900   -1    0    0    0    0 -0.00000000000E+00 -0.00000000000E+00 -0.74505805969E-08  0.93827000000E+00  0.93827000000E+00 0.  1.
     999902    2    1    2    0    0 -0.51152886011E-02 -0.80489033281E-02  0.21193708596E-01  0.10206894254E+01  0.10204248031E+01 0.  0.
     999903    2    3    3    0    0 -0.89563077591E-01  0.65582199688E-01 -0.63668045509E-01  0.12953596743E+00  0.20084248946E-01 0.  0.
         14    1    1    2    0    0  0.51152886011E-02  0.80489033281E-02 -0.21193708596E-01  0.23240574569E-01  0.00000000000E+00 0.  1.
     999901    1    3    3    0    0  0.84447788990E-01 -0.73631103016E-01  0.84861754105E-01  0.89115345800E+00  0.88000000000E+00 0. -1.
        -11    1    4    4    0    0 -0.13090902453E-01  0.13195860354E-01 -0.19190129410E-01  0.26721239592E-01  0.51100000000E-03 0.  1.
         11    1    4    4    0    0 -0.76472175137E-01  0.52386339334E-01 -0.44477916098E-01  0.10281472784E+00  0.51100000000E-03 0. -1.
</event>
<event>
 8    1  0.1088270E+005  0.1043930E+01  0.7957747E-01            NaN
         13   -1    0    0    0    0  0.00000000000E+00  0.00000000000E+00  0.74505805969E-08  0.10566000000E+00  0.10566000000E+00 0. -1.
     999900   -1    0    0    0    0 -0.00000000000E+00 -0.00000000000E+00 -0.74505805969E-08  0.93827000000E+00  0.93827000000E+00 0. -1.
     999902    2    1    2    0    0  0.73720432633E-02  0.14861238518E-01 -0.16557448976E-01  0.10204917290E+01  0.10202225328E+01 0.  0.
     999903    2    3    3    0    0 -0.12038358758E-01  0.21059919492E-02 -0.13081706684E+00  0.13280106196E+00  0.19330281881E-01 0.  0.
         14    1    1    2    0    0 -0.73720432633E-02 -0.14861238518E-01  0.16557448976E-01  0.23438271028E-01  0.00000000000E+00 0. -1.
     999901    1    3    3    0    0  0.19410402021E-01  0.12755246569E-01  0.11425961787E+00  0.88769066701E+00  0.88000000000E+00 0.  1.
        -11    1    4    4    0    0  0.51093491965E-03 -0.10314966495E-02 -0.89379477739E-01  0.89388350481E-01  0.51100000000E-03 0.  1.
         11    1    4    4    0    0 -0.12549293678E-01  0.31374885987E-02 -0.41437589102E-01  0.43412711481E-01  0.51100000000E-03 0. -1.
</event>
<event>
 8    1  0.1088270E+005  0.1043930E+01  0.7957747E-01            NaN
         13   -1    0    0    0    0  0.00000000000E+00  0.00000000000E+00  0.74505805969E-08  0.10566000000E+00  0.10566000000E+00 0. -1.
     999900   -1    0    0    0    0 -0.00000000000E+00 -0.00000000000E+00 -0.74505805969E-08  0.93827000000E+00  0.93827000000E+00 0.  1.
     999902    2    1    2    0    0 -0.72270422202E-02  0.18951038497E-01  0.15495906705E-01  0.10184055975E+01  0.10180856869E+01 0.  0.
     999903    2    3    3    0    0  0.11851709829E+00 -0.58766376070E-02  0.45518955696E-01  0.12861383204E+00  0.19715603141E-01 0.  0.
         14    1    1    2    0    0  0.72270422202E-02 -0.18951038497E-01 -0.15495906705E-01  0.25524402520E-01  0.00000000000E+00 0.  1.
     999901    1    3    3    0    0 -0.12574414051E+00  0.24827676104E-01 -0.30023048990E-01  0.88979176544E+00  0.88000000000E+00 0. -1.
        -11    1    4    4    0    0  0.39983849376E-01 -0.10193674363E-01  0.10917195654E-01  0.42685659066E-01  0.51100000000E-03 0. -1.
         11    1    4    4    0    0  0.78533248916E-01  0.43170367558E-02  0.34601760042E-01  0.85928172974E-01  0.51100000000E-03 0.  1.
</event>
<event>
 8    1  0.1088270E+005  0.1043930E+01  0.7957747E-01            NaN
         13   -1    0    0    0    0  0.00000000000E+00  0.00000000000E+00  0.74505805969E-08  0.10566000000E+00  0.10566000000E+00 0. -1.
     999900   -1    0    0    0    0 -0.00000000000E+00 -0.00000000000E+00 -0.74505805969E-08  0.93827000000E+00  0.93827000000E+00 0. -1.
     999902    2    1    2    0    0  0.39849232340E-02  0.10320491089E-01  0.22979391188E-01  0.10184261852E+01  0.10181067970E+01 0.  0.
     999903    2    3    3    0    0  0.10804322391E+00  0.30173399865E-01 -0.58955588052E-01  0.12829383059E+00  0.19994331996E-01 0.  0.
         14    1    1    2    0    0 -0.39849232340E-02 -0.10320491089E-01 -0.22979391188E-01  0.25503814790E-01  0.00000000000E+00 0.  1.
     999901    1    3    3    0    0 -0.10405830067E+00 -0.19852908776E-01  0.81934979240E-01  0.89013235462E+00  0.88000000000E+00 0.  1.
        -11    1    4    4    0    0  0.93774258826E-01  0.19092793713E-01 -0.52112225237E-01  0.10896830516E+00  0.51100000000E-03 0.  1.
         11    1    4    4    0    0  0.14268965081E-01  0.11080606152E-01 -0.68433628152E-02  0.19325525421E-01  0.51100000000E-03 0. -1.
</event>
<event>
 8    1  0.1088270E+005  0.1043930E+01  0.7957747E-01            NaN
         13   -1    0    0    0    0  0.00000000000E+00  0.00000000000E+00  0.74505805969E-08  0.10566000000E+00  0.10566000000E+00 0. -1.
     999900   -1    0    0    0    0 -0.00000000000E+00 -0.00000000000E+00 -0.74505805969E-08  0.93827000000E+00  0.93827000000E+00 0. -1.
     999902    2    1    2    0    0  0.49903677321E-02 -0.19703735113E-01 -0.29302241477E-01  0.10082682235E+01  0.10076373595E+01 0.  0.
     999903    2    3    3    0    0  0.33533335152E-02  0.67664278989E-02 -0.12119621172E+00  0.12308584050E+00  0.20114000179E-01 0.  0.
         14    1    1    2    0    0 -0.49903677321E-02  0.19703735113E-01  0.29302241477E-01  0.35661776500E-01  0.00000000000E+00 0. -1.
     999901    1    3    3    0    0  0.16370342169E-02 -0.26470163012E-01  0.91893970244E-01  0.88518238300E+00  0.88000000000E+00 0.  1.
        -11    1    4    4    0    0  0.28961786978E-02  0.13828724103E-01 -0.89098310941E-01  0.90213034506E-01  0.51100000000E-03 0. -1.
         11    1    4    4    0    0  0.45715481735E-03 -0.70622962042E-02 -0.32097900781E-01  0.32872805991E-01  0.51100000000E-03 0.  1.
</event>
<event>
 8    1  0.1088270E+005  0.1043930E+01  0.7957747E-01            NaN
         13   -1    0    0    0    0  0.00000000000E+00  0.00000000000E+00  0.74505805969E-08  0.10566000000E+00  0.10566000000E+00 0. -1.
     999900   -1    0    0    0    0 -0.00000000000E+00 -0.00000000000E+00 -0.74505805969E-08  0.93827000000E+00  0.93827000000E+00 0. -1.
     999902    2    1    2    0    0 -0.84588764986E-02 -0.15889820351E-01  0.18027092566E-01  0.10184542262E+01  0.10181355489E+01 0.  0.
     999903    2    3    3    0    0  0.61192495111E-03 -0.87421310889E-01 -0.92325942513E-01  0.12863580323E+00  0.19499491312E-01 0.  0.
         14    1    1    2    0    0  0.84588764986E-02  0.15889820351E-01 -0.18027092566E-01  0.25475773762E-01  0.00000000000E+00 0.  1.
     999901    1    3    3    0    0 -0.90708014497E-02  0.71531490538E-01  0.11035303508E+00  0.88981842301E+00  0.88000000000E+00 0.  1.
        -11    1    4    4    0    0 -0.44290874312E-02 -0.42058683448E-01 -0.32252129249E-01  0.53188444525E-01  0.51100000000E-03 0.  1.
         11    1    4    4    0    0  0.50410123823E-02 -0.45362627441E-01 -0.60073813264E-01  0.75447358703E-01  0.51100000000E-03 0. -1.
</event>
<event>
 8    1  0.1088270E+005  0.1043930E+01  0.7957747E-01            NaN
         13   -1    0    0    0    0  0.00000000000E+00  0.00000000000E+00  0.74505805969E-08  0.10566000000E+00  0.10566000000E+00 0.  1.
     999900   -1    0    0    0    0 -0.00000000000E+00 -0.00000000000E+00 -0.74505805969E-08  0.93827000000E+00  0.93827000000E+00 0.  1.
     999902    2    1    2    0    0 -0.84154232167E-02  0.21589111114E-01 -0.86020397629E-02  0.10192135246E+01  0.10189137867E+01 0.  0.
     999903    2    3    3    0    0 -0.93593585949E-01 -0.16004467689E-01  0.85234865829E-01  0.12934052165E+00  0.21168038935E-01 0.  0.
         14    1    1    2    0    0  0.84154232167E-02 -0.21589111114E-01  0.86020397629E-02  0.24716475370E-01  0.00000000000E+00 0.  1.
     999901    1    3    3    0    0  0.85178162732E-01  0.37593578803E-01 -0.93836905591E-01  0.88987300298E+00  0.88000000000E+00 0.  1.
        -11    1    4    4    0    0 -0.43422108176E-01 -0.60392697642E-02  0.53387168186E-01  0.69082581782E-01  0.51100000000E-03 0. -1.
         11    1    4    4    0    0 -0.50171477773E-01 -0.99651979247E-02  0.31847697642E-01  0.60257939873E-01  0.51100000000E-03 0.  1.
</event>
<event>
 8    1  0.1088270E+005  0.1043930E+01  0.7957747E-01            NaN
         13   -1    0    0    0    0  0.00000000000E+00  0.00000000000E+00  0.74505805969E-08  0.10566000000E+00  0.10566000000E+00 0.  1.
     999900   -1    0    0    0    0 -0.00000000000E+00 -0.00000000000E+00 -0.74505805969E-08  0.93827000000E+00  0.93827000000E+00 0. -1.
     999902    2    1    2    0    0 -0.20982317054E-01 -0.34264721798E-02 -0.70318911458E-02  0.10215370137E+01  0.10212915473E+01 0.  0.
     999903    2    3    3    0    0  0.11907946747E+00 -0.18954041300E-01 -0.43650517426E-01  0.12957326298E+00  0.18565762926E-01 0.  0.
         14    1    1    2    0    0  0.20982317054E-01  0.34264721798E-02  0.70318911458E-02  0.22392986260E-01  0.00000000000E+00 0.  1.
     999901    1    3    3    0    0 -0.14006178452E+00  0.15527569120E-01  0.36618626281E-01  0.89196375076E+00  0.88000000000E+00 0. -1.
        -11    1    4    4    0    0  0.65364090892E-01 -0.19155032008E-01 -0.27755686412E-01  0.73552830527E-01  0.51100000000E-03 0.  1.
         11    1    4    4    0    0  0.53715376575E-01  0.20099070825E-03 -0.15894831015E-01  0.56020432450E-01  0.51100000000E-03 0. -1.
</event>
<event>
 8    1  0.1088270E+005  0.1043930E+01  0.7957747E-01            NaN
         13   -1    0    0    0    0  0.00000000000E+00  0.00000000000E+00  0.74505805969E-08  0.10566000000E+00  0.10566000000E+00 0. -1.
     999900   -1    0    0    0    0 -0.00000000000E+00 -0.00000000000E+00 -0.74505805969E-08  0.93827000000E+00  0.93827000000E+00 0.  1.
     999902    2    1    2    0    0 -0.22477832317E-01  0.55322302063E-02  0.29952759018E-02  0.10205884021E+01  0.10203214475E+01 0.  0.
     999903    2    3    3    0    0 -0.14964896651E-01  0.51683407638E-01 -0.11787058105E+00  0.13109701325E+00  0.19945682480E-01 0.  0.
         14    1    1    2    0    0  0.22477832317E-01 -0.55322302063E-02 -0.29952759018E-02  0.23341597941E-01  0.00000000000E+00 0.  1.
     999901    1    3    3    0    0 -0.75129356657E-02 -0.46151177432E-01  0.12086585695E+00  0.88949138880E+00  0.88000000000E+00 0. -1.
        -11    1    4    4    0    0 -0.36723599451E-02  0.83569645066E-02 -0.69647178091E-02  0.11493193572E-01  0.51100000000E-03 0.  1.
         11    1    4    4    0    0 -0.11292536706E-01  0.43326443132E-01 -0.11090586324E+00  0.11960381968E+00  0.51100000000E-03 0. -1.
</event>
<event>
 8    1  0.1088270E+005  0.1043930E+01  0.7957747E-01            NaN
         13   -1    0    0    0    0  0.00000000000E+00  0.00000000000E+00  0.74505805969E-08  0.10566000000E+00  0.10566000000E+00 0.  1.
     999900   -1    0    0    0    0 -0.00000000000E+00 -0.00000000000E+00 -0.74505805969E-08  0.93827000000E+00  0.93827000000E+00 0. -1.
     999902    2    1    2    0    0  0.14955919369E-01 -0.15659220596E-01 -0.47597538297E-02  0.10217591640E+01  0.10215185966E+01 0.  0.
     999903    2    3    3    0    0 -0.68146072093E-02  0.18072028602E-03  0.12975234286E+00  0.13113109136E+00  0.17698053951E-01 0.  0.
         14    1    1    2    0    0 -0.14955919369E-01  0.15659220596E-01  0.47597538297E-02  0.22170836032E-01  0.00000000000E+00 0.  1.
     999901    1    3    3    0    0  0.21770526578E-01 -0.15839940882E-01 -0.13451209669E+00  0.89062807260E+00  0.88000000000E+00 0. -1.
        -11    1    4    4    0    0 -0.39857353382E-02 -0.70935816239E-02  0.10116649317E+00  0.10149446018E+00  0.51100000000E-03 0.  1.
         11    1    4    4    0    0 -0.28288718711E-02  0.72743019100E-02  0.28585849691E-01  0.29636631183E-01  0.51100000000E-03 0. -1.
</event>
<event>
 8    1  0.1088270E+005  0.1043930E+01  0.7957747E-01            NaN
         13   -1    0    0    0    0  0.00000000000E+00  0.00000000000E+00  0.74505805969E-08  0.10566000000E+00  0.10566000000E+00 0.  1.
     999900   -1    0    0    0    0 -0.00000000000E+00 -0.00000000000E+00 -0.74505805969E-08  0.93827000000E+00  0.93827000000E+00 0.  1.
     999902    2    1    2    0    0 -0.19447707198E-01  0.90172770203E-02  0.38002187288E-02  0.10221592338E+01  0.10219273619E+01 0.  0.
     999903    2    3    3    0    0 -0.16613167901E-01 -0.85546329522E-02 -0.12939862726E+00  0.13195771770E+00  0.17878910251E-01 0.  0.
         14    1    1    2    0    0  0.19447707198E-01 -0.90172770203E-02 -0.38002187288E-02  0.21770766236E-01  0.00000000000E+00 0.  1.
     999901    1    3    3    0    0 -0.28345392971E-02  0.17571909972E-01  0.13319884599E+00  0.89020151607E+00  0.88000000000E+00 0. -1.
        -11    1    4    4    0    0 -0.11372845390E-01 -0.13289525815E-01 -0.70694362586E-01  0.72827928236E-01  0.51100000000E-03 0. -1.
         11    1    4    4    0    0 -0.52403225106E-02  0.47348928633E-02 -0.58704264671E-01  0.59129789463E-01  0.51100000000E-03 0.  1.
</event>
<event>
 8    1  0.1088270E+005  0.1043930E+01  0.7957747E-01            NaN
         13   -1    0    0    0    0  0.00000000000E+00  0.00000000000E+00  0.74505805969E-08  0.10566000000E+00  0.10566000000E+00 0. -1.
     999900   -1    0    0    0    0 -0.00000000000E+00 -0.00000000000E+00 -0.74505805969E-08  0.93827000000E+00  0.93827000000E+00 0.  1.
     999902    2    1    2    0    0  0.11594852938E-01 -0.14599853157E-01  0.15644649775E-01  0.10195917299E+01  0.10193012039E+01 0.  0.
     999903    2    3    3    0    0  0.10463673697E+00 -0.31025526837E-01 -0.69052459504E-01  0.13049095084E+00  0.18660547857E-01 0.  0.
         14    1    1    2    0    0 -0.11594852938E-01  0.14599853157E-01 -0.15644649775E-01  0.24338270141E-01  0.00000000000E+00 0.  1.
     999901    1    3    3    0    0 -0.93041884036E-01  0.16425673679E-01  0.84697109279E-01  0.88910077902E+00  0.88000000000E+00 0. -1.
        -11    1    4    4    0    0  0.27275685498E-01 -0.48322236436E-03 -0.21035459809E-01  0.34452114792E-01  0.51100000000E-03 0. -1.
         11    1    4    4    0    0  0.77361051476E-01 -0.30542304472E-01 -0.48016999695E-01  0.96038836043E-01  0.51100000000E-03 0.  1.
</event>
<event>
 8    1  0.1088270E+005  0.1043930E+01  0.7957747E-01            NaN
         13   -1    0    0    0    0  0.00000000000E+00  0.00000000000E+00  0.74505805969E-08  0.10566000000E+00  0.10566000000E+00 0. -1.
     999900   -1    0    0    0    0 -0.00000000000E+00 -0.00000000000E+00 -0.74505805969E-08  0.93827000000E+00  0.93827000000E+00 0. -1.
     999902    2    1    2    0    0  0.10916847690E-01 -0.15285204509E-01  0.12537180879E-01  0.10213469102E+01  0.10210972114E+01 0.  0.
     999903    2    3    3    0    0 -0.97537392414E-01  0.82349134566E-01 -0.29603813246E-02  0.12919503928E+00  0.19689373619E-01 0.  0.
         14    1    1    2    0    0 -0.10916847690E-01  0.15285204509E-01 -0.12537180879E-01  0.22583089797E-01  0.00000000000E+00 0.  1.
     999901    1    3    3    0    0  0.10845424010E+00 -0.97634339075E-01  0.15497562204E-01  0.89215187093E+00  0.88000000000E+00 0.  1.
        -11    1    4    4    0    0 -0.61692329703E-01  0.41416351300E-01 -0.69867613351E-02  0.74634667910E-01  0.51100000000E-03 0. -1.
         11    1    4    4    0    0 -0.35845062711E-01  0.40932783265E-01  0.40263800105E-02  0.54560371366E-01  0.51100000000E-03 0.  1.
</event>
<event>
 8    1  0.1096596E+005  0.1043930E+01  0.7957747E-01            NaN
         13   -1    0    0    0    0  0.00000000000E+00  0.00000000000E+00  0.74505805969E-08  0.10566000000E+00  0.10566000000E+00 0.  1.
     999900   -1    0    0    0    0 -0.00000000000E+00 -0.00000000000E+00 -0.74505805969E-08  0.93827000000E+00  0.93827000000E+00 0. -1.
     999902    2    1    2    0    0  0.15973328753E-01  0.74067671900E-03  0.17969787715E-01  0.10198757051E+01  0.10195919991E+01 0.  0.
     999903    2    3    3    0    0  0.70280996192E-01 -0.12304804656E-01  0.11073714585E+00  0.13323863725E+00  0.19974792656E-01 0.  0.
         14    1    1    2    0    0 -0.15973328753E-01 -0.74067671900E-03 -0.17969787715E-01  0.24054294917E-01  0.00000000000E+00 0. -1.
     999901    1    3    3    0    0 -0.54307667439E-01  0.13045481375E-01 -0.92767358132E-01  0.88663706784E+00  0.88000000000E+00 0. -1.
        -11    1    4    4    0    0  0.53041806990E-01 -0.15145213264E-01  0.71685894550E-01  0.90454073275E-01  0.51100000000E-03 0. -1.
         11    1    4    4    0    0  0.17239189202E-01  0.28404086081E-02  0.39051251296E-01  0.42784563971E-01  0.51100000000E-03 0.  1.
</event>
<event>
 8    1  0.1088270E+005  0.1043930E+01  0.7957747E-01            NaN
         13   -1    0    0    0    0  0.00000000000E+00  0.00000000000E+00  0.74505805969E-08  0.10566000000E+00  0.10566000000E+00 0. -1.
     999900   -1    0    0    0    0 -0.00000000000E+00 -0.00000000000E+00 -0.74505805969E-08  0.93827000000E+00  0.93827000000E+00 0.  1.
     999902    2    1    2    0    0  0.19602235176E-01 -0.43798927401E-03 -0.15329850064E-01  0.10190413728E+01  0.10187373930E+01 0.  0.
     999903    2    3    3    0    0 -0.16788216881E-02  0.10842796615E+00  0.65802012177E-01  0.12837473560E+00  0.19766781434E-01 0.  0.
         14    1    1    2    0    0 -0.19602235176E-01  0.43798927401E-03  0.15329850064E-01  0.24888627152E-01  0.00000000000E+00 0. -1.
     999901    1    3    3    0    0  0.21281056864E-01 -0.10886595543E+00 -0.81131862241E-01  0.89066663725E+00  0.88000000000E+00 0.  1.
        -11    1    4    4    0    0  0.64724429549E-02  0.82512753105E-01  0.45446147001E-01  0.94423833543E-01  0.51100000000E-03 0. -1.
         11    1    4    4    0    0 -0.81512646429E-02  0.25915213048E-01  0.20355865176E-01  0.33950902059E-01  0.51100000000E-03 0.  1.
</event>
<event>
 8    1  0.1088270E+005  0.1043930E+01  0.7957747E-01            NaN
         13   -1    0    0    0    0  0.00000000000E+00  0.00000000000E+00  0.74505805969E-08  0.10566000000E+00  0.10566000000E+00 0. -1.
     999900   -1    0    0    0    0 -0.00000000000E+00 -0.00000000000E+00 -0.74505805969E-08  0.93827000000E+00  0.93827000000E+00 0.  1.
     999902    2    1    2    0    0  0.14571444288E-01  0.82346686093E-02 -0.17080507981E-01  0.10200159767E+01  0.10197356090E+01 0.  0.
     999903    2    3    3    0    0 -0.10261553115E+00 -0.68278940624E-02 -0.77132847169E-01  0.13009128810E+00  0.19942410988E-01 0.  0.
         14    1    1    2    0    0 -0.14571444288E-01 -0.82346686093E-02  0.17080507981E-01  0.23914023263E-01  0.00000000000E+00 0. -1.
     999901    1    3    3    0    0  0.11718697544E+00  0.15062562672E-01  0.60052339188E-01  0.88992468864E+00  0.88000000000E+00 0. -1.
        -11    1    4    4    0    0 -0.90084519408E-01 -0.89741691018E-03 -0.60926376090E-01  0.10875803611E+00  0.51100000000E-03 0. -1.
         11    1    4    4    0    0 -0.12531011742E-01 -0.59304771522E-02 -0.16206471079E-01  0.21333251988E-01  0.51100000000E-03 0.  1.
</event>
<event>
 8    1  0.1088270E+005  0.1043930E+01  0.7957747E-01            NaN
         13   -1    0    0    0    0  0.00000000000E+00  0.00000000000E+00  0.74505805969E-08  0.10566000000E+00  0.10566000000E+00 0. -1.
     999900   -1    0    0    0    0 -0.00000000000E+00 -0.00000000000E+00 -0.74505805969E-08  0.93827000000E+00  0.93827000000E+00 0. -1.
     999902    2    1    2    0    0  0.68422121335E-03 -0.90470219872E-02  0.20084552314E-01  0.10218912612E+01  0.10216535830E+01 0.  0.
     999903    2    3    3    0    0  0.96522631104E-01  0.53567393972E-01  0.71373070011E-01  0.13299527296E+00  0.20187706509E-01 0.  0.
         14    1    1    2    0    0 -0.68422121335E-03  0.90470219872E-02 -0.20084552314E-01  0.22038738783E-01  0.00000000000E+00 0.  1.
     999901    1    3    3    0    0 -0.95838409890E-01 -0.62614415960E-01 -0.51288517697E-01  0.88889598826E+00  0.88000000000E+00 0.  1.
        -11    1    4    4    0    0  0.46300561714E-01  0.14486889140E-01  0.28612086402E-01  0.56325168275E-01  0.51100000000E-03 0. -1.
         11    1    4    4    0    0  0.50222069389E-01  0.39080504832E-01  0.42760983609E-01  0.76670104682E-01  0.51100000000E-03 0.  1.
</event>
<event>
 7    1  0.1088270E+005  0.1043930E+01  0.7957747E-01            NaN
         13   -1    0    0    0    0  0.00000000000E+00  0.00000000000E+00  0.74505805969E-08  0.10566000000E+00  0.10566000000E+00 0.  1.
     999900   -1    0    0    0    0 -0.00000000000E+00 -0.00000000000E+00 -0.74505805969E-08  0.93827000000E+00  0.93827000000E+00 0. -1.
     999902    2    1    2    0    0 -0.30198738629E-02  0.18327077837E-01 -0.15214108809E-01  0.10199201994E+01  0.10196375545E+01 0.  0.
         14    1    1    2    0    0  0.30198738629E-02 -0.18327077837E-01  0.15214108809E-01  0.24009800646E-01  0.00000000000E+00 0.  1.
     999901    1    3    3    0    0 -0.16087813974E-02  0.11798590131E+00 -0.86479106572E-01  0.89207729315E+00  0.88000000000E+00 0. -1.
        -11    1    3    3    0    0 -0.39616779350E-02 -0.42325220529E-01  0.52297236101E-01  0.67397189925E-01  0.51100000000E-03 0. -1.
         11    1    3    3    0    0  0.25505854695E-02 -0.57333602944E-01  0.18967761661E-01  0.60445716276E-01  0.51100000000E-03 0.  1.
</event>
<event>
 8    1  0.1088270E+005  0.1043930E+01  0.7957747E-01            NaN
         13   -1    0    0    0    0  0.00000000000E+00  0.00000000000E+00  0.74505805969E-08  0.10566000000E+00  0.10566000000E+00 0.  1.
     999900   -1    0    0    0    0 -0.00000000000E+00 -0.00000000000E+00 -0.74505805969E-08  0.93827000000E+00  0.93827000000E+00 0. -1.
     999902    2    1    2    0    0  0.12177028574E-01  0.19738608531E-01 -0.32352020239E-02  0.10205129288E+01  0.10202442250E+01 0.  0.
     999903    2    3    3    0    0 -0.30368515670E-01  0.95323578957E-01  0.83928365846E-01  0.13196315605E+00  0.19012430432E-01 0.  0.
         14    1    1    2    0    0 -0.12177028574E-01 -0.19738608531E-01  0.32352020239E-02  0.23417071204E-01  0.00000000000E+00 0. -1.
     999901    1    3    3    0    0  0.42545544244E-01 -0.75584970427E-01 -0.87163567870E-01  0.88854977275E+00  0.88000000000E+00 0. -1.
        -11    1    4    4    0    0 -0.29259256089E-01  0.67515353631E-01  0.55422855234E-01  0.92121555816E-01  0.51100000000E-03 0. -1.
         11    1    4    4    0    0 -0.11092595810E-02  0.27808225327E-01  0.28505510612E-01  0.39841600230E-01  0.51100000000E-03 0.  1.
</event>
<event>
 8    1  0.1088270E+005  0.1043930E+01  0.7957747E-01            NaN
         13   -1    0    0    0    0  0.00000000000E+00  0.00000000000E+00  0.74505805969E-08  0.10566000000E+00  0.10566000000E+00 0.  1.
     999900   -1    0    0    0    0 -0.00000000000E+00 -0.00000000000E+00 -0.74505805969E-08  0.93827000000E+00  0.93827000000E+00 0. -1.
     999902    2    1    2    0    0 -0.10803647057E-01  0.20918694805E-01 -0.12398748542E-02  0.10203535738E+01  0.10200811574E+01 0.  0.
     999903    2    3    3    0    0 -0.53388926995E-01  0.11082942200E+00 -0.48541962297E-01  0.13348552703E+00  0.18125272850E-01 0.  0.
         14    1    1    2    0    0  0.10803647057E-01 -0.20918694805E-01  0.12398748542E-02  0.23576426187E-01  0.00000000000E+00 0. -1.
     999901    1    3    3    0    0  0.42585279938E-01 -0.89910727195E-01  0.47302087442E-01  0.88686804679E+00  0.88000000000E+00 0.  1.
        -11    1    4    4    0    0 -0.42559727448E-02  0.76184697001E-02 -0.89560948860E-02  0.12515076555E-01  0.51100000000E-03 0. -1.
         11    1    4    4    0    0 -0.49132954250E-01  0.10321095230E+00 -0.39585867411E-01  0.12097045047E+00  0.51100000000E-03 0.  1.
</event>
<event>
 8    1  0.1235295E+005  0.1043930E+01  0.7957747E-01            NaN
         13   -1    0    0    0    0  0.00000000000E+00  0.00000000000E+00  0.74505805969E-08  0.10566000000E+00  0.10566000000E+00 0. -1.
     999900   -1    0    0    0    0 -0.00000000000E+00 -0.00000000000E+00 -0.74505805969E-08  0.93827000000E+00  0.93827000000E+00 0. -1.
     999902    2    1    2    0    0  0.12310159200E-01 -0.19412444871E-01 -0.61409126854E-02  0.10201372733E+01  0.10198597759E+01 0.  0.
     999903    2    3    3    0    0 -0.46353341516E-01 -0.57789256378E-01  0.10532994280E+00  0.13033957854E+00  0.20143943507E-01 0.  0.
         14    1    1    2    0    0 -0.12310159200E-01  0.19412444871E-01  0.61409126854E-02  0.23792726704E-01  0.00000000000E+00 0. -1.
     999901    1    3    3    0    0  0.58663500716E-01  0.38376811507E-01 -0.11147085549E+00  0.88979769476E+00  0.88000000000E+00 0. -1.
        -11    1    4    4    0    0 -0.57703282592E-02 -0.20493710078E-01  0.35196779549E-01  0.41138342852E-01  0.51100000000E-03 0.  1.
         11    1    4    4    0    0 -0.40583013257E-01 -0.37295546300E-01  0.70133163252E-01  0.89201235684E-01  0.51100000000E-03 0. -1.
</event>
<event>
 7    1  0.1088270E+005  0.1043930E+01  0.7957747E-01            NaN
         13   -1    0    0    0    0  0.00000000000E+00  0.00000000000E+00  0.74505805969E-08  0.10566000000E+00  0.10566000000E+00 0. -1.
     999900   -1    0    0    0    0 -0.00000000000E+00 -0.00000000000E+00 -0.74505805969E-08  0.93827000000E+00  0.93827000000E+00 0.  1.
     999903    2    1    2    0    0  0.10780492603E+00  0.24440664664E-01  0.17243177280E-01  0.11359734220E+00  0.19692151377E-01 0.  0.
         14    1    1    2    0    0  0.29274244608E-01 -0.24911283584E-01  0.84199031932E-02  0.39350326770E-01  0.00000000000E+00 0. -1.
     999901    1    1    2    0    0 -0.13707917064E+00  0.47061891966E-03 -0.25663080474E-01  0.89098233103E+00  0.88000000000E+00 0.  1.
        -11    1    3    3    0    0  0.19297117469E-01  0.11401491311E-01  0.73193392508E-02  0.23584032624E-01  0.51100000000E-03 0.  1.
         11    1    3    3    0    0  0.88507808565E-01  0.13039173353E-01  0.99238380295E-02  0.90013309577E-01  0.51100000000E-03 0. -1.
</event>
<event>
 8    1  0.1088270E+005  0.1043930E+01  0.7957747E-01            NaN
         13   -1    0    0    0    0  0.00000000000E+00  0.00000000000E+00  0.74505805969E-08  0.10566000000E+00  0.10566000000E+00 0.  1.
     999900   -1    0    0    0    0 -0.00000000000E+00 -0.00000000000E+00 -0.74505805969E-08  0.93827000000E+00  0.93827000000E+00 0. -1.
     999902    2    1    2    0    0 -0.21251610811E-01 -0.15348776824E-01  0.15329888494E-01  0.10135619017E+01  0.10131068587E+01 0.  0.
     999903    2    3    3    0    0  0.46796071715E-01  0.13032152372E-01  0.11334839908E+00  0.12505551870E+00  0.20768097187E-01 0.  0.
         14    1    1    2    0    0  0.21251610811E-01  0.15348776824E-01 -0.15329888494E-01  0.30368098283E-01  0.00000000000E+00 0. -1.
     999901    1    3    3    0    0 -0.68047682526E-01 -0.28380929196E-01 -0.98018510586E-01  0.88850638301E+00  0.88000000000E+00 0. -1.
        -11    1    4    4    0    0  0.23028474366E-01 -0.42354971504E-02  0.48283868718E-01  0.53664170236E-01  0.51100000000E-03 0.  1.
         11    1    4    4    0    0  0.23767597349E-01  0.17267649523E-01  0.65064530362E-01  0.71391348467E-01  0.51100000000E-03 0. -1.
</event>
<event>
 8    1  0.1088270E+005  0.1043930E+01  0.7957747E-01            NaN
         13   -1    0    0    0    0  0.00000000000E+00  0.00000000000E+00  0.74505805969E-08  0.10566000000E+00  0.10566000000E+00 0.  1.
     999900   -1    0    0    0    0 -0.00000000000E+00 -0.00000000000E+00 -0.74505805969E-08  0.93827000000E+00  0.93827000000E+00 0. -1.
     999902    2    1    2    0    0  0.20192957645E-01 -0.68923943607E-03  0.13066893461E-01  0.10198681153E+01  0.10195842282E+01 0.  0.
     999903    2    3    3    0    0 -0.38388661905E-01  0.12065061193E+00  0.19214570777E-01  0.12959121479E+00  0.19860103200E-01 0.  0.
         14    1    1    2    0    0 -0.20192957645E-01  0.68923943607E-03 -0.13066893461E-01  0.24061884676E-01  0.00000000000E+00 0.  1.
     999901    1    3    3    0    0  0.58581619551E-01 -0.12133985137E+00 -0.61476773169E-02  0.89027690053E+00  0.88000000000E+00 0. -1.
        -11    1    4    4    0    0 -0.34421093634E-01  0.98474188817E-01  0.22780828686E-01  0.10677642449E+00  0.51100000000E-03 0.  1.
         11    1    4    4    0    0 -0.39675682714E-02  0.22176423116E-01 -0.35662579080E-02  0.22814790306E-01  0.51100000000E-03 0. -1.
</event>
<event>
 8    1  0.1088270E+005  0.1043930E+01  0.7957747E-01            NaN
         13   -1    0    0    0    0  0.00000000000E+00  0.00000000000E+00  0.74505805969E-08  0.10566000000E+00  0.10566000000E+00 0.  1.
     999900   -1    0    0    0    0 -0.00000000000E+00 -0.00000000000E+00 -0.74505805969E-08  0.93827000000E+00  0.93827000000E+00 0.  1.
     999902    2    1    2    0    0  0.16395234568E-01  0.12157875442E-02  0.17254146001E-01  0.10200975136E+01  0.10198190770E+01 0.  0.
     999903    2    3    3    0    0 -0.50660844703E-01  0.97537898064E-01  0.68106821648E-01  0.13085038178E+00  0.20077861277E-01 0.  0.
         14    1    1    2    0    0 -0.16395234568E-01 -0.12157875442E-02 -0.17254146001E-01  0.23832486445E-01  0.00000000000E+00 0. -1.
     999901    1    3    3    0    0  0.67056079271E-01 -0.96322110520E-01 -0.50852675646E-01  0.88924713177E+00  0.88000000000E+00 0.  1.
        -11    1    4    4    0    0 -0.34426142681E-01  0.71221743623E-01  0.38269123764E-01  0.87877659387E-01  0.51100000000E-03 0.  1.
         11    1    4    4    0    0 -0.16234702022E-01  0.26316154441E-01  0.29837697883E-01  0.42972722398E-01  0.51100000000E-03 0. -1.
</event>
<event>
 8    1  0.1088270E+005  0.1043930E+01  0.7957747E-01            NaN
         13   -1    0    0    0    0  0.00000000000E+00  0.00000000000E+00  0.74505805969E-08  0.10566000000E+00  0.10566000000E+00 0.  1.
     999900   -1    0    0    0    0 -0.00000000000E+00 -0.00000000000E+00 -0.74505805969E-08  0.93827000000E+00  0.93827000000E+00 0.  1.
     999902    2    1    2    0    0  0.15932425347E-01 -0.16960290220E-01 -0.70516224972E-02  0.10196150046E+01  0.10193250407E+01 0.  0.
     999903    2    3    3    0    0  0.88692056441E-01  0.72013660133E-01  0.58222125555E-01  0.12974367123E+00  0.19782724747E-01 0.  0.
         14    1    1    2    0    0 -0.15932425347E-01  0.16960290220E-01  0.70516224972E-02  0.24314995406E-01  0.00000000000E+00 0. -1.
     999901    1    3    3    0    0 -0.72759631094E-01 -0.88973950353E-01 -0.65273748052E-01  0.88987133336E+00  0.88000000000E+00 0.  1.
        -11    1    4    4    0    0  0.10329889629E-01  0.40941744610E-02  0.11512279804E-01  0.16008203883E-01  0.51100000000E-03 0.  1.
         11    1    4    4    0    0  0.78362166812E-01  0.67919485672E-01  0.46709845750E-01  0.11373546735E+00  0.51100000000E-03 0. -1.
</event>
<event>
 8    1  0.1088270E+005  0.1043930E+01  0.7957747E-01            NaN
         13   -1    0    0    0    0  0.00000000000E+00  0.00000000000E+00  0.74505805969E-08  0.10566000000E+00  0.10566000000E+00 0.  1.
     999900   -1    0    0    0    0 -0.00000000000E+00 -0.00000000000E+00 -0.74505805969E-08  0.93827000000E+00  0.93827000000E+00 0. -1.
     999902    2    1    2    0    0 -0.15950474478E-01  0.47964447570E-02  0.17176701858E-01  0.10200038092E+01  0.10197231527E+01 0.  0.
     999903    2    3    3    0    0 -0.99262090121E-01 -0.81220194448E-01 -0.16586454978E-01  0.13125207883E+00  0.22412389127E-01 0.  0.
         14    1    1    2    0    0  0.15950474478E-01 -0.47964447570E-02 -0.17176701858E-01  0.23926190777E-01  0.00000000000E+00 0. -1.
     999901    1    3    3    0    0  0.83311615643E-01  0.86016639205E-01  0.33763156836E-01  0.88875173040E+00  0.88000000000E+00 0.  1.
        -11    1    4    4    0    0 -0.55200448193E-01 -0.56819240322E-01 -0.39325981574E-02  0.79317349935E-01  0.51100000000E-03 0. -1.
         11    1    4    4    0    0 -0.44061641928E-01 -0.24400954126E-01 -0.12653856821E-01  0.51934728892E-01  0.51100000000E-03 0.  1.
</event>
<event>
 8    1  0.1088270E+005  0.1043930E+01  0.7957747E-01            NaN
         13   -1    0    0    0    0  0.00000000000E+00  0.00000000000E+00  0.74505805969E-08  0.10566000000E+00  0.10566000000E+00 0.  1.
     999900   -1    0    0    0    0 -0.00000000000E+00 -0.00000000000E+00 -0.74505805969E-08  0.93827000000E+00  0.93827000000E+00 0. -1.
     999902    2    1    2    0    0  0.16383305966E-01 -0.79578653784E-02  0.10971847188E-01  0.10226668449E+01  0.10224457706E+01 0.  0.
     999903    2    3    3    0    0 -0.10012410730E+00  0.74141725203E-01 -0.31488817355E-01  0.13018870611E+00  0.20873938333E-01 0.  0.
         14    1    1    2    0    0 -0.16383305966E-01  0.79578653784E-02 -0.10971847188E-01  0.21263155139E-01  0.00000000000E+00 0.  1.
     999901    1    3    3    0    0  0.11650741326E+00 -0.82099590581E-01  0.42460664543E-01  0.89247813875E+00  0.88000000000E+00 0. -1.
        -11    1    4    4    0    0 -0.40060040781E-01  0.37051425059E-01 -0.22489494138E-01  0.59022482444E-01  0.51100000000E-03 0.  1.
         11    1    4    4    0    0 -0.60064066516E-01  0.37090300144E-01 -0.89993232173E-02  0.71166223664E-01  0.51100000000E-03 0. -1.
</event>
<event>
 8    1  0.1088270E+005  0.1043930E+01  0.7957747E-01            NaN
         13   -1    0    0    0    0  0.00000000000E+00  0.00000000000E+00  0.74505805969E-08  0.10566000000E+00  0.10566000000E+00 0. -1.
     999900   -1    0    0    0    0 -0.00000000000E+00 -0.00000000000E+00 -0.74505805969E-08  0.93827000000E+00  0.93827000000E+00 0.  1.
     999902    2    1    2    0    0 -0.14924237318E-01  0.81941665014E-02  0.16983843894E-01  0.10198815452E+01  0.10195979787E+01 0.  0.
     999903    2    3    3    0    0 -0.49323566791E-01 -0.10499412236E+00 -0.53110004596E-01  0.12920312390E+00  0.20400849634E-01 0.  0.
         14    1    1    2    0    0  0.14924237318E-01 -0.81941665014E-02 -0.16983843894E-01  0.24048454786E-01  0.00000000000E+00 0.  1.
     999901    1    3    3    0    0  0.34399329473E-01  0.11318828886E+00  0.70093848490E-01  0.89067842132E+00  0.88000000000E+00 0. -1.
        -11    1    4    4    0    0 -0.38213203227E-01 -0.63395516740E-01 -0.40276507891E-01  0.84271576777E-01  0.51100000000E-03 0.  1.
         11    1    4    4    0    0 -0.11110363564E-01 -0.41598605618E-01 -0.12833496705E-01  0.44931547120E-01  0.51100000000E-03 0. -1.
</event>
<event>
 8    1  0.1088270E+005  0.1043930E+01  0.7957747E-01            NaN
         13   -1    0    0    0    0  0.00000000000E+00  0.00000000000E+00  0.74505805969E-08  0.10566000000E+00  0.10566000000E+00 0. -1.
     999900   -1    0    0    0    0 -0.00000000000E+00 -0.00000000000E+00 -0.74505805969E-08  0.93827000000E+00  0.93827000000E+00 0. -1.
     999902    2    1    2    0    0 -0.76712889767E-02  0.23191059040E-01 -0.17480662764E-01  0.10138925656E+01  0.10134475256E+01 0.  0.
     999903    2    3    3    0    0  0.67236820422E-01  0.17865645653E-02  0.10091618943E+00  0.12255245553E+00  0.17636474536E-01 0.  0.
         14    1    1    2    0    0  0.76712889767E-02 -0.23191059040E-01  0.17480662764E-01  0.30037434388E-01  0.00000000000E+00 0. -1.
     999901    1    3    3    0    0 -0.74908109398E-01  0.21404494474E-01 -0.11839685219E+00  0.89134011008E+00  0.88000000000E+00 0. -1.
        -11    1    4    4    0    0  0.48276832917E-01 -0.66172728008E-02  0.68455234163E-01  0.84028692130E-01  0.51100000000E-03 0. -1.
         11    1    4    4    0    0  0.18959987505E-01  0.84038373661E-02  0.32460955264E-01  0.38523763397E-01  0.51100000000E-03 0.  1.
</event>
<event>
 8    1  0.1088270E+005  0.1043930E+01  0.7957747E-01            NaN
         13   -1    0    0    0    0  0.00000000000E+00  0.00000000000E+00  0.74505805969E-08  0.10566000000E+00  0.10566000000E+00 0. -1.
     999900   -1    0    0    0    0 -0.00000000000E+00 -0.00000000000E+00 -0.74505805969E-08  0.93827000000E+00  0.93827000000E+00 0.  1.
     999902    2    1    2    0    0 -0.10631066695E-01  0.20851988768E-01  0.70207952988E-02  0.10194940310E+01  0.10192011394E+01 0.  0.
     999903    2    3    3    0    0 -0.13233298220E-01  0.12977343726E+00  0.17924121414E-01  0.13270795980E+00  0.16548814604E-01 0.  0.
         14    1    1    2    0    0  0.10631066695E-01 -0.20851988768E-01 -0.70207952988E-02  0.24435969007E-01  0.00000000000E+00 0.  1.
     999901    1    3    3    0    0  0.26022315248E-02 -0.10892144849E+00 -0.10903326115E-01  0.88678607120E+00  0.88000000000E+00 0.  1.
        -11    1    4    4    0    0 -0.13783961983E-01  0.61550739339E-01  0.50697280007E-02  0.63280758404E-01  0.51100000000E-03 0.  1.
         11    1    4    4    0    0  0.55066376338E-03  0.68222697920E-01  0.12854393413E-01  0.69427201392E-01  0.51100000000E-03 0. -1.
</event>
<event>
 8    1  0.1088270E+005  0.1043930E+01  0.7957747E-01            NaN
         13   -1    0    0    0    0  0.00000000000E+00  0.00000000000E+00  0.74505805969E-08  0.10566000000E+00  0.10566000000E+00 0.  1.
     999900   -1    0    0    0    0 -0.00000000000E+00 -0.00000000000E+00 -0.74505805969E-08  0.93827000000E+00  0.93827000000E+00 0. -1.
     999902    2    1    2    0    0 -0.60899475671E-02  0.20835646456E-01 -0.12806073651E-01  0.10187266838E+01  0.10184148708E+01 0.  0.
     999903    2    3    3    0    0 -0.60691440575E-01 -0.10176400662E+00  0.40774638498E-01  0.12694033569E+00  0.20295656633E-01 0.  0.
         14    1    1    2    0    0  0.60899475671E-02 -0.20835646456E-01  0.12806073651E-01  0.25203316190E-01  0.00000000000E+00 0. -1.
     999901    1    3    3    0    0  0.54601493008E-01  0.12259965308E+00 -0.53580712150E-01  0.89178634812E+00  0.88000000000E+00 0. -1.
        -11    1    4    4    0    0 -0.35113375743E-01 -0.47490645198E-01  0.28982378067E-01  0.65791716020E-01  0.51100000000E-03 0.  1.
         11    1    4    4    0    0 -0.25578064832E-01 -0.54273361424E-01  0.11792260432E-01  0.61148619673E-01  0.51100000000E-03 0. -1.
</event>
<event>
 8    1  0.1088270E+005  0.1043930E+01  0.7957747E-01            NaN
         13   -1    0    0    0    0  0.00000000000E+00  0.00000000000E+00  0.74505805969E-08  0.10566000000E+00  0.10566000000E+00 0.  1.
     999900   -1    0    0    0    0 -0.00000000000E+00 -0.00000000000E+00 -0.74505805969E-08  0.93827000000E+00  0.93827000000E+00 0.  1.
     999902    2    1    2    0    0 -0.18619091557E-01 -0.11933649351E-01  0.49884113637E-02  0.10212591640E+01  0.10210074991E+01 0.  0.
     999903    2    3    3    0    0  0.79912248545E-01  0.98951139300E-01 -0.49309783413E-02  0.12878941346E+00  0.19624042256E-01 0.  0.
         14    1    1    2    0    0  0.18619091557E-01  0.11933649351E-01 -0.49884113637E-02  0.22670836005E-01  0.00000000000E+00 0.  1.
     999901    1    3    3    0    0 -0.98531340101E-01 -0.11088478865E+00  0.99193897049E-02  0.89246975054E+00  0.88000000000E+00 0. -1.
        -11    1    4    4    0    0  0.67847277666E-01  0.71023526961E-01 -0.23179259638E-02  0.98250844120E-01  0.51100000000E-03 0. -1.
         11    1    4    4    0    0  0.12064970879E-01  0.27927612339E-01 -0.26130523775E-02  0.30538569335E-01  0.51100000000E-03 0.  1.
</event>
<event>
 8    1  0.1088270E+005  0.1043930E+01  0.7957747E-01            NaN
         13   -1    0    0    0    0  0.00000000000E+00  0.00000000000E+00  0.74505805969E-08  0.10566000000E+00  0.10566000000E+00 0.  1.
     999900   -1    0    0    0    0 -0.00000000000E+00 -0.00000000000E+00 -0.74505805969E-08  0.93827000000E+00  0.93827000000E+00 0. -1.
     999902    2    1    2    0    0 -0.17061594173E-02 -0.22335471606E-01  0.90823995966E-02  0.10197582344E+01  0.10194717173E+01 0.  0.
     999903    2    3    3    0    0  0.21222329502E-01 -0.54891763371E-01 -0.11334210833E+00  0.13039138773E+00  0.26305655658E-01 0.  0.
         14    1    1    2    0    0  0.17061594173E-02  0.22335471606E-01 -0.90823995966E-02  0.24171765642E-01  0.00000000000E+00 0.  1.
     999901    1    3    3    0    0 -0.22928488920E-01  0.32556291764E-01  0.12242450792E+00  0.88936684663E+00  0.88000000000E+00 0.  1.
        -11    1    4    4    0    0  0.13497693530E-01 -0.20544163184E-01 -0.72030918222E-01  0.76111527856E-01  0.51100000000E-03 0. -1.
         11    1    4    4    0    0  0.77246359720E-02 -0.34347600186E-01 -0.41311190103E-01  0.54279859876E-01  0.51100000000E-03 0.  1.
</event>
<event>
 8    1  0.1088270E+005  0.1043930E+01  0.7957747E-01            NaN
         13   -1    0    0    0    0  0.00000000000E+00  0.00000000000E+00  0.74505805969E-08  0.10566000000E+00  0.10566000000E+00 0. -1.
     999900   -1    0    0    0    0 -0.00000000000E+00 -0.00000000000E+00 -0.74505805969E-08  0.93827000000E+00  0.93827000000E+00 0.  1.
     999902    2    1    2    0    0 -0.66348977509E-02 -0.26566168145E-01  0.86520439016E-02  0.10152134365E+01  0.10148072135E+01 0.  0.
     999903    2    3    3    0    0 -0.10387459764E+00  0.35785771669E-01  0.59264390727E-01  0.12622247290E+00  0.18689333002E-01 0.  0.
         14    1    1    2    0    0  0.66348977509E-02  0.26566168145E-01 -0.86520439016E-02  0.28716563544E-01  0.00000000000E+00 0.  1.
     999901    1    3    3    0    0  0.97239699889E-01 -0.62351939815E-01 -0.50612346825E-01  0.88899096356E+00  0.88000000000E+00 0.  1.
        -11    1    4    4    0    0 -0.48403232610E-01  0.22120520018E-01  0.19796503217E-01  0.56783386598E-01  0.51100000000E-03 0.  1.
         11    1    4    4    0    0 -0.55471365030E-01  0.13665251651E-01  0.39467887510E-01  0.69439086302E-01  0.51100000000E-03 0. -1.
</event>
<event>
 8    1  0.1088270E+005  0.1043930E+01  0.7957747E-01            NaN
         13   -1    0    0    0    0  0.00000000000E+00  0.00000000000E+00  0.74505805969E-08  0.10566000000E+00  0.10566000000E+00 0. -1.
     999900   -1    0    0    0    0 -0.00000000000E+00 -0.00000000000E+00 -0.74505805969E-08  0.93827000000E+00  0.93827000000E+00 0.  1.
     999902    2    1    2    0    0 -0.14456591028E-01 -0.10983696474E-01 -0.12857557970E-01  0.10216824966E+01  0.10214402441E+01 0.  0.
     999903    2    3    3    0    0 -0.75833533685E-01  0.96801116377E-01 -0.44836618689E-01  0.13240899797E+00  0.20015978733E-01 0.  0.
         14    1    1    2    0    0  0.14456591028E-01  0.10983696474E-01  0.12857557970E-01  0.22247503441E-01  0.00000000000E+00 0.  1.
     999901    1    3    3    0    0  0.61376942656E-01 -0.10778481285E+00  0.31979060718E-01  0.88927349859E+00  0.88000000000E+00 0. -1.
        -11    1    4    4    0    0 -0.27971683420E-01  0.51788849980E-01 -0.22358762631E-01  0.62965668764E-01  0.51100000000E-03 0.  1.
         11    1    4    4    0    0 -0.47861850265E-01  0.45012266397E-01 -0.22477856058E-01  0.69443329204E-01  0.51100000000E-03 0. -1.
</event>
<event>
 8    1  0.1088270E+005  0.1043930E+01  0.7957747E-01            NaN
         13   -1    0    0    0    0  0.00000000000E+00  0.00000000000E+00  0.74505805969E-08  0.10566000000E+00  0.10566000000E+00 0. -1.
     999900   -1    0    0    0    0 -0.00000000000E+00 -0.00000000000E+00 -0.74505805969E-08  0.93827000000E+00  0.93827000000E+00 0. -1.
     999902    2    1    2    0    0 -0.40567851977E-02 -0.19281632216E-01  0.11090552770E-01  0.10213194005E+01  0.10210690862E+01 0.  0.
     999903    2    3    3    0    0 -0.87953510589E-01 -0.27253501824E-01  0.94326377520E-01  0.13338335906E+00  0.20373551301E-01 0.  0.
         14    1    1    2    0    0  0.40567851977E-02  0.19281632216E-01 -0.11090552770E-01  0.22610599457E-01  0.00000000000E+00 0.  1.
     999901    1    3    3    0    0  0.83896725391E-01  0.79718696081E-02 -0.83235824750E-01  0.88793604148E+00  0.88000000000E+00 0. -1.
        -11    1    4    4    0    0 -0.68550356648E-01 -0.12032407976E-01  0.67924882425E-01  0.97252151708E-01  0.51100000000E-03 0. -1.
         11    1    4    4    0    0 -0.19403153940E-01 -0.15221093849E-01  0.26401495095E-01  0.36131207356E-01  0.51100000000E-03 0.  1.
</event>
<event>
 8    1  0.1088270E+005  0.1043930E+01  0.7957747E-01            NaN
         13   -1    0    0    0    0  0.00000000000E+00  0.00000000000E+00  0.74505805969E-08  0.10566000000E+00  0.10566000000E+00 0. -1.
     999900   -1    0    0    0    0 -0.00000000000E+00 -0.00000000000E+00 -0.74505805969E-08  0.93827000000E+00  0.93827000000E+00 0. -1.
     999902    2    1    2    0    0 -0.13147207010E-01  0.71599468703E-02 -0.18630642749E-01  0.10200299008E+01  0.10197498634E+01 0.  0.
     999903    2    3    3    0    0 -0.75417596175E-02 -0.76851391626E-01 -0.10479878197E+00  0.13182143754E+00  0.20762758972E-01 0.  0.
         14    1    1    2    0    0  0.13147207010E-01 -0.71599468703E-02  0.18630642749E-01  0.23900099175E-01  0.00000000000E+00 0. -1.
     999901    1    3    3    0    0 -0.56054473925E-02  0.84011338496E-01  0.86168139217E-01  0.88820846329E+00  0.88000000000E+00 0.  1.
        -11    1    4    4    0    0  0.18336205304E-02 -0.63847085930E-01 -0.81896567717E-01  0.10386106812E+00  0.51100000000E-03 0.  1.
         11    1    4    4    0    0 -0.93753801479E-02 -0.13004305696E-01 -0.22902214250E-01  0.27960369420E-01  0.51100000000E-03 0. -1.
</event>
<event>
 8    1  0.1088270E+005  0.1043930E+01  0.7957747E-01            NaN
         13   -1    0    0    0    0  0.00000000000E+00  0.00000000000E+00  0.74505805969E-08  0.10566000000E+00  0.10566000000E+00 0.  1.
     999900   -1    0    0    0    0 -0.00000000000E+00 -0.00000000000E+00 -0.74505805969E-08  0.93827000000E+00  0.93827000000E+00 0.  1.
     999902    2    1    2    0    0 -0.54673090270E-02 -0.14521101543E-02  0.23324112610E-01  0.10199297016E+01  0.10196472831E+01 0.  0.
     999903    2    3    3    0    0 -0.28245132595E-01  0.49803394720E-01  0.11834400697E+00  0.13303921441E+00  0.20395169621E-01 0.  0.
         14    1    1    2    0    0  0.54673090270E-02  0.14521101543E-02 -0.23324112610E-01  0.24000298352E-01  0.00000000000E+00 0. -1.
     999901    1    3    3    0    0  0.22777823568E-01 -0.51255504874E-01 -0.95019894363E-01  0.88689048724E+00  0.88000000000E+00 0.  1.
        -11    1    4    4    0    0 -0.13971849760E-01  0.24876386726E-01  0.36703533317E-01  0.46491479662E-01  0.51100000000E-03 0. -1.
         11    1    4    4    0    0 -0.14273282835E-01  0.24927007994E-01  0.81640473656E-01  0.86547734749E-01  0.51100000000E-03 0.  1.
</event>
<event>
 8    1  0.1088270E+005  0.1043930E+01  0.7957747E-01            NaN
         13   -1    0    0    0    0  0.00000000000E+00  0.00000000000E+00  0.74505805969E-08  0.10566000000E+00  0.10566000000E+00 0.  1.
     999900   -1    0    0    0    0 -0.00000000000E+00 -0.00000000000E+00 -0.74505805969E-08  0.93827000000E+00  0.93827000000E+00 0.  1.
     999902    2    1    2    0    0 -0.21919297863E-01 -0.36730611721E-02  0.82286468388E-02  0.10202306830E+01  0.10199553857E+01 0.  0.
     999903    2    3    3    0    0 -0.32380221093E-02  0.12375901090E+00  0.35602815262E-01  0.13043448828E+00  0.20465036338E-01 0.  0.
         14    1    1    2    0    0  0.21919297863E-01  0.36730611721E-02 -0.82286468388E-02  0.23699316994E-01  0.00000000000E+00 0. -1.
     999901    1    3    3    0    0 -0.18681275754E-01 -0.12743207207E+00 -0.27374168423E-01  0.88979619473E+00  0.88000000000E+00 0.  1.
        -11    1    4    4    0    0  0.61397402390E-02  0.49537972065E-01  0.73175210725E-02  0.50453090314E-01  0.51100000000E-03 0.  1.
         11    1    4    4    0    0 -0.93777623482E-02  0.74221038832E-01  0.28285294189E-01  0.79981397964E-01  0.51100000000E-03 0. -1.
</event>
<event>
 8    1  0.1088270E+005  0.1043930E+01  0.7957747E-01            NaN
         13   -1    0    0    0    0  0.00000000000E+00  0.00000000000E+00  0.74505805969E-08  0.10566000000E+00  0.10566000000E+00 0. -1.
     999900   -1    0    0    0    0 -0.00000000000E+00 -0.00000000000E+00 -0.74505805969E-08  0.93827000000E+00  0.93827000000E+00 0. -1.
     999902    2    1    2    0    0 -0.17415986497E-01  0.12205685697E-01 -0.99445698649E-02  0.10204525679E+01  0.10201824609E+01 0.  0.
     999903    2    3    3    0    0 -0.30794782088E-01  0.13839578137E-01 -0.12665148308E+00  0.13264506320E+00  0.20353429623E-01 0.  0.
         14    1    1    2    0    0  0.17415986497E-01 -0.12205685697E-01  0.99445698649E-02  0.23477432117E-01  0.00000000000E+00 0. -1.
     999901    1    3    3    0    0  0.13378795591E-01 -0.16338924400E-02  0.11670691322E+00  0.88780750468E+00  0.88000000000E+00 0.  1.
        -11    1    4    4    0    0 -0.71759410893E-02  0.14058702433E-01 -0.49773896183E-01  0.52219183323E-01  0.51100000000E-03 0. -1.
         11    1    4    4    0    0 -0.23618840998E-01 -0.21912429572E-03 -0.76877586901E-01  0.80425879879E-01  0.51100000000E-03 0.  1.
</event>
<event>
 8    1  0.1088270E+005  0.1043930E+01  0.7957747E-01            NaN
         13   -1    0    0    0    0  0.00000000000E+00  0.00000000000E+00  0.74505805969E-08  0.10566000000E+00  0.10566000000E+00 0. -1.
     999900   -1    0    0    0    0 -0.00000000000E+00 -0.00000000000E+00 -0.74505805969E-08  0.93827000000E+00  0.93827000000E+00 0.  1.
     999902    2    1    2    0    0 -0.29151979184E-02 -0.20970083563E-01  0.90636690393E-02  0.10208997399E+01  0.10206399395E+01 0.  0.
     999903    2    3    3    0    0  0.35265460974E-01 -0.14667849891E-01  0.12547889191E+00  0.13238975967E+00  0.17980478107E-01 0.  0.
         14    1    1    2    0    0  0.29151979184E-02  0.20970083563E-01 -0.90636690393E-02  0.23030260094E-01  0.00000000000E+00 0. -1.
     999901    1    3    3    0    0 -0.38180658892E-01 -0.63022336725E-02 -0.11641522287E+00  0.88850998024E+00  0.88000000000E+00 0.  1.
        -11    1    4    4    0    0  0.20437803223E-01 -0.16248618309E-01  0.63928645364E-01  0.69056891159E-01  0.51100000000E-03 0.  1.
         11    1    4    4    0    0  0.14827657751E-01  0.15807684184E-02  0.61550246544E-01  0.63332868511E-01  0.51100000000E-03 0. -1.
</event>
<event>
 8    1  0.1088270E+005  0.1043930E+01  0.7957747E-01            NaN
         13   -1    0    0    0    0  0.00000000000E+00  0.00000000000E+00  0.74505805969E-08  0.10566000000E+00  0.10566000000E+00 0. -1.
     999900   -1    0    0    0    0 -0.00000000000E+00 -0.00000000000E+00 -0.74505805969E-08  0.93827000000E+00  0.93827000000E+00 0. -1.
     999902    2    1    2    0    0 -0.53666301558E-02 -0.90827141177E-03  0.21865248451E-01  0.10213974732E+01  0.10211489036E+01 0.  0.
     999903    2    3    3    0    0  0.27241480011E-01  0.19808629826E-01 -0.12250763564E+00  0.12879677379E+00  0.21118903831E-01 0.  0.
         14    1    1    2    0    0  0.53666301558E-02  0.90827141177E-03 -0.21865248451E-01  0.22532526845E-01  0.00000000000E+00 0.  1.
     999901    1    3    3    0    0 -0.32608110166E-01 -0.20716901238E-01  0.14437288409E+00  0.89260069937E+00  0.88000000000E+00 0.  1.
        -11    1    4    4    0    0  0.38178755272E-03  0.93071389433E-02 -0.48052949057E-01  0.48950134128E-01  0.51100000000E-03 0.  1.
         11    1    4    4    0    0  0.26859692458E-01  0.10501490883E-01 -0.74454686586E-01  0.79846639662E-01  0.51100000000E-03 0. -1.
</event>
<event>
 8    1  0.1088270E+005  0.1043930E+01  0.7957747E-01            NaN
         13   -1    0    0    0    0  0.00000000000E+00  0.00000000000E+00  0.74505805969E-08  0.10566000000E+00  0.10566000000E+00 0.  1.
     999900   -1    0    0    0    0 -0.00000000000E+00 -0.00000000000E+00 -0.74505805969E-08  0.93827000000E+00  0.93827000000E+00 0.  1.
     999902    2    1    2    0    0  0.44611716509E-02 -0.22363825460E-02  0.23994028226E-01  0.10194225144E+01  0.10191278850E+01 0.  0.
     999903    2    3    3    0    0  0.10089598525E+00 -0.47929281481E-01 -0.60050512582E-01  0.12900070475E+00  0.23619947102E-01 0.  0.
         14    1    1    2    0    0 -0.44611716509E-02  0.22363825460E-02 -0.23994028226E-01  0.24507485589E-01  0.00000000000E+00 0. -1.
     999901    1    3    3    0    0 -0.96434813597E-01  0.45692898935E-01  0.84044540809E-01  0.89042180966E+00  0.88000000000E+00 0. -1.
        -11    1    4    4    0    0  0.54192192644E-01 -0.22469393601E-01 -0.44325459324E-01  0.73530094912E-01  0.51100000000E-03 0. -1.
         11    1    4    4    0    0  0.46703792604E-01 -0.25459887879E-01 -0.15725053258E-01  0.55470609834E-01  0.51100000000E-03 0.  1.
</event>
<event>
 8    1  0.1088270E+005  0.1043930E+01  0.7957747E-01            NaN
         13   -1    0    0    0    0  0.00000000000E+00  0.00000000000E+00  0.74505805969E-08  0.10566000000E+00  0.10566000000E+00 0.  1.
     999900   -1    0    0    0    0 -0.00000000000E+00 -0.00000000000E+00 -0.74505805969E-08  0.93827000000E+00  0.93827000000E+00 0. -1.
     999902    2    1    2    0    0  0.18057827493E-01 -0.54073276623E-02  0.13940172048E-01  0.10204853263E+01  0.10202159813E+01 0.  0.
     999903    2    3    3    0    0  0.10997849247E+00 -0.13219944010E-01  0.72219155541E-01  0.13374585753E+00  0.20057723067E-01 0.  0.
         14    1    1    2    0    0 -0.18057827493E-01  0.54073276623E-02 -0.13940172048E-01  0.23444673658E-01  0.00000000000E+00 0. -1.
     999901    1    3    3    0    0 -0.91920664978E-01  0.78126163474E-02 -0.58278983492E-01  0.88673946881E+00  0.88000000000E+00 0. -1.
        -11    1    4    4    0    0  0.32448027114E-01  0.40894840399E-02  0.15912838289E-01  0.36374137608E-01  0.51100000000E-03 0. -1.
         11    1    4    4    0    0  0.77530465357E-01 -0.17309428050E-01  0.56306317252E-01  0.97371719926E-01  0.51100000000E-03 0.  1.
</event>
<event>
 8    1  0.1088270E+005  0.1043930E+01  0.7957747E-01            NaN
         13   -1    0    0    0    0  0.00000000000E+00  0.00000000000E+00  0.74505805969E-08  0.10566000000E+00  0.10566000000E+00 0. -1.
     999900   -1    0    0    0    0 -0.00000000000E+00 -0.00000000000E+00 -0.74505805969E-08  0.93827000000E+00  0.93827000000E+00 0. -1.
     999902    2    1    2    0    0  0.78264768690E-03 -0.22592311820E-01 -0.42964947062E-02  0.10209194599E+01  0.10206601092E+01 0.  0.
     999903    2    3    3    0    0  0.95885505483E-01 -0.40639986414E-01  0.79359121799E-01  0.13166778891E+00  0.13888764005E-01 0.  0.
         14    1    1    2    0    0 -0.78264768690E-03  0.22592311820E-01  0.42964947062E-02  0.23010540140E-01  0.00000000000E+00 0. -1.
     999901    1    3    3    0    0 -0.95102857796E-01  0.18047674594E-01 -0.83655616505E-01  0.88925167095E+00  0.88000000000E+00 0.  1.
        -11    1    4    4    0    0  0.64314968594E-01 -0.32264872039E-01  0.60048381453E-01  0.93720362724E-01  0.51100000000E-03 0. -1.
         11    1    4    4    0    0  0.31570536889E-01 -0.83751143752E-02  0.19310740346E-01  0.37947426184E-01  0.51100000000E-03 0.  1.
</event>
<event>
 8    1  0.1088270E+005  0.1043930E+01  0.7957747E-01            NaN
         13   -1    0    0    0    0  0.00000000000E+00  0.00000000000E+00  0.74505805969E-08  0.10566000000E+00  0.10566000000E+00 0.  1.
     999900   -1    0    0    0    0 -0.00000000000E+00 -0.00000000000E+00 -0.74505805969E-08  0.93827000000E+00  0.93827000000E+00 0.  1.
     999902    2    1    2    0    0 -0.12490487786E-01  0.19889400570E-01  0.29205776183E-02  0.10202629276E+01  0.10199883878E+01 0.  0.
     999903    2    3    3    0    0 -0.62708584264E-01  0.82943578686E-01  0.80718652681E-01  0.13316077621E+00  0.20106905423E-01 0.  0.
         14    1    1    2    0    0  0.12490487786E-01 -0.19889400570E-01 -0.29205776183E-02  0.23667072354E-01  0.00000000000E+00 0.  1.
     999901    1    3    3    0    0  0.50218096478E-01 -0.63054178116E-01 -0.77798075063E-01  0.88710215143E+00  0.88000000000E+00 0.  1.
        -11    1    4    4    0    0 -0.43776280691E-01  0.41425654042E-01  0.46273552246E-01  0.75986514082E-01  0.51100000000E-03 0. -1.
         11    1    4    4    0    0 -0.18932303573E-01  0.41517924644E-01  0.34445100435E-01  0.57174262132E-01  0.51100000000E-03 0.  1.
</event>
<event>
 8    1  0.1088270E+005  0.1043930E+01  0.7957747E-01            NaN
         13   -1    0    0    0    0  0.00000000000E+00  0.00000000000E+00  0.74505805969E-08  0.10566000000E+00  0.10566000000E+00 0.  1.
     999900   -1    0    0    0    0 -0.00000000000E+00 -0.00000000000E+00 -0.74505805969E-08  0.93827000000E+00  0.93827000000E+00 0. -1.
     999902    2    1    2    0    0 -0.14661086893E-01 -0.16845617585E-01 -0.81018597942E-02  0.10201736865E+01  0.10198970478E+01 0.  0.
     999903    2    3    3    0    0  0.89639998310E-01 -0.32559650500E-01  0.84474361706E-01  0.12905304144E+00  0.20574488592E-01 0.  0.
         14    1    1    2    0    0  0.14661086893E-01  0.16845617585E-01  0.81018597942E-02  0.23756313536E-01  0.00000000000E+00 0.  1.
     999901    1    3    3    0    0 -0.10430108520E+00  0.15714032915E-01 -0.92576221501E-01  0.89112064503E+00  0.88000000000E+00 0.  1.
        -11    1    4    4    0    0  0.76343790224E-01 -0.30757377272E-01  0.80303567708E-01  0.11499267224E+00  0.51100000000E-03 0.  1.
         11    1    4    4    0    0  0.13296208086E-01 -0.18022732282E-02  0.41707939989E-02  0.14060369193E-01  0.51100000000E-03 0. -1.
</event>
<event>
 8    1  0.1088270E+005  0.1043930E+01  0.7957747E-01            NaN
         13   -1    0    0    0    0  0.00000000000E+00  0.00000000000E+00  0.74505805969E-08  0.10566000000E+00  0.10566000000E+00 0.  1.
     999900   -1    0    0    0    0 -0.00000000000E+00 -0.00000000000E+00 -0.74505805969E-08  0.93827000000E+00  0.93827000000E+00 0.  1.
     999902    2    1    2    0    0  0.11785483346E-01 -0.12225577649E-01 -0.16480891686E-01  0.10202660579E+01  0.10199915915E+01 0.  0.
     999903    2    3    3    0    0  0.61138010379E-01  0.10285746125E+00  0.44040697335E-01  0.12934370406E+00  0.21741598653E-01 0.  0.
         14    1    1    2    0    0 -0.11785483346E-01  0.12225577649E-01  0.16480891686E-01  0.23663942134E-01  0.00000000000E+00 0.  1.
     999901    1    3    3    0    0 -0.49352527033E-01 -0.11508303890E+00 -0.60521589021E-01  0.89092235380E+00  0.88000000000E+00 0. -1.
        -11    1    4    4    0    0  0.57509642023E-01  0.10248731264E+00  0.44431788628E-01  0.12564017327E+00  0.51100000000E-03 0.  1.
         11    1    4    4    0    0  0.36283683563E-02  0.37014860353E-03 -0.39109129326E-03  0.37035307907E-02  0.51100000000E-03 0. -1.
</event>
<event>
 8    1  0.1088270E+005  0.1043930E+01  0.7957747E-01            NaN
         13   -1    0    0    0    0  0.00000000000E+00  0.00000000000E+00  0.74505805969E-08  0.10566000000E+00  0.10566000000E+00 0. -1.
     999900   -1    0    0    0    0 -0.00000000000E+00 -0.00000000000E+00 -0.74505805969E-08  0.93827000000E+00  0.93827000000E+00 0. -1.
     999902    2    1    2    0    0 -0.60521693488E-02 -0.18336200669E-01  0.10318706410E-01  0.10220366058E+01  0.10218020859E+01 0.  0.
     999903    2    3    3    0    0 -0.12274728193E+00 -0.47472636353E-01  0.13644701705E-01  0.13384870706E+00  0.20217617891E-01 0.  0.
         14    1    1    2    0    0  0.60521693488E-02  0.18336200669E-01 -0.10318706410E-01  0.21893394227E-01  0.00000000000E+00 0.  1.
     999901    1    3    3    0    0  0.11669511258E+00  0.29136435684E-01 -0.33259952953E-02  0.88818789872E+00  0.88000000000E+00 0. -1.
        -11    1    4    4    0    0 -0.30107471636E-01 -0.90686032130E-02 -0.50046963915E-02  0.31843484726E-01  0.51100000000E-03 0. -1.
         11    1    4    4    0    0 -0.92639810291E-01 -0.38404033140E-01  0.18649398097E-01  0.10200522233E+00  0.51100000000E-03 0.  1.
</event>
<event>
 8    1  0.1088270E+005  0.1043930E+01  0.7957747E-01            NaN
         13   -1    0    0    0    0  0.00000000000E+00  0.00000000000E+00  0.74505805969E-08  0.10566000000E+00  0.10566000000E+00 0.  1.
     999900   -1    0    0    0    0 -0.00000000000E+00 -0.00000000000E+00 -0.74505805969E-08  0.93827000000E+00  0.93827000000E+00 0. -1.
     999902    2    1    2    0    0  0.12973575651E-01 -0.12162151298E-01  0.10180612526E-01  0.10234391127E+01  0.10232339620E+01 0.  0.
     999903    2    3    3    0    0  0.32962357403E-01 -0.77236315854E-01  0.10458158559E+00  0.13577603363E+00  0.21115344484E-01 0.  0.
         14    1    1    2    0    0 -0.12973575651E-01  0.12162151298E-01 -0.10180612526E-01  0.20490887262E-01  0.00000000000E+00 0. -1.
     999901    1    3    3    0    0 -0.19988781752E-01  0.65074164556E-01 -0.94400973064E-01  0.88766307910E+00  0.88000000000E+00 0. -1.
        -11    1    4    4    0    0  0.20788814431E-01 -0.40214755901E-01  0.40351338649E-01  0.60645635040E-01  0.51100000000E-03 0.  1.
         11    1    4    4    0    0  0.12173542972E-01 -0.37021559954E-01  0.64230246941E-01  0.75130398595E-01  0.51100000000E-03 0. -1.
</event>
<event>
 8    1  0.1088270E+005  0.1043930E+01  0.7957747E-01            NaN
         13   -1    0    0    0    0  0.00000000000E+00  0.00000000000E+00  0.74505805969E-08  0.10566000000E+00  0.10566000000E+00 0.  1.
     999900   -1    0    0    0    0 -0.00000000000E+00 -0.00000000000E+00 -0.74505805969E-08  0.93827000000E+00  0.93827000000E+00 0.  1.
     999902    2    1    2    0    0 -0.69687836437E-04  0.23312697966E-01  0.58725894846E-02  0.10198889091E+01  0.10196055183E+01 0.  0.
     999903    2    3    3    0    0 -0.10776495556E-01  0.98517695741E-02  0.12887678971E+00  0.13116743105E+00  0.19557040271E-01 0.  0.
         14    1    1    2    0    0  0.69687836437E-04 -0.23312697966E-01 -0.58725894846E-02  0.24041090868E-01  0.00000000000E+00 0. -1.
     999901    1    3    3    0    0  0.10706807720E-01  0.13460928392E-01 -0.12300420022E+00  0.88872147808E+00  0.88000000000E+00 0.  1.
        -11    1    4    4    0    0 -0.88150730427E-02 -0.43113033838E-02  0.62350463941E-01  0.63119999400E-01  0.51100000000E-03 0.  1.
         11    1    4    4    0    0 -0.19614225136E-02  0.14163072958E-01  0.66526325765E-01  0.68047431654E-01  0.51100000000E-03 0. -1.
</event>
<event>
 8    1  0.1088270E+005  0.1043930E+01  0.7957747E-01            NaN
         13   -1    0    0    0    0  0.00000000000E+00  0.00000000000E+00  0.74505805969E-08  0.10566000000E+00  0.10566000000E+00 0.  1.
     999900   -1    0    0    0    0 -0.00000000000E+00 -0.00000000000E+00 -0.74505805969E-08  0.93827000000E+00  0.93827000000E+00 0. -1.
     999902    2    1    2    0    0  0.18122604208E-01 -0.34904339278E-03 -0.11759258365E-01  0.10223237330E+01  0.10220953891E+01 0.  0.
     999903    2    3    3    0    0  0.30865777247E-01  0.66112104843E-01  0.10757399559E+00  0.13169479898E+00  0.21162441707E-01 0.  0.
         14    1    1    2    0    0 -0.18122604208E-01  0.34904339278E-03  0.11759258365E-01  0.21606266958E-01  0.00000000000E+00 0.  1.
     999901    1    3    3    0    0 -0.12743173040E-01 -0.66461148236E-01 -0.11933325396E+00  0.89062893406E+00  0.88000000000E+00 0.  1.
        -11    1    4    4    0    0 -0.13107094748E-02  0.16195103704E-01  0.28364434334E-01  0.32692531248E-01  0.51100000000E-03 0.  1.
         11    1    4    4    0    0  0.32176486722E-01  0.49917001138E-01  0.79209561261E-01  0.99002267734E-01  0.51100000000E-03 0. -1.
</event>
<event>
 8    1  0.1088270E+005  0.1043930E+01  0.7957747E-01            NaN
         13   -1    0    0    0    0  0.00000000000E+00  0.00000000000E+00  0.74505805969E-08  0.10566000000E+00  0.10566000000E+00 0.  1.
     999900   -1    0    0    0    0 -0.00000000000E+00 -0.00000000000E+00 -0.74505805969E-08  0.93827000000E+00  0.93827000000E+00 0.  1.
     999902    2    1    2    0    0  0.13591395463E-01  0.15312555669E-01 -0.11802446479E-01  0.10202974349E+01  0.10200237044E+01 0.  0.
     999903    2    3    3    0    0  0.36967258836E-02 -0.12717699043E+00 -0.20207976568E-02  0.12872755208E+00  0.19469113093E-01 0.  0.
         14    1    1    2    0    0 -0.13591395463E-01 -0.15312555669E-01  0.11802446479E-01  0.23632565131E-01  0.00000000000E+00 0.  1.
     999901    1    3    3    0    0  0.98946695795E-02  0.14248954610E+00 -0.97816488223E-02  0.89156988278E+00  0.88000000000E+00 0. -1.
        -11    1    4    4    0    0  0.86439600042E-02 -0.48610035180E-01  0.53239895502E-02  0.49661449339E-01  0.51100000000E-03 0. -1.
         11    1    4    4    0    0 -0.49472341205E-02 -0.78566955254E-01 -0.73447872070E-02  0.79066102746E-01  0.51100000000E-03 0.  1.
</event>
<event>
 8    1  0.1088270E+005  0.1043930E+01  0.7957747E-01            NaN
         13   -1    0    0    0    0  0.00000000000E+00  0.00000000000E+00  0.74505805969E-08  0.10566000000E+00  0.10566000000E+00 0. -1.
     999900   -1    0    0    0    0 -0.00000000000E+00 -0.00000000000E+00 -0.74505805969E-08  0.93827000000E+00  0.93827000000E+00 0. -1.
     999902    2    1    2    0    0  0.17728795827E-01 -0.15449715442E-01  0.95150779725E-03  0.10203947227E+01  0.10201232675E+01 0.  0.
     999903    2    3    3    0    0  0.36444502963E-01 -0.20606734650E-01  0.12329830557E+00  0.13171839726E+00  0.19860128657E-01 0.  0.
         14    1    1    2    0    0 -0.17728795827E-01  0.15449715442E-01 -0.95150779725E-03  0.23535277262E-01  0.00000000000E+00 0. -1.
     999901    1    3    3    0    0 -0.18715707135E-01  0.51570192081E-02 -0.12234679778E+00  0.88867632548E+00  0.88000000000E+00 0. -1.
        -11    1    4    4    0    0  0.13585733308E-01 -0.40474254888E-02  0.19273127006E-01  0.23930489928E-01  0.51100000000E-03 0.  1.
         11    1    4    4    0    0  0.22858769655E-01 -0.16559309161E-01  0.10402517857E+00  0.10778790733E+00  0.51100000000E-03 0. -1.
</event>
<event>
 7    1  0.1088270E+005  0.1043930E+01  0.7957747E-01            NaN
         13   -1    0    0    0    0  0.00000000000E+00  0.00000000000E+00  0.74505805969E-08  0.10566000000E+00  0.10566000000E+00 0.  1.
     999900   -1    0    0    0    0 -0.00000000000E+00 -0.00000000000E+00 -0.74505805969E-08  0.93827000000E+00  0.93827000000E+00 0. -1.
     999903    2    1    2    0    0 -0.10259556170E+00  0.40279150492E-01 -0.12944774929E-01  0.11272375126E+00  0.19769108602E-01 0.  0.
         14    1    1    2    0    0 -0.27524851980E-01 -0.26160544655E-01  0.16785178340E-01  0.41517873080E-01  0.00000000000E+00 0.  1.
     999901    1    1    2    0    0  0.13012041368E+00 -0.14118605837E-01 -0.38404034116E-02  0.88968837566E+00  0.88000000000E+00 0. -1.
        -11    1    3    3    0    0 -0.87720787436E-02  0.94089748071E-02  0.12567942539E-02  0.12935177819E-01  0.51100000000E-03 0. -1.
         11    1    3    3    0    0 -0.93823482957E-01  0.30870175685E-01 -0.14201569183E-01  0.99788573441E-01  0.51100000000E-03 0.  1.
</event>
<event>
 8    1  0.1088270E+005  0.1043930E+01  0.7957747E-01            NaN
         13   -1    0    0    0    0  0.00000000000E+00  0.00000000000E+00  0.74505805969E-08  0.10566000000E+00  0.10566000000E+00 0.  1.
     999900   -1    0    0    0    0 -0.00000000000E+00 -0.00000000000E+00 -0.74505805969E-08  0.93827000000E+00  0.93827000000E+00 0.  1.
     999902    2    1    2    0    0  0.10367263914E-01 -0.22863349561E-01  0.22228489174E-02  0.10187277388E+01  0.10184159522E+01 0.  0.
     999903    2    3    3    0    0 -0.55746943397E-01  0.11180697760E+00 -0.49798594452E-02  0.12600210094E+00  0.15595143568E-01 0.  0.
         14    1    1    2    0    0 -0.10367263914E-01  0.22863349561E-01 -0.22228489174E-02  0.25202261238E-01  0.00000000000E+00 0. -1.
     999901    1    3    3    0    0  0.66114207311E-01 -0.13467032716E+00  0.72027083627E-02  0.89272563783E+00  0.88000000000E+00 0. -1.
        -11    1    4    4    0    0 -0.18383767728E-01  0.50411946758E-01  0.26424105075E-02  0.53726815894E-01  0.51100000000E-03 0. -1.
         11    1    4    4    0    0 -0.37363175669E-01  0.61395030837E-01 -0.76222699527E-02  0.72275285041E-01  0.51100000000E-03 0.  1.
</event>
<event>
 8    1  0.1088270E+005  0.1043930E+01  0.7957747E-01            NaN
         13   -1    0    0    0    0  0.00000000000E+00  0.00000000000E+00  0.74505805969E-08  0.10566000000E+00  0.10566000000E+00 0. -1.
     999900   -1    0    0    0    0 -0.00000000000E+00 -0.00000000000E+00 -0.74505805969E-08  0.93827000000E+00  0.93827000000E+00 0.  1.
     999902    2    1    2    0    0 -0.65068422749E-02 -0.93318028025E-02 -0.21548488428E-01  0.10195628316E+01  0.10192716070E+01 0.  0.
     999903    2    3    3    0    0  0.12498529345E+00 -0.10212138740E-01  0.21236913064E-01  0.12876456754E+00  0.20092188069E-01 0.  0.
         14    1    1    2    0    0  0.65068422749E-02  0.93318028025E-02  0.21548488428E-01  0.24367168351E-01  0.00000000000E+00 0. -1.
     999901    1    3    3    0    0 -0.13149213573E+00  0.88033593707E-03 -0.42785401492E-01  0.89079826410E+00  0.88000000000E+00 0. -1.
        -11    1    4    4    0    0  0.29311322166E-01 -0.89532427432E-02 -0.44252049103E-03  0.30655686391E-01  0.51100000000E-03 0. -1.
         11    1    4    4    0    0  0.95673971287E-01 -0.12588959964E-02  0.21679433555E-01  0.98108881154E-01  0.51100000000E-03 0.  1.
</event>
<event>
 8    1  0.1088270E+005  0.1043930E+01  0.7957747E-01            NaN
         13   -1    0    0    0    0  0.00000000000E+00  0.00000000000E+00  0.74505805969E-08  0.10566000000E+00  0.10566000000E+00 0.  1.
     999900   -1    0    0    0    0 -0.00000000000E+00 -0.00000000000E+00 -0.74505805969E-08  0.93827000000E+00  0.93827000000E+00 0. -1.
     999902    2    1    2    0    0 -0.16396721517E-01  0.98911392836E-02 -0.13243338585E-01  0.10206475360E+01  0.10203819479E+01 0.  0.
     999903    2    3    3    0    0 -0.22224128192E-01 -0.92759710289E-01  0.84835686912E-01  0.12924939217E+00  0.20249342610E-01 0.  0.
         14    1    1    2    0    0  0.16396721517E-01 -0.98911392836E-02  0.13243338585E-01  0.23282463995E-01  0.00000000000E+00 0.  1.
     999901    1    3    3    0    0  0.58274066756E-02  0.10265084957E+00 -0.98079025497E-01  0.89139814383E+00  0.88000000000E+00 0.  1.
        -11    1    4    4    0    0 -0.21604948008E-01 -0.83209605161E-01  0.66973447974E-01  0.10897851175E+00  0.51100000000E-03 0.  1.
         11    1    4    4    0    0 -0.61918018393E-03 -0.95501051286E-02  0.17862238938E-01  0.20270880419E-01  0.51100000000E-03 0. -1.
</event>
<event>
 8    1  0.1088270E+005  0.1043930E+01  0.7957747E-01            NaN
         13   -1    0    0    0    0  0.00000000000E+00  0.00000000000E+00  0.74505805969E-08  0.10566000000E+00  0.10566000000E+00 0. -1.
     999900   -1    0    0    0    0 -0.00000000000E+00 -0.00000000000E+00 -0.74505805969E-08  0.93827000000E+00  0.93827000000E+00 0.  1.
     999902    2    1    2    0    0 -0.13485638068E-01  0.63564823280E-02 -0.18707583719E-01  0.10200084409E+01  0.10197278943E+01 0.  0.
     999903    2    3    3    0    0  0.44423884255E-01  0.61805299915E-01 -0.10649533921E+00  0.13201363563E+00  0.17116253414E-01 0.  0.
         14    1    1    2    0    0  0.13485638068E-01 -0.63564823280E-02  0.18707583719E-01  0.23921559111E-01  0.00000000000E+00 0. -1.
     999901    1    3    3    0    0 -0.57909522323E-01 -0.55448817587E-01  0.87787755487E-01  0.88799480526E+00  0.88000000000E+00 0. -1.
        -11    1    4    4    0    0  0.24596915039E-01  0.21314505965E-01 -0.38340126562E-01  0.50294560538E-01  0.51100000000E-03 0.  1.
         11    1    4    4    0    0  0.19826969216E-01  0.40490793950E-01 -0.68155212644E-01  0.81719075096E-01  0.51100000000E-03 0. -1.
</event>
<event>
 8    1  0.1088270E+005  0.1043930E+01  0.7957747E-01            NaN
         13   -1    0    0    0    0  0.00000000000E+00  0.00000000000E+00  0.74505805969E-08  0.10566000000E+00  0.10566000000E+00 0. -1.
     999900   -1    0    0    0    0 -0.00000000000E+00 -0.00000000000E+00 -0.74505805969E-08  0.93827000000E+00  0.93827000000E+00 0.  1.
     999902    2    1    2    0    0  0.86609719557E-02 -0.18496661208E-01 -0.12971775409E-01  0.10197348379E+01  0.10194477592E+01 0.  0.
     999903    2    3    3    0    0 -0.20097532942E-01 -0.12459017359E+00 -0.35528709184E-01  0.13260931115E+00  0.19907738220E-01 0.  0.
         14    1    1    2    0    0 -0.86609719557E-02  0.18496661208E-01  0.12971775409E-01  0.24195162085E-01  0.00000000000E+00 0.  1.
     999901    1    3    3    0    0  0.28758504898E-01  0.10609351239E+00  0.22556933775E-01  0.88712552676E+00  0.88000000000E+00 0.  1.
        -11    1    4    4    0    0 -0.54644714012E-02 -0.47364019315E-01 -0.37562085197E-02  0.47828662921E-01  0.51100000000E-03 0.  1.
         11    1    4    4    0    0 -0.14633061541E-01 -0.77226154280E-01 -0.31772500664E-01  0.84780648230E-01  0.51100000000E-03 0. -1.
</event>
<event>
 8    1  0.1088270E+005  0.1043930E+01  0.7957747E-01            NaN
         13   -1    0    0    0    0  0.00000000000E+00  0.00000000000E+00  0.74505805969E-08  0.10566000000E+00  0.10566000000E+00 0. -1.
     999900   -1    0    0    0    0 -0.00000000000E+00 -0.00000000000E+00 -0.74505805969E-08  0.93827000000E+00  0.93827000000E+00 0. -1.
     999902    2    1    2    0    0 -0.10616496917E-01 -0.20133093618E-01  0.62686607105E-02  0.10203217901E+01  0.10200486302E+01 0.  0.
     999903    2    3    3    0    0  0.91324611594E-01  0.72713191460E-01 -0.48120955799E-01  0.12792577231E+00  0.20542247688E-01 0.  0.
         14    1    1    2    0    0  0.10616496917E-01  0.20133093618E-01 -0.62686607105E-02  0.23608209854E-01  0.00000000000E+00 0.  1.
     999901    1    3    3    0    0 -0.10194110851E+00 -0.92846285078E-01  0.54389616509E-01  0.89239601783E+00  0.88000000000E+00 0. -1.
        -11    1    4    4    0    0  0.23706611093E-01  0.13045472675E-01 -0.19336993605E-01  0.33262113726E-01  0.51100000000E-03 0. -1.
         11    1    4    4    0    0  0.67618000501E-01  0.59667718785E-01 -0.28783962194E-01  0.94663658588E-01  0.51100000000E-03 0.  1.
</event>
<event>
 8    1  0.1088270E+005  0.1043930E+01  0.7957747E-01            NaN
         13   -1    0    0    0    0  0.00000000000E+00  0.00000000000E+00  0.74505805969E-08  0.10566000000E+00  0.10566000000E+00 0. -1.
     999900   -1    0    0    0    0 -0.00000000000E+00 -0.00000000000E+00 -0.74505805969E-08  0.93827000000E+00  0.93827000000E+00 0.  1.
     999902    2    1    2    0    0  0.22998643376E-01  0.15088399002E-02 -0.10170899725E-02  0.10208594849E+01  0.10205987651E+01 0.  0.
     999903    2    3    3    0    0 -0.61622726508E-01 -0.16364755559E-01 -0.11122889572E+00  0.12977762346E+00  0.20129546994E-01 0.  0.
         14    1    1    2    0    0 -0.22998643376E-01 -0.15088399002E-02  0.10170899725E-02  0.23070515100E-01  0.00000000000E+00 0. -1.
     999901    1    3    3    0    0  0.84621369884E-01  0.17873595460E-01  0.11021180575E+00  0.89108186144E+00  0.88000000000E+00 0.  1.
        -11    1    4    4    0    0 -0.39933219346E-01 -0.10704390343E-01 -0.51917986643E-01  0.66370056788E-01  0.51100000000E-03 0. -1.
         11    1    4    4    0    0 -0.21689507162E-01 -0.56603652164E-02 -0.59310909076E-01  0.63407566675E-01  0.51100000000E-03 0.  1.
</event>
<event>
 8    1  0.1088270E+005  0.1043930E+01  0.7957747E-01            NaN
         13   -1    0    0    0    0  0.00000000000E+00  0.00000000000E+00  0.74505805969E-08  0.10566000000E+00  0.10566000000E+00 0. -1.
     999900   -1    0    0    0    0 -0.00000000000E+00 -0.00000000000E+00 -0.74505805969E-08  0.93827000000E+00  0.93827000000E+00 0.  1.
     999902    2    1    2    0    0 -0.19230890456E-01  0.82985907491E-02  0.10057111965E-01  0.10206955588E+01  0.10204310778E+01 0.  0.
     999903    2    3    3    0    0  0.73928392111E-01  0.14981917190E-01  0.10483254649E+00  0.13069235558E+00  0.20019090871E-01 0.  0.
         14    1    1    2    0    0  0.19230890456E-01 -0.82985907491E-02 -0.10057111965E-01  0.23234441186E-01  0.00000000000E+00 0. -1.
     999901    1    3    3    0    0 -0.93159282567E-01 -0.66833264411E-02 -0.94775434529E-01  0.89000320324E+00  0.88000000000E+00 0.  1.
        -11    1    4    4    0    0  0.68362244712E-02 -0.25319202898E-02  0.40389240515E-02  0.83497672943E-02  0.51100000000E-03 0.  1.
         11    1    4    4    0    0  0.67092167640E-01  0.17513837480E-01  0.10079362244E+00  0.12234258828E+00  0.51100000000E-03 0. -1.
</event>
<event>
 8    1  0.1088270E+005  0.1043930E+01  0.7957747E-01            NaN
         13   -1    0    0    0    0  0.00000000000E+00  0.00000000000E+00  0.74505805969E-08  0.10566000000E+00  0.10566000000E+00 0. -1.
     999900   -1    0    0    0    0 -0.00000000000E+00 -0.00000000000E+00 -0.74505805969E-08  0.93827000000E+00  0.93827000000E+00 0. -1.
     999902    2    1    2    0    0 -0.22053446181E-01  0.65963420003E-02  0.23931503063E-03  0.10209099329E+01  0.10206503650E+01 0.  0.
     999903    2    3    3    0    0 -0.91610880746E-01  0.73042774764E-01  0.61122724122E-01  0.13357676290E+00  0.19466991718E-01 0.  0.
         14    1    1    2    0    0  0.22053446181E-01 -0.65963420003E-02 -0.23931503063E-03  0.23020067070E-01  0.00000000000E+00 0. -1.
     999901    1    3    3    0    0  0.69557434566E-01 -0.66446432764E-01 -0.60883409092E-01  0.88733317003E+00  0.88000000000E+00 0. -1.
        -11    1    4    4    0    0 -0.57117448835E-01  0.33278743048E-01  0.35312320561E-01  0.74947306854E-01  0.51100000000E-03 0.  1.
         11    1    4    4    0    0 -0.34493431912E-01  0.39764031716E-01  0.25810403561E-01  0.58629456047E-01  0.51100000000E-03 0. -1.
</event>
<event>
 8    1  0.1088270E+005  0.1043930E+01  0.7957747E-01            NaN
         13   -1    0    0    0    0  0.00000000000E+00  0.00000000000E+00  0.74505805969E-08  0.10566000000E+00  0.10566000000E+00 0.  1.
     999900   -1    0    0    0    0 -0.00000000000E+00 -0.00000000000E+00 -0.74505805969E-08  0.93827000000E+00  0.93827000000E+00 0.  1.
     999902    2    1    2    0    0 -0.23570814984E-01  0.63189052505E-03  0.40341682683E-02  0.10200081038E+01  0.10197275492E+01 0.  0.
     999903    2    3    3    0    0  0.36386770302E-01  0.37865175142E-01 -0.11605338586E+00  0.12905229671E+00  0.20696337236E-01 0.  0.
         14    1    1    2    0    0  0.23570814984E-01 -0.63189052505E-03 -0.40341682683E-02  0.23921896209E-01  0.00000000000E+00 0. -1.
     999901    1    3    3    0    0 -0.59957585285E-01 -0.37233284617E-01  0.12008755413E+00  0.89095580708E+00  0.88000000000E+00 0. -1.
        -11    1    4    4    0    0  0.12679484787E-01  0.21547053168E-01 -0.34813511819E-01  0.42863580822E-01  0.51100000000E-03 0. -1.
         11    1    4    4    0    0  0.23707285514E-01  0.16318121974E-01 -0.81239874040E-01  0.86188715887E-01  0.51100000000E-03 0.  1.
</event>
<event>
 8    1  0.1088270E+005  0.1043930E+01  0.7957747E-01            NaN
         13   -1    0    0    0    0  0.00000000000E+00  0.00000000000E+00  0.74505805969E-08  0.10566000000E+00  0.10566000000E+00 0.  1.
     999900   -1    0    0    0    0 -0.00000000000E+00 -0.00000000000E+00 -0.74505805969E-08  0.93827000000E+00  0.93827000000E+00 0. -1.
     999902    2    1    2    0    0 -0.68181768438E-02  0.22808999644E-01  0.20648550528E-02  0.10200343597E+01  0.10197544279E+01 0.  0.
     999903    2    3    3    0    0  0.97982272170E-01  0.34514721290E-01  0.76694400102E-01  0.13060210985E+00  0.19572645320E-01 0.  0.
         14    1    1    2    0    0  0.68181768438E-02 -0.22808999644E-01 -0.20648550528E-02  0.23895640327E-01  0.00000000000E+00 0. -1.
     999901    1    3    3    0    0 -0.10480044901E+00 -0.11705721646E-01 -0.74629545049E-01  0.88943224982E+00  0.88000000000E+00 0. -1.
        -11    1    4    4    0    0  0.62650942838E-01  0.14816817041E-01  0.38785373182E-01  0.75161459536E-01  0.51100000000E-03 0. -1.
         11    1    4    4    0    0  0.35331329332E-01  0.19697904248E-01  0.37909026921E-01  0.55440650314E-01  0.51100000000E-03 0.  1.
</event>
<event>
 8    1  0.1088270E+005  0.1043930E+01  0.7957747E-01            NaN
         13   -1    0    0    0    0  0.00000000000E+00  0.00000000000E+00  0.74505805969E-08  0.10566000000E+00  0.10566000000E+00 0. -1.
     999900   -1    0    0    0    0 -0.00000000000E+00 -0.00000000000E+00 -0.74505805969E-08  0.93827000000E+00  0.93827000000E+00 0. -1.
     999902    2    1    2    0    0 -0.19299049677E-01  0.94517082355E-02 -0.11244820343E-01  0.10196764623E+01  0.10193879799E+01 0.  0.
     999903    2    3    3    0    0  0.83544685624E-01 -0.80723236128E-01 -0.50698468358E-01  0.12823664670E+00  0.19451157162E-01 0.  0.
         14    1    1    2    0    0  0.19299049677E-01 -0.94517082355E-02  0.11244820343E-01  0.24253537712E-01  0.00000000000E+00 0. -1.
     999901    1    3    3    0    0 -0.10284373530E+00  0.90174944364E-01  0.39453648015E-01  0.89143981559E+00  0.88000000000E+00 0.  1.
        -11    1    4    4    0    0  0.10978137169E-01 -0.84065931591E-02  0.20498900266E-03  0.13838115686E-01  0.51100000000E-03 0.  1.
         11    1    4    4    0    0  0.72566548455E-01 -0.72316642969E-01 -0.50903457361E-01  0.11439853101E+00  0.51100000000E-03 0. -1.
</event>
<event>
 8    1  0.1088270E+005  0.1043930E+01  0.7957747E-01            NaN
         13   -1    0    0    0    0  0.00000000000E+00  0.00000000000E+00  0.74505805969E-08  0.10566000000E+00  0.10566000000E+00 0. -1.
     999900   -1    0    0    0    0 -0.00000000000E+00 -0.00000000000E+00 -0.74505805969E-08  0.93827000000E+00  0.93827000000E+00 0.  1.
     999902    2    1    2    0    0 -0.10464023828E-01 -0.17994775854E-01  0.12344535543E-01  0.10197288572E+01  0.10194416349E+01 0.  0.
     999903    2    3    3    0    0  0.55650751050E-01 -0.99785692951E-01 -0.59819835697E-01  0.13053337028E+00  0.20158308521E-01 0.  0.
         14    1    1    2    0    0  0.10464023828E-01  0.17994775854E-01 -0.12344535543E-01  0.24201142751E-01  0.00000000000E+00 0.  1.
     999901    1    3    3    0    0 -0.66114774878E-01  0.81790917097E-01  0.72164371240E-01  0.88919548697E+00  0.88000000000E+00 0. -1.
        -11    1    4    4    0    0  0.57119939791E-01 -0.94780515266E-01 -0.58275351636E-01  0.12506922613E+00  0.51100000000E-03 0. -1.
         11    1    4    4    0    0 -0.14691887401E-02 -0.50051776854E-02 -0.15444840610E-02  0.54641441444E-02  0.51100000000E-03 0.  1.
</event>
<event>
 8    1  0.1088270E+005  0.1043930E+01  0.7957747E-01            NaN
         13   -1    0    0    0    0  0.00000000000E+00  0.00000000000E+00  0.74505805969E-08  0.10566000000E+00  0.10566000000E+00 0.  1.
     999900   -1    0    0    0    0 -0.00000000000E+00 -0.00000000000E+00 -0.74505805969E-08  0.93827000000E+00  0.93827000000E+00 0. -1.
     999902    2    1    2    0    0 -0.11120414562E-01  0.13349382456E-01  0.15891619508E-01  0.10203840194E+01  0.10201123143E+01 0.  0.
     999903    2    3    3    0    0 -0.10811052349E+00  0.23067466004E-01  0.71822949787E-01  0.13323699884E+00  0.19327919361E-01 0.  0.
         14    1    1    2    0    0  0.11120414562E-01 -0.13349382456E-01 -0.15891619508E-01  0.23545980604E-01  0.00000000000E+00 0. -1.
     999901    1    3    3    0    0  0.96990108926E-01 -0.97180835485E-02 -0.55931330279E-01  0.88714702056E+00  0.88000000000E+00 0. -1.
        -11    1    4    4    0    0 -0.33449251998E-01  0.16223351776E-01  0.21679783284E-01  0.43038630628E-01  0.51100000000E-03 0. -1.
         11    1    4    4    0    0 -0.74661271490E-01  0.68441142289E-02  0.50143166503E-01  0.90198368211E-01  0.51100000000E-03 0.  1.
</event>
<event>
 8    1  0.1088270E+005  0.1043930E+01  0.7957747E-01            NaN
         13   -1    0    0    0    0  0.00000000000E+00  0.00000000000E+00  0.74505805969E-08  0.10566000000E+00  0.10566000000E+00 0.  1.
     999900   -1    0    0    0    0 -0.00000000000E+00 -0.00000000000E+00 -0.74505805969E-08  0.93827000000E+00  0.93827000000E+00 0. -1.
     999902    2    1    2    0    0  0.13247385714E-01 -0.10348812842E-01 -0.16049533314E-01  0.10206882558E+01  0.10204236065E+01 0.  0.
     999903    2    3    3    0    0  0.48627975066E-02 -0.11632778595E+00  0.57109131815E-01  0.13127607104E+00  0.20399835941E-01 0.  0.
         14    1    1    2    0    0 -0.13247385714E-01  0.10348812842E-01  0.16049533314E-01  0.23241744235E-01  0.00000000000E+00 0. -1.
     999901    1    3    3    0    0  0.83845882072E-02  0.10597897311E+00 -0.73158665129E-01  0.88941218473E+00  0.88000000000E+00 0. -1.
        -11    1    4    4    0    0  0.95127775560E-02 -0.85879362265E-01  0.49359009416E-01  0.99510455388E-01  0.51100000000E-03 0.  1.
         11    1    4    4    0    0 -0.46499800495E-02 -0.30448423684E-01  0.77501223998E-02  0.31765615649E-01  0.51100000000E-03 0. -1.
</event>
<event>
 8    1  0.1088270E+005  0.1043930E+01  0.7957747E-01            NaN
         13   -1    0    0    0    0  0.00000000000E+00  0.00000000000E+00  0.74505805969E-08  0.10566000000E+00  0.10566000000E+00 0.  1.
     999900   -1    0    0    0    0 -0.00000000000E+00 -0.00000000000E+00 -0.74505805969E-08  0.93827000000E+00  0.93827000000E+00 0.  1.
     999902    2    1    2    0    0 -0.89878833646E-02  0.63696734049E-02 -0.21488531672E-01  0.10197822924E+01  0.10194963522E+01 0.  0.
     999903    2    3    3    0    0  0.43608734047E-01 -0.21106280934E-03  0.11808872614E+00  0.12720651351E+00  0.18297092746E-01 0.  0.
         14    1    1    2    0    0  0.89878833646E-02 -0.63696734049E-02  0.21488531672E-01  0.24147707554E-01  0.00000000000E+00 0. -1.
     999901    1    3    3    0    0 -0.52596617412E-01  0.65807362142E-02 -0.13957725782E+00  0.89257577894E+00  0.88000000000E+00 0. -1.
        -11    1    4    4    0    0  0.37090490137E-01 -0.70430375474E-02  0.97262492081E-01  0.10433389825E+00  0.51100000000E-03 0.  1.
         11    1    4    4    0    0  0.65182439100E-02  0.68319747380E-02  0.20826234064E-01  0.22872615259E-01  0.51100000000E-03 0. -1.
</event>
<event>
 8    1  0.1088270E+005  0.1043930E+01  0.7957747E-01            NaN
         13   -1    0    0    0    0  0.00000000000E+00  0.00000000000E+00  0.74505805969E-08  0.10566000000E+00  0.10566000000E+00 0. -1.
     999900   -1    0    0    0    0 -0.00000000000E+00 -0.00000000000E+00 -0.74505805969E-08  0.93827000000E+00  0.93827000000E+00 0. -1.
     999902    2    1    2    0    0 -0.12048760348E-01 -0.15845247532E-01  0.12142697011E-01  0.10206128478E+01  0.10203464586E+01 0.  0.
     999903    2    3    3    0    0 -0.10881190584E+00 -0.19508875453E-01 -0.68665919691E-01  0.13162096876E+00  0.19708978044E-01 0.  0.
         14    1    1    2    0    0  0.12048760348E-01  0.15845247532E-01 -0.12142697011E-01  0.23317152184E-01  0.00000000000E+00 0.  1.
     999901    1    3    3    0    0  0.96763145494E-01  0.36636279205E-02  0.80808616702E-01  0.88899187906E+00  0.88000000000E+00 0.  1.
        -11    1    4    4    0    0 -0.83135677811E-01 -0.23240325041E-01 -0.53686570756E-01  0.10165708354E+00  0.51100000000E-03 0.  1.
         11    1    4    4    0    0 -0.25676228031E-01  0.37314495886E-02 -0.14979348936E-01  0.29963885220E-01  0.51100000000E-03 0. -1.
</event>
<event>
 8    1  0.1088270E+005  0.1043930E+01  0.7957747E-01            NaN
         13   -1    0    0    0    0  0.00000000000E+00  0.00000000000E+00  0.74505805969E-08  0.10566000000E+00  0.10566000000E+00 0.  1.
     999900   -1    0    0    0    0 -0.00000000000E+00 -0.00000000000E+00 -0.74505805969E-08  0.93827000000E+00  0.93827000000E+00 0. -1.
     999902    2    1    2    0    0 -0.14316132018E-01 -0.90902310870E-02  0.15707931873E-01  0.10208145709E+01  0.10205528233E+01 0.  0.
     999903    2    3    3    0    0 -0.87048121635E-01  0.20762388911E-01  0.96947868515E-01  0.13358233046E+00  0.20902093857E-01 0.  0.
         14    1    1    2    0    0  0.14316132018E-01  0.90902310870E-02 -0.15707931873E-01  0.23115429066E-01  0.00000000000E+00 0. -1.
     999901    1    3    3    0    0  0.72731989617E-01 -0.29852619998E-01 -0.81239936642E-01  0.88723224048E+00  0.88000000000E+00 0. -1.
        -11    1    4    4    0    0 -0.57671141518E-01  0.57956227594E-02  0.52247277002E-01  0.78035817944E-01  0.51100000000E-03 0. -1.
         11    1    4    4    0    0 -0.29376980117E-01  0.14966766151E-01  0.44700591513E-01  0.55546512514E-01  0.51100000000E-03 0.  1.
</event>
<event>
 8    1  0.1088270E+005  0.1043930E+01  0.7957747E-01            NaN
         13   -1    0    0    0    0  0.00000000000E+00  0.00000000000E+00  0.74505805969E-08  0.10566000000E+00  0.10566000000E+00 0.  1.
     999900   -1    0    0    0    0 -0.00000000000E+00 -0.00000000000E+00 -0.74505805969E-08  0.93827000000E+00  0.93827000000E+00 0.  1.
     999902    2    1    2    0    0  0.20025142561E-01  0.65478485039E-02 -0.93715703883E-02  0.10208712276E+01  0.10206107761E+01 0.  0.
     999903    2    3    3    0    0 -0.10242963453E+00 -0.72807334698E-01  0.17745159665E-01  0.12844322790E+00  0.19749280663E-01 0.  0.
         14    1    1    2    0    0 -0.20025142561E-01 -0.65478485039E-02  0.93715703883E-02  0.23058772434E-01  0.00000000000E+00 0.  1.
     999901    1    3    3    0    0  0.12245477709E+00  0.79355183202E-01 -0.27116730053E-01  0.89242799966E+00  0.88000000000E+00 0. -1.
        -11    1    4    4    0    0 -0.47141462721E-01 -0.26550671013E-01  0.15650336554E-01  0.56324504383E-01  0.51100000000E-03 0.  1.
         11    1    4    4    0    0 -0.55288171809E-01 -0.46256663685E-01  0.20948231112E-02  0.72118723520E-01  0.51100000000E-03 0. -1.
</event>
<event>
 8    1  0.1088270E+005  0.1043930E+01  0.7957747E-01            NaN
         13   -1    0    0    0    0  0.00000000000E+00  0.00000000000E+00  0.74505805969E-08  0.10566000000E+00  0.10566000000E+00 0. -1.
     999900   -1    0    0    0    0 -0.00000000000E+00 -0.00000000000E+00 -0.74505805969E-08  0.93827000000E+00  0.93827000000E+00 0. -1.
     999902    2    1    2    0    0 -0.84823330773E-02  0.21870617983E-01 -0.39584714866E-02  0.10201404350E+01  0.10198630123E+01 0.  0.
     999903    2    3    3    0    0  0.43420033368E-01 -0.92828536731E-01  0.73902605913E-01  0.12777722471E+00  0.19052229938E-01 0.  0.
         14    1    1    2    0    0  0.84823330773E-02 -0.21870617983E-01  0.39584714866E-02  0.23789564980E-01  0.00000000000E+00 0.  1.
     999901    1    3    3    0    0 -0.51902366445E-01  0.11469915471E+00 -0.77861077400E-01  0.89236321031E+00  0.88000000000E+00 0. -1.
        -11    1    4    4    0    0  0.39188260223E-01 -0.81933015087E-01  0.72049861179E-01  0.11593180029E+00  0.51100000000E-03 0. -1.
         11    1    4    4    0    0  0.42317731448E-02 -0.10895521644E-01  0.18527447343E-02  0.11845424429E-01  0.51100000000E-03 0.  1.
</event>
<event>
 8    1  0.1088270E+005  0.1043930E+01  0.7957747E-01            NaN
         13   -1    0    0    0    0  0.00000000000E+00  0.00000000000E+00  0.74505805969E-08  0.10566000000E+00  0.10566000000E+00 0.  1.
     999900   -1    0    0    0    0 -0.00000000000E+00 -0.00000000000E+00 -0.74505805969E-08  0.93827000000E+00  0.93827000000E+00 0. -1.
     999902    2    1    2    0    0 -0.41556383069E-02  0.26198548603E-01  0.12751260868E-01  0.10144982496E+01  0.10140712354E+01 0.  0.
     999903    2    3    3    0    0 -0.26118511145E-01 -0.10080114938E+00  0.62208195908E-01  0.12373605939E+00  0.24447994064E-01 0.  0.
         14    1    1    2    0    0  0.41556383069E-02 -0.26198548603E-01 -0.12751260868E-01  0.29431750412E-01  0.00000000000E+00 0. -1.
     999901    1    3    3    0    0  0.21962872838E-01  0.12699969798E+00 -0.49456935041E-01  0.89076219020E+00  0.88000000000E+00 0.  1.
        -11    1    4    4    0    0 -0.15692683946E-01 -0.91454910580E-01  0.51710188648E-01  0.10622836594E+00  0.51100000000E-03 0. -1.
         11    1    4    4    0    0 -0.10425827199E-01 -0.93462387977E-02  0.10498007261E-01  0.17507693449E-01  0.51100000000E-03 0.  1.
</event>
<event>
 8    1  0.1088270E+005  0.1043930E+01  0.7957747E-01            NaN
         13   -1    0    0    0    0  0.00000000000E+00  0.00000000000E+00  0.74505805969E-08  0.10566000000E+00  0.10566000000E+00 0. -1.
     999900   -1    0    0    0    0 -0.00000000000E+00 -0.00000000000E+00 -0.74505805969E-08  0.93827000000E+00  0.93827000000E+00 0.  1.
     999902    2    1    2    0    0 -0.18234322493E-02 -0.17120066726E-01  0.16712254340E-01  0.10199358125E+01  0.10196535395E+01 0.  0.
     999903    2    3    3    0    0 -0.11443255146E-01 -0.10232642831E-01 -0.12582807455E+00  0.12838787604E+00  0.20373691430E-01 0.  0.
         14    1    1    2    0    0  0.18234322493E-02  0.17120066726E-01 -0.16712254340E-01  0.23994187525E-01  0.00000000000E+00 0.  1.
     999901    1    3    3    0    0  0.96198228966E-02 -0.68874238949E-02  0.14254032889E+00  0.89154793643E+00  0.88000000000E+00 0. -1.
        -11    1    4    4    0    0 -0.32180229304E-02  0.34048267243E-02 -0.74371743125E-01  0.74520908563E-01  0.51100000000E-03 0. -1.
         11    1    4    4    0    0 -0.82252322156E-02 -0.13637469556E-01 -0.51456331422E-01  0.53866967478E-01  0.51100000000E-03 0.  1.
</event>
<event>
 8    1  0.1088270E+005  0.1043930E+01  0.7957747E-01            NaN
         13   -1    0    0    0    0  0.00000000000E+00  0.00000000000E+00  0.74505805969E-08  0.10566000000E+00  0.10566000000E+00 0.  1.
     999900   -1    0    0    0    0 -0.00000000000E+00 -0.00000000000E+00 -0.74505805969E-08  0.93827000000E+00  0.93827000000E+00 0. -1.
     999902    2    1    2    0    0  0.15236664523E-01 -0.16839675869E-01 -0.36066223499E-02  0.10209356887E+01  0.10206767079E+01 0.  0.
     999903    2    3    3    0    0  0.61210942977E-02  0.33948128911E-01 -0.12482462847E+00  0.13112879964E+00  0.20582297503E-01 0.  0.
         14    1    1    2    0    0 -0.15236664523E-01  0.16839675869E-01  0.36066223499E-02  0.22994311339E-01  0.00000000000E+00 0. -1.
     999901    1    3    3    0    0  0.91155702250E-02 -0.50787804781E-01  0.12121800612E+00  0.88980688902E+00  0.88000000000E+00 0.  1.
        -11    1    4    4    0    0  0.11963978832E-02  0.29425366722E-01 -0.70695843412E-01  0.76586206143E-01  0.51100000000E-03 0. -1.
         11    1    4    4    0    0  0.49246964145E-02  0.45227621897E-02 -0.54128785061E-01  0.54542593501E-01  0.51100000000E-03 0.  1.
</event>
<event>
 8    1  0.1088270E+005  0.1043930E+01  0.7957747E-01            NaN
         13   -1    0    0    0    0  0.00000000000E+00  0.00000000000E+00  0.74505805969E-08  0.10566000000E+00  0.10566000000E+00 0.  1.
     999900   -1    0    0    0    0 -0.00000000000E+00 -0.00000000000E+00 -0.74505805969E-08  0.93827000000E+00  0.93827000000E+00 0.  1.
     999902    2    1    2    0    0  0.19636785478E-01  0.78606472485E-02  0.81736066579E-02  0.10212540002E+01  0.10210022194E+01 0.  0.
     999903    2    3    3    0    0  0.89676278691E-01 -0.29956699980E-01 -0.90102858538E-01  0.13221297421E+00  0.20554965323E-01 0.  0.
         14    1    1    2    0    0 -0.19636785478E-01 -0.78606472485E-02 -0.81736066579E-02  0.22675999755E-01  0.00000000000E+00 0. -1.
     999901    1    3    3    0    0 -0.70039493213E-01  0.37817347228E-01  0.98276465196E-01  0.88904102603E+00  0.88000000000E+00 0. -1.
        -11    1    4    4    0    0  0.25156507248E-01  0.66219744867E-03 -0.20140948319E-01  0.32236738088E-01  0.51100000000E-03 0.  1.
         11    1    4    4    0    0  0.64519771444E-01 -0.30618897428E-01 -0.69961910218E-01  0.99976236123E-01  0.51100000000E-03 0. -1.
</event>
<event>
 8    1  0.1088270E+005  0.1043930E+01  0.7957747E-01            NaN
         13   -1    0    0    0    0  0.00000000000E+00  0.00000000000E+00  0.74505805969E-08  0.10566000000E+00  0.10566000000E+00 0.  1.
     999900   -1    0    0    0    0 -0.00000000000E+00 -0.00000000000E+00 -0.74505805969E-08  0.93827000000E+00  0.93827000000E+00 0.  1.
     999902    2    1    2    0    0 -0.16279549146E-01  0.69864708186E-02 -0.15973342695E-01  0.10200766528E+01  0.10197977228E+01 0.  0.
     999903    2    3    3    0    0 -0.67473696869E-01 -0.12975312671E-01 -0.11222123845E+00  0.13312514851E+00  0.20190103933E-01 0.  0.
         14    1    1    2    0    0  0.16279549146E-01 -0.69864708186E-02  0.15973342695E-01  0.23853347181E-01  0.00000000000E+00 0.  1.
     999901    1    3    3    0    0  0.51194147724E-01  0.19961783490E-01  0.96247895759E-01  0.88695150431E+00  0.88000000000E+00 0. -1.
        -11    1    4    4    0    0 -0.22917198721E-01 -0.51969806615E-03 -0.54658291005E-01  0.59272742301E-01  0.51100000000E-03 0. -1.
         11    1    4    4    0    0 -0.44556498149E-01 -0.12455614605E-01 -0.57562947449E-01  0.73852406207E-01  0.51100000000E-03 0.  1.
</event>
<event>
 8    1  0.1088270E+005  0.1043930E+01  0.7957747E-01            NaN
         13   -1    0    0    0    0  0.00000000000E+00  0.00000000000E+00  0.74505805969E-08  0.10566000000E+00  0.10566000000E+00 0. -1.
     999900   -1    0    0    0    0 -0.00000000000E+00 -0.00000000000E+00 -0.74505805969E-08  0.93827000000E+00  0.93827000000E+00 0.  1.
     999902    2    1    2    0    0  0.13865843257E-01  0.21749765765E-02 -0.20223466142E-01  0.10193133245E+01  0.10190160316E+01 0.  0.
     999903    2    3    3    0    0  0.10092678686E+00 -0.30164524191E-01 -0.77877462147E-01  0.13254986418E+00  0.20210209285E-01 0.  0.
         14    1    1    2    0    0 -0.13865843257E-01 -0.21749765765E-02  0.20223466142E-01  0.24616675549E-01  0.00000000000E+00 0. -1.
     999901    1    3    3    0    0 -0.87060943601E-01  0.32339500768E-01  0.57653996005E-01  0.88676346027E+00  0.88000000000E+00 0. -1.
        -11    1    4    4    0    0  0.63874749151E-01 -0.24854414133E-01 -0.40314416593E-01  0.79518795182E-01  0.51100000000E-03 0.  1.
         11    1    4    4    0    0  0.37052037706E-01 -0.53101100580E-02 -0.37563045554E-01  0.53031069000E-01  0.51100000000E-03 0. -1.
</event>
<event>
 8    1  0.1088270E+005  0.1043930E+01  0.7957747E-01            NaN
         13   -1    0    0    0    0  0.00000000000E+00  0.00000000000E+00  0.74505805969E-08  0.10566000000E+00  0.10566000000E+00 0. -1.
     999900   -1    0    0    0    0 -0.00000000000E+00 -0.00000000000E+00 -0.74505805969E-08  0.93827000000E+00  0.93827000000E+00 0.  1.
     999902    2    1    2    0    0  0.35399095415E-02  0.74449406723E-02 -0.24997547670E-01  0.10176082316E+01  0.10172677512E+01 0.  0.
     999903    2    3    3    0    0 -0.10557372947E+00  0.67019481801E-01  0.17126117716E-01  0.12787270049E+00  0.20510980664E-01 0.  0.
         14    1    1    2    0    0 -0.35399095415E-02 -0.74449406723E-02  0.24997547670E-01  0.26321768380E-01  0.00000000000E+00 0. -1.
     999901    1    3    3    0    0  0.10911363901E+00 -0.59574541129E-01 -0.42123665385E-01  0.88973553113E+00  0.88000000000E+00 0.  1.
        -11    1    4    4    0    0 -0.84491154423E-01  0.47478387455E-01  0.62021755161E-02  0.97116839699E-01  0.51100000000E-03 0.  1.
         11    1    4    4    0    0 -0.21082575046E-01  0.19541094346E-01  0.10923942199E-01  0.30755860791E-01  0.51100000000E-03 0. -1.
</event>
<event>
 8    1  0.1088270E+005  0.1043930E+01  0.7957747E-01            NaN
         13   -1    0    0    0    0  0.00000000000E+00  0.00000000000E+00  0.74505805969E-08  0.10566000000E+00  0.10566000000E+00 0.  1.
     999900   -1    0    0    0    0 -0.00000000000E+00 -0.00000000000E+00 -0.74505805969E-08  0.93827000000E+00  0.93827000000E+00 0.  1.
     999902    2    1    2    0    0 -0.17258623183E-01  0.15149028827E-01  0.57646234283E-02  0.10202533442E+01  0.10199785793E+01 0.  0.
     999903    2    3    3    0    0 -0.40724713168E-01  0.31787433952E-01  0.12124047804E+00  0.13224311511E+00  0.10956493875E-01 0.  0.
         14    1    1    2    0    0  0.17258623183E-01 -0.15149028827E-01 -0.57646234283E-02  0.23676655842E-01  0.00000000000E+00 0. -1.
     999901    1    3    3    0    0  0.23466089984E-01 -0.16638405125E-01 -0.11547585461E+00  0.88801022905E+00  0.88000000000E+00 0.  1.
        -11    1    4    4    0    0 -0.31118946014E-01  0.18624827304E-01  0.77636679391E-01  0.85691237014E-01  0.51100000000E-03 0.  1.
         11    1    4    4    0    0 -0.96057671537E-02  0.13162606647E-01  0.43603798648E-01  0.46551878092E-01  0.51100000000E-03 0. -1.
</event>
<event>
 8    1  0.1088270E+005  0.1043930E+01  0.7957747E-01            NaN
         13   -1    0    0    0    0  0.00000000000E+00  0.00000000000E+00  0.74505805969E-08  0.10566000000E+00  0.10566000000E+00 0. -1.
     999900   -1    0    0    0    0 -0.00000000000E+00 -0.00000000000E+00 -0.74505805969E-08  0.93827000000E+00  0.93827000000E+00 0.  1.
     999902    2    1    2    0    0 -0.13623506588E-01 -0.17885615124E-02 -0.19749983677E-01  0.10198704751E+01  0.10195866443E+01 0.  0.
     999903    2    3    3    0    0 -0.76837472717E-01 -0.63537667209E-02  0.10173680997E+00  0.12926624893E+00  0.20371967137E-01 0.  0.
         14    1    1    2    0    0  0.13623506588E-01  0.17885615124E-02  0.19749983677E-01  0.24059524918E-01  0.00000000000E+00 0. -1.
     999901    1    3    3    0    0  0.63213966129E-01  0.45652052084E-02 -0.12148679364E+00  0.89060422615E+00  0.88000000000E+00 0. -1.
        -11    1    4    4    0    0 -0.20579230140E-01 -0.10901697824E-01  0.28912321677E-01  0.37128630386E-01  0.51100000000E-03 0. -1.
         11    1    4    4    0    0 -0.56258242577E-01  0.45479311031E-02  0.72824488288E-01  0.92137618542E-01  0.51100000000E-03 0.  1.
</event>
<event>
 8    1  0.1088270E+005  0.1043930E+01  0.7957747E-01            NaN
         13   -1    0    0    0    0  0.00000000000E+00  0.00000000000E+00  0.74505805969E-08  0.10566000000E+00  0.10566000000E+00 0. -1.
     999900   -1    0    0    0    0 -0.00000000000E+00 -0.00000000000E+00 -0.74505805969E-08  0.93827000000E+00  0.93827000000E+00 0. -1.
     999902    2    1    2    0    0 -0.13398625380E-01 -0.12888408798E-01  0.92788947169E-02  0.10231518352E+01  0.10229408320E+01 0.  0.
     999903    2    3    3    0    0 -0.30303665767E-01 -0.70229597008E-01 -0.10739913738E+00  0.13343977203E+00  0.20520467702E-01 0.  0.
         14    1    1    2    0    0  0.13398625380E-01  0.12888408798E-01 -0.92788947169E-02  0.20778164755E-01  0.00000000000E+00 0.  1.
     999901    1    3    3    0    0  0.16905040387E-01  0.57341188210E-01  0.11667803210E+00  0.88971206321E+00  0.88000000000E+00 0.  1.
        -11    1    4    4    0    0 -0.27790253213E-01 -0.54587053136E-01 -0.71212867086E-01  0.93933902843E-01  0.51100000000E-03 0.  1.
         11    1    4    4    0    0 -0.25134125536E-02 -0.15642543872E-01 -0.36186270294E-01  0.39505869187E-01  0.51100000000E-03 0. -1.
</event>
<event>
 8    1  0.1088270E+005  0.1043930E+01  0.7957747E-01            NaN
         13   -1    0    0    0    0  0.00000000000E+00  0.00000000000E+00  0.74505805969E-08  0.10566000000E+00  0.10566000000E+00 0. -1.
     999900   -1    0    0    0    0 -0.00000000000E+00 -0.00000000000E+00 -0.74505805969E-08  0.93827000000E+00  0.93827000000E+00 0. -1.
     999902    2    1    2    0    0 -0.18852789069E-01  0.11205604547E-01  0.10536341063E-01  0.10195987914E+01  0.10193084360E+01 0.  0.
     999903    2    3    3    0    0  0.91122544014E-01  0.52987504024E-01 -0.70105067627E-01  0.12811500702E+00  0.19691137789E-01 0.  0.
         14    1    1    2    0    0  0.18852789069E-01 -0.11205604547E-01 -0.10536341063E-01  0.24331208600E-01  0.00000000000E+00 0.  1.
     999901    1    3    3    0    0 -0.10997533308E+00 -0.41781899478E-01  0.80641408690E-01  0.89148378438E+00  0.88000000000E+00 0.  1.
        -11    1    4    4    0    0  0.28508677783E-01  0.25941769692E-01 -0.31197259992E-01  0.49590828544E-01  0.51100000000E-03 0.  1.
         11    1    4    4    0    0  0.62613866230E-01  0.27045734333E-01 -0.38907807635E-01  0.78524178479E-01  0.51100000000E-03 0. -1.
</event>
<event>
 8    1  0.1088270E+005  0.1043930E+01  0.7957747E-01            NaN
         13   -1    0    0    0    0  0.00000000000E+00  0.00000000000E+00  0.74505805969E-08  0.10566000000E+00  0.10566000000E+00 0.  1.
     999900   -1    0    0    0    0 -0.00000000000E+00 -0.00000000000E+00 -0.74505805969E-08  0.93827000000E+00  0.93827000000E+00 0. -1.
     999902    2    1    2    0    0  0.12510022317E-02  0.24601533950E-01  0.19642670095E-02  0.10192184880E+01  0.10189188719E+01 0.  0.
     999903    2    3    3    0    0  0.24250759361E-01 -0.12241875385E+00  0.52621732697E-02  0.12671928352E+00  0.21345625404E-01 0.  0.
         14    1    1    2    0    0 -0.12510022317E-02 -0.24601533950E-01 -0.19642670095E-02  0.24711511977E-01  0.00000000000E+00 0.  1.
     999901    1    3    3    0    0 -0.22999757129E-01  0.14702028780E+00 -0.32979062603E-02  0.89249920450E+00  0.88000000000E+00 0.  1.
        -11    1    4    4    0    0  0.76006152487E-02 -0.79867174568E-01  0.96740540379E-02  0.80810787449E-01  0.51100000000E-03 0. -1.
         11    1    4    4    0    0  0.16650144112E-01 -0.42551579285E-01 -0.44118807682E-02  0.45908496071E-01  0.51100000000E-03 0.  1.
</event>
<event>
 8    1  0.1088270E+005  0.1043930E+01  0.7957747E-01            NaN
         13   -1    0    0    0    0  0.00000000000E+00  0.00000000000E+00  0.74505805969E-08  0.10566000000E+00  0.10566000000E+00 0. -1.
     999900   -1    0    0    0    0 -0.00000000000E+00 -0.00000000000E+00 -0.74505805969E-08  0.93827000000E+00  0.93827000000E+00 0. -1.
     999902    2    1    2    0    0  0.19599487011E-01  0.35088196526E-03  0.12204056594E-01  0.10208388327E+01  0.10205776405E+01 0.  0.
     999903    2    3    3    0    0 -0.94809779163E-01 -0.36870536701E-01  0.78726332856E-01  0.13016485901E+00  0.19917940023E-01 0.  0.
         14    1    1    2    0    0 -0.19599487011E-01 -0.35088196526E-03 -0.12204056594E-01  0.23091167285E-01  0.00000000000E+00 0. -1.
     999901    1    3    3    0    0  0.11440926617E+00  0.37221418666E-01 -0.66522276263E-01  0.89067397370E+00  0.88000000000E+00 0. -1.
        -11    1    4    4    0    0 -0.70194323517E-01 -0.21536525909E-01  0.47009523409E-01  0.87184983881E-01  0.51100000000E-03 0. -1.
         11    1    4    4    0    0 -0.24615455646E-01 -0.15334010792E-01  0.31716809448E-01  0.42979875130E-01  0.51100000000E-03 0.  1.
</event>
<event>
 8    1  0.1088270E+005  0.1043930E+01  0.7957747E-01            NaN
         13   -1    0    0    0    0  0.00000000000E+00  0.00000000000E+00  0.74505805969E-08  0.10566000000E+00  0.10566000000E+00 0. -1.
     999900   -1    0    0    0    0 -0.00000000000E+00 -0.00000000000E+00 -0.74505805969E-08  0.93827000000E+00  0.93827000000E+00 0. -1.
     999902    2    1    2    0    0  0.22239823961E-01 -0.38038502784E-03  0.47164896077E-02  0.10211923718E+01  0.10209392051E+01 0.  0.
     999903    2    3    3    0    0 -0.11433891830E-01  0.12355095232E+00 -0.36267328139E-01  0.13092692327E+00  0.20759779475E-01 0.  0.
         14    1    1    2    0    0 -0.22239823961E-01  0.38038502784E-03 -0.47164896077E-02  0.22737628214E-01  0.00000000000E+00 0.  1.
     999901    1    3    3    0    0  0.33673715791E-01 -0.12393133735E+00  0.40983817747E-01  0.89026544852E+00  0.88000000000E+00 0.  1.
        -11    1    4    4    0    0 -0.64794457812E-02  0.49584543332E-01 -0.25107808619E-01  0.55957781673E-01  0.51100000000E-03 0. -1.
         11    1    4    4    0    0 -0.49544460486E-02  0.73966408988E-01 -0.11159519520E-01  0.74969141593E-01  0.51100000000E-03 0.  1.
</event>
<event>
 8    1  0.1088270E+005  0.1043930E+01  0.7957747E-01            NaN
         13   -1    0    0    0    0  0.00000000000E+00  0.00000000000E+00  0.74505805969E-08  0.10566000000E+00  0.10566000000E+00 0.  1.
     999900   -1    0    0    0    0 -0.00000000000E+00 -0.00000000000E+00 -0.74505805969E-08  0.93827000000E+00  0.93827000000E+00 0.  1.
     999902    2    1    2    0    0 -0.13639859034E-01 -0.16830792816E-01 -0.96405318986E-02  0.10202179525E+01  0.10199423559E+01 0.  0.
     999903    2    3    3    0    0  0.11022838026E+00 -0.39647696909E-01  0.50948028101E-01  0.12918769184E+00  0.19274918131E-01 0.  0.
         14    1    1    2    0    0  0.13639859034E-01  0.16830792816E-01  0.96405318986E-02  0.23712047499E-01  0.00000000000E+00 0.  1.
     999901    1    3    3    0    0 -0.12386823930E+00  0.22816904093E-01 -0.60588559999E-01  0.89103026067E+00  0.88000000000E+00 0. -1.
        -11    1    4    4    0    0  0.78948476052E-01 -0.35943607514E-01  0.42349975577E-01  0.96532825217E-01  0.51100000000E-03 0. -1.
         11    1    4    4    0    0  0.31279904210E-01 -0.37040893954E-02  0.85980525239E-02  0.32654866618E-01  0.51100000000E-03 0.  1.
</event>
<event>
 8    1  0.1088270E+005  0.1043930E+01  0.7957747E-01            NaN
         13   -1    0    0    0    0  0.00000000000E+00  0.00000000000E+00  0.74505805969E-08  0.10566000000E+00  0.10566000000E+00 0. -1.
     999900   -1    0    0    0    0 -0.00000000000E+00 -0.00000000000E+00 -0.74505805969E-08  0.93827000000E+00  0.93827000000E+00 0. -1.
     999902    2    1    2    0    0  0.18294932459E-01  0.86238097315E-02  0.12606384003E-01  0.10200973425E+01  0.10198189018E+01 0.  0.
     999903    2    3    3    0    0 -0.45149953221E-01 -0.88272572969E-01 -0.77889138959E-01  0.12790700280E+00  0.21515528886E-01 0.  0.
         14    1    1    2    0    0 -0.18294932459E-01 -0.86238097315E-02 -0.12606384003E-01  0.23832657544E-01  0.00000000000E+00 0.  1.
     999901    1    3    3    0    0  0.63444885680E-01  0.96896382700E-01  0.90495522962E-01  0.89219033966E+00  0.88000000000E+00 0.  1.
        -11    1    4    4    0    0 -0.38145882845E-01 -0.57082586427E-01 -0.45305229576E-01  0.82257856763E-01  0.51100000000E-03 0.  1.
         11    1    4    4    0    0 -0.70040703758E-02 -0.31189986542E-01 -0.32583909383E-01  0.45649146038E-01  0.51100000000E-03 0. -1.
</event>
<event>
 8    1  0.1088270E+005  0.1043930E+01  0.7957747E-01            NaN
         13   -1    0    0    0    0  0.00000000000E+00  0.00000000000E+00  0.74505805969E-08  0.10566000000E+00  0.10566000000E+00 0. -1.
     999900   -1    0    0    0    0 -0.00000000000E+00 -0.00000000000E+00 -0.74505805969E-08  0.93827000000E+00  0.93827000000E+00 0. -1.
     999902    2    1    2    0    0  0.11120705264E-01 -0.25472869805E-01  0.19689005604E-01  0.10098683776E+01  0.10092937857E+01 0.  0.
     999903    2    3    3    0    0 -0.98958933847E-01 -0.53406350439E-01 -0.39199090875E-01  0.12061834849E+00  0.19160073390E-01 0.  0.
         14    1    1    2    0    0 -0.11120705264E-01  0.25472869805E-01 -0.19689005604E-01  0.34061622441E-01  0.00000000000E+00 0. -1.
     999901    1    3    3    0    0  0.11007963911E+00  0.27933480634E-01  0.58888096479E-01  0.88925002907E+00  0.88000000000E+00 0. -1.
        -11    1    4    4    0    0 -0.29901783308E-01 -0.65514981686E-02 -0.10204373937E-01  0.32271181288E-01  0.51100000000E-03 0. -1.
         11    1    4    4    0    0 -0.69057150539E-01 -0.46854852270E-01 -0.28994716938E-01  0.88347167205E-01  0.51100000000E-03 0.  1.
</event>
<event>
 8    1  0.1088270E+005  0.1043930E+01  0.7957747E-01            NaN
         13   -1    0    0    0    0  0.00000000000E+00  0.00000000000E+00  0.74505805969E-08  0.10566000000E+00  0.10566000000E+00 0. -1.
     999900   -1    0    0    0    0 -0.00000000000E+00 -0.00000000000E+00 -0.74505805969E-08  0.93827000000E+00  0.93827000000E+00 0.  1.
     999902    2    1    2    0    0  0.12870971979E-01  0.16421222860E-01  0.10947212267E-01  0.10203681678E+01  0.10200960925E+01 0.  0.
     999903    2    3    3    0    0 -0.22614460605E-01 -0.29620726418E-01 -0.12145878589E+00  0.12856638189E+00  0.19704735962E-01 0.  0.
         14    1    1    2    0    0 -0.12870971979E-01 -0.16421222860E-01 -0.10947212267E-01  0.23561832194E-01  0.00000000000E+00 0. -1.
     999901    1    3    3    0    0  0.35485432584E-01  0.46041949278E-01  0.13240599816E+00  0.89180178592E+00  0.88000000000E+00 0. -1.
        -11    1    4    4    0    0 -0.24780894691E-01 -0.20221099804E-01 -0.10094476551E+00  0.10589189026E+00  0.51100000000E-03 0. -1.
         11    1    4    4    0    0  0.21664340863E-02 -0.93996266136E-02 -0.20514020386E-01  0.22674491627E-01  0.51100000000E-03 0.  1.
</event>
<event>
 8    1  0.1088270E+005  0.1043930E+01  0.7957747E-01            NaN
         13   -1    0    0    0    0  0.00000000000E+00  0.00000000000E+00  0.74505805969E-08  0.10566000000E+00  0.10566000000E+00 0. -1.
     999900   -1    0    0    0    0 -0.00000000000E+00 -0.00000000000E+00 -0.74505805969E-08  0.93827000000E+00  0.93827000000E+00 0.  1.
     999902    2    1    2    0    0  0.16027290815E-01 -0.11802799009E-01  0.12919509277E-01  0.10202004017E+01  0.10199243922E+01 0.  0.
     999903    2    3    3    0    0  0.28420519799E-01  0.50686513656E-01 -0.11328527414E+00  0.12891697109E+00  0.20228284310E-01 0.  0.
         14    1    1    2    0    0 -0.16027290815E-01  0.11802799009E-01 -0.12919509277E-01  0.23729598296E-01  0.00000000000E+00 0.  1.
     999901    1    3    3    0    0 -0.12393228984E-01 -0.62489312665E-01  0.12620478342E+00  0.89128343061E+00  0.88000000000E+00 0. -1.
        -11    1    4    4    0    0  0.19601998091E-02  0.99120568226E-02 -0.37827826533E-01  0.39157334370E-01  0.51100000000E-03 0. -1.
         11    1    4    4    0    0  0.26460319990E-01  0.40774456833E-01 -0.75457447611E-01  0.89759636724E-01  0.51100000000E-03 0.  1.
</event>
<event>
 8    1  0.1088270E+005  0.1043930E+01  0.7957747E-01            NaN
         13   -1    0    0    0    0  0.00000000000E+00  0.00000000000E+00  0.74505805969E-08  0.10566000000E+00  0.10566000000E+00 0. -1.
     999900   -1    0    0    0    0 -0.00000000000E+00 -0.00000000000E+00 -0.74505805969E-08  0.93827000000E+00  0.93827000000E+00 0. -1.
     999902    2    1    2    0    0 -0.43656940076E-02 -0.21627591683E-01 -0.89938922980E-02  0.10201034999E+01  0.10198252049E+01 0.  0.
     999903    2    3    3    0    0 -0.12933436726E+00 -0.34372325119E-02 -0.29705475304E-03  0.13104574398E+00  0.20825600867E-01 0.  0.
         14    1    1    2    0    0  0.43656940076E-02  0.21627591683E-01  0.89938922980E-02  0.23826500055E-01  0.00000000000E+00 0. -1.
     999901    1    3    3    0    0  0.12496867325E+00 -0.18190359171E-01 -0.86968375450E-02  0.88905775597E+00  0.88000000000E+00 0.  1.
        -11    1    4    4    0    0 -0.30356143728E-01 -0.69419187412E-02 -0.64815288762E-02  0.31811272144E-01  0.51100000000E-03 0.  1.
         11    1    4    4    0    0 -0.98978223532E-01  0.35046862292E-02  0.61844741231E-02  0.99234471834E-01  0.51100000000E-03 0. -1.
</event>
<event>
 8    1  0.1088270E+005  0.1043930E+01  0.7957747E-01            NaN
         13   -1    0    0    0    0  0.00000000000E+00  0.00000000000E+00  0.74505805969E-08  0.10566000000E+00  0.10566000000E+00 0. -1.
     999900   -1    0    0    0    0 -0.00000000000E+00 -0.00000000000E+00 -0.74505805969E-08  0.93827000000E+00  0.93827000000E+00 0. -1.
     999902    2    1    2    0    0  0.13608572522E-01  0.15682354649E-01 -0.65634138221E-02  0.10221536850E+01  0.10219216936E+01 0.  0.
     999903    2    3    3    0    0  0.21336067475E-01  0.92397854267E-01  0.91502813852E-01  0.13335563873E+00  0.20454099606E-01 0.  0.
         14    1    1    2    0    0 -0.13608572522E-01 -0.15682354649E-01  0.65634138221E-02  0.21776314987E-01  0.00000000000E+00 0. -1.
     999901    1    3    3    0    0 -0.77274949538E-02 -0.76715499618E-01 -0.98066227674E-01  0.88879804628E+00  0.88000000000E+00 0. -1.
        -11    1    4    4    0    0  0.10096898824E-01  0.42155599780E-01  0.28017359063E-01  0.51616620274E-01  0.51100000000E-03 0. -1.
         11    1    4    4    0    0  0.11239168651E-01  0.50242254487E-01  0.63485454789E-01  0.81739018459E-01  0.51100000000E-03 0.  1.
</event>
<event>
 8    1  0.1088270E+005  0.1043930E+01  0.7957747E-01            NaN
         13   -1    0    0    0    0  0.00000000000E+00  0.00000000000E+00  0.74505805969E-08  0.10566000000E+00  0.10566000000E+00 0. -1.
     999900   -1    0    0    0    0 -0.00000000000E+00 -0.00000000000E+00 -0.74505805969E-08  0.93827000000E+00  0.93827000000E+00 0.  1.
     999902    2    1    2    0    0 -0.19676057341E-02 -0.14235020801E-01 -0.21300564326E-01  0.10182352276E+01  0.10179109771E+01 0.  0.
     999903    2    3    3    0    0  0.84075472257E-02 -0.10029862508E+00  0.78175842897E-01  0.12839808327E+00  0.15623838550E-01 0.  0.
         14    1    1    2    0    0  0.19676057341E-02  0.14235020801E-01  0.21300564326E-01  0.25694772428E-01  0.00000000000E+00 0. -1.
     999901    1    3    3    0    0 -0.10375152960E-01  0.86063604283E-01 -0.99476407223E-01  0.88983714430E+00  0.88000000000E+00 0.  1.
        -11    1    4    4    0    0 -0.25507902330E-02 -0.47898222416E-01  0.42272562227E-01  0.63937288648E-01  0.51100000000E-03 0. -1.
         11    1    4    4    0    0  0.10958337459E-01 -0.52400402668E-01  0.35903280671E-01  0.64460794624E-01  0.51100000000E-03 0.  1.
</event>
<event>
 8    1  0.1088270E+005  0.1043930E+01  0.7957747E-01            NaN
         13   -1    0    0    0    0  0.00000000000E+00  0.00000000000E+00  0.74505805969E-08  0.10566000000E+00  0.10566000000E+00 0.  1.
     999900   -1    0    0    0    0 -0.00000000000E+00 -0.00000000000E+00 -0.74505805969E-08  0.93827000000E+00  0.93827000000E+00 0. -1.
     999902    2    1    2    0    0 -0.21464390804E-01  0.74438715842E-02  0.34404241651E-02  0.10209524498E+01  0.10206938507E+01 0.  0.
     999903    2    3    3    0    0 -0.53710347164E-01 -0.11278345047E+00  0.36408436063E-01  0.13158115470E+00  0.19573399352E-01 0.  0.
         14    1    1    2    0    0  0.21464390804E-01 -0.74438715842E-02 -0.34404241651E-02  0.22977550243E-01  0.00000000000E+00 0. -1.
     999901    1    3    3    0    0  0.32245956360E-01  0.12022732205E+00 -0.32968011898E-01  0.88937129506E+00  0.88000000000E+00 0. -1.
        -11    1    4    4    0    0 -0.19315768599E-01 -0.37647652300E-01  0.29186989109E-02  0.42417267293E-01  0.51100000000E-03 0.  1.
         11    1    4    4    0    0 -0.34394578565E-01 -0.75135798170E-01  0.33489737152E-01  0.89163887403E-01  0.51100000000E-03 0. -1.
</event>
<event>
 8    1  0.1088270E+005  0.1043930E+01  0.7957747E-01            NaN
         13   -1    0    0    0    0  0.00000000000E+00  0.00000000000E+00  0.74505805969E-08  0.10566000000E+00  0.10566000000E+00 0. -1.
     999900   -1    0    0    0    0 -0.00000000000E+00 -0.00000000000E+00 -0.74505805969E-08  0.93827000000E+00  0.93827000000E+00 0.  1.
     999902    2    1    2    0    0 -0.10016229757E-01 -0.19699247700E-01  0.17385009067E-03  0.10218298769E+01  0.10215908583E+01 0.  0.
     999903    2    3    3    0    0 -0.67818024514E-01  0.67636435437E-01  0.87552576212E-01  0.13132237505E+00  0.20152933753E-01 0.  0.
         14    1    1    2    0    0  0.10016229757E-01  0.19699247700E-01 -0.17385009067E-03  0.22100123130E-01  0.00000000000E+00 0. -1.
     999901    1    3    3    0    0  0.57801794756E-01 -0.87335683137E-01 -0.87378726121E-01  0.89050750182E+00  0.88000000000E+00 0.  1.
        -11    1    4    4    0    0 -0.42578772402E-01  0.30655384100E-01  0.54629858879E-01  0.75745541359E-01  0.51100000000E-03 0. -1.
         11    1    4    4    0    0 -0.25239252112E-01  0.36981051337E-01  0.32922717333E-01  0.55576833687E-01  0.51100000000E-03 0.  1.
</event>
<event>
 8    1  0.1088270E+005  0.1043930E+01  0.7957747E-01            NaN
         13   -1    0    0    0    0  0.00000000000E+00  0.00000000000E+00  0.74505805969E-08  0.10566000000E+00  0.10566000000E+00 0.  1.
     999900   -1    0    0    0    0 -0.00000000000E+00 -0.00000000000E+00 -0.74505805969E-08  0.93827000000E+00  0.93827000000E+00 0. -1.
     999902    2    1    2    0    0 -0.22720641781E-01  0.18044114900E-02 -0.37055495145E-02  0.10208385609E+01  0.10205773625E+01 0.  0.
     999903    2    3    3    0    0  0.11779781863E+00  0.45338797180E-01  0.13327408474E-01  0.12846487115E+00  0.19841136546E-01 0.  0.
         14    1    1    2    0    0  0.22720641781E-01 -0.18044114900E-02  0.37055495145E-02  0.23091439127E-01  0.00000000000E+00 0.  1.
     999901    1    3    3    0    0 -0.14051846041E+00 -0.43534385690E-01 -0.17032957988E-01  0.89237368972E+00  0.88000000000E+00 0.  1.
        -11    1    4    4    0    0  0.33192473043E-01  0.88419988401E-02 -0.43924509611E-02  0.34633451411E-01  0.51100000000E-03 0.  1.
         11    1    4    4    0    0  0.84605345585E-01  0.36496798340E-01  0.17719859435E-01  0.93831419738E-01  0.51100000000E-03 0. -1.
</event>
<event>
 7    1  0.1088270E+005  0.1043930E+01  0.7957747E-01            NaN
         13   -1    0    0    0    0  0.00000000000E+00  0.00000000000E+00  0.74505805969E-08  0.10566000000E+00  0.10566000000E+00 0.  1.
     999900   -1    0    0    0    0 -0.00000000000E+00 -0.00000000000E+00 -0.74505805969E-08  0.93827000000E+00  0.93827000000E+00 0. -1.
     999903    2    1    2    0    0 -0.70299492803E-01  0.56287874475E-01  0.49660263207E-01  0.10469454116E+00  0.19607695083E-01 0.  0.
         14    1    1    2    0    0  0.35235346482E-01 -0.27830787758E-01  0.30742695196E-01  0.54416869598E-01  0.00000000000E+00 0.  1.
     999901    1    1    2    0    0  0.35064146321E-01 -0.28457086717E-01 -0.80402958403E-01  0.88481858924E+00  0.88000000000E+00 0. -1.
        -11    1    3    3    0    0 -0.61827631568E-01  0.39565900707E-01  0.38958342482E-01  0.83103129267E-01  0.51100000000E-03 0. -1.
         11    1    3    3    0    0 -0.84718612345E-02  0.16721973768E-01  0.10701920726E-01  0.21591411896E-01  0.51100000000E-03 0.  1.
</event>
<event>
 8    1  0.1088270E+005  0.1043930E+01  0.7957747E-01            NaN
         13   -1    0    0    0    0  0.00000000000E+00  0.00000000000E+00  0.74505805969E-08  0.10566000000E+00  0.10566000000E+00 0.  1.
     999900   -1    0    0    0    0 -0.00000000000E+00 -0.00000000000E+00 -0.74505805969E-08  0.93827000000E+00  0.93827000000E+00 0.  1.
     999902    2    1    2    0    0  0.25579885848E-02 -0.10008760526E-01  0.21288560066E-01  0.10202673420E+01  0.10199929058E+01 0.  0.
     999903    2    3    3    0    0  0.34250938940E-01 -0.43661797686E-01 -0.11499928898E+00  0.12857717845E+00  0.15092215099E-01 0.  0.
         14    1    1    2    0    0 -0.25579885848E-02  0.10008760526E-01 -0.21288560066E-01  0.23662657977E-01  0.00000000000E+00 0. -1.
     999901    1    3    3    0    0 -0.31692950355E-01  0.33653037159E-01  0.13628784905E+00  0.89169016357E+00  0.88000000000E+00 0. -1.
        -11    1    4    4    0    0  0.13258251826E-01 -0.24960027068E-01 -0.70280414417E-01  0.75752108646E-01  0.51100000000E-03 0.  1.
         11    1    4    4    0    0  0.20992687114E-01 -0.18701770618E-01 -0.44718874565E-01  0.52825069805E-01  0.51100000000E-03 0. -1.
</event>
<event>
 8    1  0.1088270E+005  0.1043930E+01  0.7957747E-01            NaN
         13   -1    0    0    0    0  0.00000000000E+00  0.00000000000E+00  0.74505805969E-08  0.10566000000E+00  0.10566000000E+00 0.  1.
     999900   -1    0    0    0    0 -0.00000000000E+00 -0.00000000000E+00 -0.74505805969E-08  0.93827000000E+00  0.93827000000E+00 0.  1.
     999902    2    1    2    0    0 -0.19833698305E-01  0.33598399407E-02 -0.14251003454E-01  0.10192773082E+01  0.10189791341E+01 0.  0.
     999903    2    3    3    0    0 -0.88382176474E-01  0.71130802009E-01 -0.65532810240E-01  0.13252953073E+00  0.19963145688E-01 0.  0.
         14    1    1    2    0    0  0.19833698305E-01 -0.33598399407E-02  0.14251003454E-01  0.24652691786E-01  0.00000000000E+00 0.  1.
     999901    1    3    3    0    0  0.68548478170E-01 -0.67770962068E-01  0.51281806785E-01  0.88674777748E+00  0.88000000000E+00 0. -1.
        -11    1    4    4    0    0 -0.15631212655E-01  0.22614528967E-01 -0.19490300054E-01  0.33702887809E-01  0.51100000000E-03 0.  1.
         11    1    4    4    0    0 -0.72750963820E-01  0.48516273041E-01 -0.46042510186E-01  0.98826642924E-01  0.51100000000E-03 0. -1.
</event>
<event>
 8    1  0.1088270E+005  0.1043930E+01  0.7957747E-01            NaN
         13   -1    0    0    0    0  0.00000000000E+00  0.00000000000E+00  0.74505805969E-08  0.10566000000E+00  0.10566000000E+00 0. -1.
     999900   -1    0    0    0    0 -0.00000000000E+00 -0.00000000000E+00 -0.74505805969E-08  0.93827000000E+00  0.93827000000E+00 0. -1.
     999902    2    1    2    0    0  0.18791767090E-01  0.84853217738E-02 -0.10697103848E-01  0.10207015858E+01  0.10204372435E+01 0.  0.
     999903    2    3    3    0    0 -0.99145659840E-03 -0.32107168421E-01 -0.12670176342E+00  0.13194053396E+00  0.17975383132E-01 0.  0.
         14    1    1    2    0    0 -0.18791767090E-01 -0.84853217738E-02  0.10697103848E-01  0.23228414210E-01  0.00000000000E+00 0.  1.
     999901    1    3    3    0    0  0.19783223689E-01  0.40592490195E-01  0.11600465957E+00  0.88876105183E+00  0.88000000000E+00 0.  1.
        -11    1    4    4    0    0 -0.21993731648E-02 -0.13461530958E-01 -0.86933953015E-01  0.87998996391E-01  0.51100000000E-03 0. -1.
         11    1    4    4    0    0  0.12079165664E-02 -0.18645637464E-01 -0.39767810405E-01  0.43941537573E-01  0.51100000000E-03 0.  1.
</event>
<event>
 8    1  0.1088270E+005  0.1043930E+01  0.7957747E-01            NaN
         13   -1    0    0    0    0  0.00000000000E+00  0.00000000000E+00  0.74505805969E-08  0.10566000000E+00  0.10566000000E+00 0.  1.
     999900   -1    0    0    0    0 -0.00000000000E+00 -0.00000000000E+00 -0.74505805969E-08  0.93827000000E+00  0.93827000000E+00 0.  1.
     999902    2    1    2    0    0 -0.23365295020E-01  0.10932245910E-02 -0.46472015406E-02  0.10200819679E+01  0.10198031637E+01 0.  0.
     999903    2    3    3    0    0  0.46245629632E-01 -0.36467625572E-01  0.11278964566E+00  0.12876389262E+00  0.19750693627E-01 0.  0.
         14    1    1    2    0    0  0.23365295020E-01 -0.10932245910E-02  0.46472015406E-02  0.23848032069E-01  0.00000000000E+00 0. -1.
     999901    1    3    3    0    0 -0.69610924652E-01  0.37560850163E-01 -0.11743684720E+00  0.89131807531E+00  0.88000000000E+00 0.  1.
        -11    1    4    4    0    0  0.21577049118E-01 -0.18852838585E-01  0.34749510880E-01  0.45042071431E-01  0.51100000000E-03 0. -1.
         11    1    4    4    0    0  0.24668580514E-01 -0.17614786987E-01  0.78040134784E-01  0.83721821189E-01  0.51100000000E-03 0.  1.
</event>
<event>
 8    1  0.1088270E+005  0.1043930E+01  0.7957747E-01            NaN
         13   -1    0    0    0    0  0.00000000000E+00  0.00000000000E+00  0.74505805969E-08  0.10566000000E+00  0.10566000000E+00 0.  1.
     999900   -1    0    0    0    0 -0.00000000000E+00 -0.00000000000E+00 -0.74505805969E-08  0.93827000000E+00  0.93827000000E+00 0.  1.
     999902    2    1    2    0    0  0.67770258952E-03  0.22292847275E-01  0.42845096160E-02  0.10212190479E+01  0.10209664816E+01 0.  0.
     999903    2    3    3    0    0 -0.17927539657E-01 -0.12076133158E+00  0.38179094038E-01  0.12882928110E+00  0.15318112249E-01 0.  0.
         14    1    1    2    0    0 -0.67770258952E-03 -0.22292847275E-01 -0.42845096160E-02  0.22710952052E-01  0.00000000000E+00 0. -1.
     999901    1    3    3    0    0  0.18605242246E-01  0.14305417886E+00 -0.33894584422E-01  0.89238976685E+00  0.88000000000E+00 0. -1.
        -11    1    4    4    0    0 -0.88795874125E-02 -0.27052823475E-01  0.13427282130E-01  0.31484208057E-01  0.51100000000E-03 0. -1.
         11    1    4    4    0    0 -0.90479522444E-02 -0.93708508107E-01  0.24751811908E-01  0.97345073040E-01  0.51100000000E-03 0.  1.
</event>
<event>
 8    1  0.1228887E+005  0.1043930E+01  0.7957747E-01            NaN
         13   -1    0    0    0    0  0.00000000000E+00  0.00000000000E+00  0.74505805969E-08  0.10566000000E+00  0.10566000000E+00 0. -1.
     999900   -1    0    0    0    0 -0.00000000000E+00 -0.00000000000E+00 -0.74505805969E-08  0.93827000000E+00  0.93827000000E+00 0.  1.
     999902    2    1    2    0    0 -0.22772450942E-02 -0.57155772610E-02 -0.21379041802E-01  0.10216832677E+01  0.10214410323E+01 0.  0.
     999903    2    3    3    0    0  0.71131903254E-01 -0.20338586736E-01 -0.11075508501E+00  0.13399480178E+00  0.14646237695E-01 0.  0.
         14    1    1    2    0    0  0.22772450942E-02  0.57155772610E-02  0.21379041802E-01  0.22246732277E-01  0.00000000000E+00 0. -1.
     999901    1    3    3    0    0 -0.73409148348E-01  0.14623009475E-01  0.89376043205E-01  0.88768846594E+00  0.88000000000E+00 0. -1.
        -11    1    4    4    0    0  0.16591530793E-01 -0.12850350896E-02 -0.34666805297E-01  0.38457492375E-01  0.51100000000E-03 0. -1.
         11    1    4    4    0    0  0.54540372460E-01 -0.19053551646E-01 -0.76088279709E-01  0.95537309406E-01  0.51100000000E-03 0.  1.
</event>
<event>
 8    1  0.1088270E+005  0.1043930E+01  0.7957747E-01            NaN
         13   -1    0    0    0    0  0.00000000000E+00  0.00000000000E+00  0.74505805969E-08  0.10566000000E+00  0.10566000000E+00 0. -1.
     999900   -1    0    0    0    0 -0.00000000000E+00 -0.00000000000E+00 -0.74505805969E-08  0.93827000000E+00  0.93827000000E+00 0. -1.
     999902    2    1    2    0    0  0.76305016328E-02  0.16690571360E-01  0.12446921329E-01  0.10217551138E+01  0.10215144576E+01 0.  0.
     999903    2    3    3    0    0 -0.10212228627E+00  0.65354579920E-01 -0.45279813334E-01  0.13172913885E+00  0.24538175520E-01 0.  0.
         14    1    1    2    0    0 -0.76305016328E-02 -0.16690571360E-01 -0.12446921329E-01  0.22174886202E-01  0.00000000000E+00 0.  1.
     999901    1    3    3    0    0  0.10975278790E+00 -0.48664008560E-01  0.57726734662E-01  0.89002597494E+00  0.88000000000E+00 0.  1.
        -11    1    4    4    0    0 -0.79879046635E-01  0.54263629560E-01 -0.25279775508E-01  0.99822501246E-01  0.51100000000E-03 0.  1.
         11    1    4    4    0    0 -0.22243239635E-01  0.11090950361E-01 -0.20000037825E-01  0.31906637607E-01  0.51100000000E-03 0. -1.
</event>
<event>
 8    1  0.1088270E+005  0.1043930E+01  0.7957747E-01            NaN
         13   -1    0    0    0    0  0.00000000000E+00  0.00000000000E+00  0.74505805969E-08  0.10566000000E+00  0.10566000000E+00 0. -1.
     999900   -1    0    0    0    0 -0.00000000000E+00 -0.00000000000E+00 -0.74505805969E-08  0.93827000000E+00  0.93827000000E+00 0. -1.
     999902    2    1    2    0    0  0.17101382629E-01  0.14494851857E-01  0.56439259105E-02  0.10208126490E+01  0.10205508573E+01 0.  0.
     999903    2    3    3    0    0  0.11029689213E+00 -0.65315724937E-01 -0.23541144967E-01  0.13182057955E+00  0.19771983932E-01 0.  0.
         14    1    1    2    0    0 -0.17101382629E-01 -0.14494851857E-01 -0.56439259105E-02  0.23117351013E-01  0.00000000000E+00 0.  1.
     999901    1    3    3    0    0 -0.93195509502E-01  0.79810576794E-01  0.29185070877E-01  0.88899206944E+00  0.88000000000E+00 0.  1.
        -11    1    4    4    0    0  0.17141552796E-01 -0.19231397661E-01 -0.43807824643E-02  0.26136791392E-01  0.51100000000E-03 0.  1.
         11    1    4    4    0    0  0.93155339336E-01 -0.46084327276E-01 -0.19160362502E-01  0.10568378816E+00  0.51100000000E-03 0. -1.
</event>
<event>
 8    1  0.1088270E+005  0.1043930E+01  0.7957747E-01            NaN
         13   -1    0    0    0    0  0.00000000000E+00  0.00000000000E+00  0.74505805969E-08  0.10566000000E+00  0.10566000000E+00 0. -1.
     999900   -1    0    0    0    0 -0.00000000000E+00 -0.00000000000E+00 -0.74505805969E-08  0.93827000000E+00  0.93827000000E+00 0. -1.
     999902    2    1    2    0    0 -0.17383155730E-01  0.12830148713E-01  0.87917952385E-02  0.10206044243E+01  0.10203378403E+01 0.  0.
     999903    2    3    3    0    0 -0.36258262386E-01 -0.38929917290E-01  0.11914347584E+00  0.13200278828E+00  0.19984199440E-01 0.  0.
         14    1    1    2    0    0  0.17383155730E-01 -0.12830148713E-01 -0.87917952385E-02  0.23325575719E-01  0.00000000000E+00 0. -1.
     999901    1    3    3    0    0  0.18875106656E-01  0.51760066003E-01 -0.11035168060E+00  0.88860163600E+00  0.88000000000E+00 0. -1.
        -11    1    4    4    0    0 -0.13991427815E-01 -0.28930665026E-02  0.25820364185E-01  0.29514101947E-01  0.51100000000E-03 0. -1.
         11    1    4    4    0    0 -0.22266834570E-01 -0.36036850788E-01  0.93323111658E-01  0.10248868634E+00  0.51100000000E-03 0.  1.
</event>
<event>
 8    1  0.1088270E+005  0.1043930E+01  0.7957747E-01            NaN
         13   -1    0    0    0    0  0.00000000000E+00  0.00000000000E+00  0.74505805969E-08  0.10566000000E+00  0.10566000000E+00 0.  1.
     999900   -1    0    0    0    0 -0.00000000000E+00 -0.00000000000E+00 -0.74505805969E-08  0.93827000000E+00  0.93827000000E+00 0.  1.
     999902    2    1    2    0    0  0.18601575020E-01 -0.16035708303E-01 -0.12494019886E-02  0.10193388728E+01  0.10190422042E+01 0.  0.
     999903    2    3    3    0    0 -0.50693040428E-01  0.11453720153E+00  0.90526543906E-03  0.12700728018E+00  0.21011302463E-01 0.  0.
         14    1    1    2    0    0 -0.18601575020E-01  0.16035708303E-01  0.12494019886E-02  0.24591127248E-01  0.00000000000E+00 0.  1.
     999901    1    3    3    0    0  0.69294615448E-01 -0.13057290983E+00 -0.21546674277E-02  0.89233159257E+00  0.88000000000E+00 0.  1.
        -11    1    4    4    0    0 -0.24434644076E-01  0.79748952613E-01  0.11472265674E-02  0.83417771031E-01  0.51100000000E-03 0.  1.
         11    1    4    4    0    0 -0.26258396352E-01  0.34788248916E-01 -0.24196112836E-03  0.43589509149E-01  0.51100000000E-03 0. -1.
</event>
<event>
 8    1  0.1088270E+005  0.1043930E+01  0.7957747E-01            NaN
         13   -1    0    0    0    0  0.00000000000E+00  0.00000000000E+00  0.74505805969E-08  0.10566000000E+00  0.10566000000E+00 0.  1.
     999900   -1    0    0    0    0 -0.00000000000E+00 -0.00000000000E+00 -0.74505805969E-08  0.93827000000E+00  0.93827000000E+00 0. -1.
     999902    2    1    2    0    0  0.53003778540E-03 -0.15990119031E-01  0.16730784842E-01  0.10207808314E+01  0.10205183103E+01 0.  0.
     999903    2    3    3    0    0  0.12395013418E+00  0.32036937548E-01  0.18285055030E-01  0.13086986160E+00  0.20064304305E-01 0.  0.
         14    1    1    2    0    0 -0.53003778540E-03  0.15990119031E-01 -0.16730784842E-01  0.23149168627E-01  0.00000000000E+00 0.  1.
     999901    1    3    3    0    0 -0.12342009640E+00 -0.48027056579E-01 -0.15542701882E-02  0.88991096977E+00  0.88000000000E+00 0.  1.
        -11    1    4    4    0    0  0.12730014068E-01  0.54856771481E-02  0.81183761531E-02  0.16072182935E-01  0.51100000000E-03 0. -1.
         11    1    4    4    0    0  0.11122012012E+00  0.26551260400E-01  0.10166678877E-01  0.11479767867E+00  0.51100000000E-03 0.  1.
</event>
<event>
 8    1  0.1088270E+005  0.1043930E+01  0.7957747E-01            NaN
         13   -1    0    0    0    0  0.00000000000E+00  0.00000000000E+00  0.74505805969E-08  0.10566000000E+00  0.10566000000E+00 0. -1.
     999900   -1    0    0    0    0 -0.00000000000E+00 -0.00000000000E+00 -0.74505805969E-08  0.93827000000E+00  0.93827000000E+00 0.  1.
     999902    2    1    2    0    0 -0.11269523532E-01  0.16459054516E-02 -0.20656010088E-01  0.10203422507E+01  0.10200695695E+01 0.  0.
     999903    2    3    3    0    0  0.73536480181E-01 -0.10491979487E+00  0.11364606451E-01  0.12929027316E+00  0.13078347809E-01 0.  0.
         14    1    1    2    0    0  0.11269523532E-01 -0.16459054516E-02  0.20656010088E-01  0.23587749324E-01  0.00000000000E+00 0. -1.
     999901    1    3    3    0    0 -0.84806003713E-01  0.10656570032E+00 -0.32020616539E-01  0.89105197752E+00  0.88000000000E+00 0. -1.
        -11    1    4    4    0    0  0.27315482430E-01 -0.48006490656E-01  0.10278982569E-02  0.55245600923E-01  0.51100000000E-03 0.  1.
         11    1    4    4    0    0  0.46220997751E-01 -0.56913304214E-01  0.10336708194E-01  0.74044672238E-01  0.51100000000E-03 0. -1.
</event>
<event>
 8    1  0.1088270E+005  0.1043930E+01  0.7957747E-01            NaN
         13   -1    0    0    0    0  0.00000000000E+00  0.00000000000E+00  0.74505805969E-08  0.10566000000E+00  0.10566000000E+00 0.  1.
     999900   -1    0    0    0    0 -0.00000000000E+00 -0.00000000000E+00 -0.74505805969E-08  0.93827000000E+00  0.93827000000E+00 0. -1.
     999902    2    1    2    0    0  0.13481642932E-01  0.17195822384E-01 -0.58635012798E-02  0.10213063033E+01  0.10210556956E+01 0.  0.
     999903    2    3    3    0    0 -0.20620826120E-01  0.95561977286E-01  0.86858934029E-01  0.13231716806E+00  0.20150646873E-01 0.  0.
         14    1    1    2    0    0 -0.13481642932E-01 -0.17195822384E-01  0.58635012798E-02  0.22623696667E-01  0.00000000000E+00 0. -1.
     999901    1    3    3    0    0  0.34102469052E-01 -0.78366154902E-01 -0.92722435308E-01  0.88898913528E+00  0.88000000000E+00 0. -1.
        -11    1    4    4    0    0 -0.21102347079E-01  0.74335528013E-01  0.76313152069E-01  0.10860496341E+00  0.51100000000E-03 0. -1.
         11    1    4    4    0    0  0.48152095833E-03  0.21226449273E-01  0.10545781960E-01  0.23712204649E-01  0.51100000000E-03 0.  1.
</event>
<event>
 8    1  0.1088270E+005  0.1043930E+01  0.7957747E-01            NaN
         13   -1    0    0    0    0  0.00000000000E+00  0.00000000000E+00  0.74505805969E-08  0.10566000000E+00  0.10566000000E+00 0. -1.
     999900   -1    0    0    0    0 -0.00000000000E+00 -0.00000000000E+00 -0.74505805969E-08  0.93827000000E+00  0.93827000000E+00 0. -1.
     999902    2    1    2    0    0  0.25262737947E-02 -0.20627568691E-01 -0.13107982662E-01  0.10193597363E+01  0.10190635771E+01 0.  0.
     999903    2    3    3    0    0  0.33020156476E-01 -0.64838492486E-01  0.10561994844E+00  0.12976387058E+00  0.19716180122E-01 0.  0.
         14    1    1    2    0    0 -0.25262737947E-02  0.20627568691E-01  0.13107982662E-01  0.24570263712E-01  0.00000000000E+00 0. -1.
     999901    1    3    3    0    0 -0.30493882682E-01  0.44210923795E-01 -0.11872793110E+00  0.88959586571E+00  0.88000000000E+00 0. -1.
        -11    1    4    4    0    0  0.24249350632E-01 -0.54486833382E-01  0.96378390367E-01  0.11333976032E+00  0.51100000000E-03 0.  1.
         11    1    4    4    0    0  0.87708058442E-02 -0.10351659103E-01  0.92415580687E-02  0.16424110262E-01  0.51100000000E-03 0. -1.
</event>
<event>
 8    1  0.1088270E+005  0.1043930E+01  0.7957747E-01            NaN
         13   -1    0    0    0    0  0.00000000000E+00  0.00000000000E+00  0.74505805969E-08  0.10566000000E+00  0.10566000000E+00 0. -1.
     999900   -1    0    0    0    0 -0.00000000000E+00 -0.00000000000E+00 -0.74505805969E-08  0.93827000000E+00  0.93827000000E+00 0.  1.
     999902    2    1    2    0    0 -0.97929783004E-02 -0.15468637504E-01 -0.10919689979E-01  0.10226128520E+01  0.10223906417E+01 0.  0.
     999903    2    3    3    0    0 -0.90910117329E-01  0.69661273009E-01 -0.64879663750E-01  0.13315303239E+00  0.20075280221E-01 0.  0.
         14    1    1    2    0    0  0.97929783004E-02  0.15468637504E-01  0.10919689979E-01  0.21317148014E-01  0.00000000000E+00 0. -1.
     999901    1    3    3    0    0  0.81117139029E-01 -0.85129910513E-01  0.53959973771E-01  0.88945981960E+00  0.88000000000E+00 0.  1.
        -11    1    4    4    0    0 -0.70937166219E-01  0.58763450081E-01 -0.43283582161E-01  0.10177894783E+00  0.51100000000E-03 0. -1.
         11    1    4    4    0    0 -0.19972951110E-01  0.10897822929E-01 -0.21596081589E-01  0.31374084555E-01  0.51100000000E-03 0.  1.
</event>
<event>
 8    1  0.1088270E+005  0.1043930E+01  0.7957747E-01            NaN
         13   -1    0    0    0    0  0.00000000000E+00  0.00000000000E+00  0.74505805969E-08  0.10566000000E+00  0.10566000000E+00 0.  1.
     999900   -1    0    0    0    0 -0.00000000000E+00 -0.00000000000E+00 -0.74505805969E-08  0.93827000000E+00  0.93827000000E+00 0. -1.
     999902    2    1    2    0    0  0.19028350923E-01  0.13922059467E-01 -0.59768523549E-02  0.10196066646E+01  0.10193164994E+01 0.  0.
     999903    2    3    3    0    0  0.87323400753E-01  0.82572623570E-01  0.51986672388E-01  0.13239931347E+00  0.19579316095E-01 0.  0.
         14    1    1    2    0    0 -0.19028350923E-01 -0.13922059467E-01  0.59768523549E-02  0.24323335354E-01  0.00000000000E+00 0.  1.
     999901    1    3    3    0    0 -0.68295049830E-01 -0.68650564103E-01 -0.57963524743E-01  0.88720735118E+00  0.88000000000E+00 0. -1.
        -11    1    4    4    0    0  0.68448538666E-01  0.57624970476E-01  0.30869073361E-01  0.94651996699E-01  0.51100000000E-03 0. -1.
         11    1    4    4    0    0  0.18874862087E-01  0.24947653094E-01  0.21117599026E-01  0.37747316770E-01  0.51100000000E-03 0.  1.
</event>
<event>
 8    1  0.1088270E+005  0.1043930E+01  0.7957747E-01            NaN
         13   -1    0    0    0    0  0.00000000000E+00  0.00000000000E+00  0.74505805969E-08  0.10566000000E+00  0.10566000000E+00 0. -1.
     999900   -1    0    0    0    0 -0.00000000000E+00 -0.00000000000E+00 -0.74505805969E-08  0.93827000000E+00  0.93827000000E+00 0. -1.
     999902    2    1    2    0    0  0.23871295269E-02 -0.22441749492E-01 -0.63414188899E-02  0.10204876430E+01  0.10202183518E+01 0.  0.
     999903    2    3    3    0    0  0.11508491227E+00  0.56416843725E-01  0.26194180047E-02  0.12975773751E+00  0.20070172020E-01 0.  0.
         14    1    1    2    0    0 -0.23871295269E-02  0.22441749492E-01  0.63414188899E-02  0.23442356988E-01  0.00000000000E+00 0. -1.
     999901    1    3    3    0    0 -0.11269778274E+00 -0.78858593216E-01 -0.89608368946E-02  0.89072990550E+00  0.88000000000E+00 0. -1.
        -11    1    4    4    0    0  0.46948939432E-01  0.31983964517E-01 -0.46888405483E-02  0.57003712570E-01  0.51100000000E-03 0. -1.
         11    1    4    4    0    0  0.68135972837E-01  0.24432879208E-01  0.73082585530E-02  0.72754024939E-01  0.51100000000E-03 0.  1.
</event>
<event>
 8    1  0.1088270E+005  0.1043930E+01  0.7957747E-01            NaN
         13   -1    0    0    0    0  0.00000000000E+00  0.00000000000E+00  0.74505805969E-08  0.10566000000E+00  0.10566000000E+00 0.  1.
     999900   -1    0    0    0    0 -0.00000000000E+00 -0.00000000000E+00 -0.74505805969E-08  0.93827000000E+00  0.93827000000E+00 0. -1.
     999902    2    1    2    0    0  0.65585015318E-02  0.16419235143E-01  0.15925673099E-01  0.10201343641E+01  0.10198567980E+01 0.  0.
     999903    2    3    3    0    0 -0.86876159685E-01 -0.29277809564E-01  0.91267694287E-01  0.13081177021E+00  0.19423438194E-01 0.  0.
         14    1    1    2    0    0 -0.65585015318E-02 -0.16419235143E-01 -0.15925673099E-01  0.23795635916E-01  0.00000000000E+00 0.  1.
     999901    1    3    3    0    0  0.93434661217E-01  0.45697044707E-01 -0.75342021189E-01  0.88932259387E+00  0.88000000000E+00 0.  1.
        -11    1    4    4    0    0 -0.21298798392E-01  0.93319064644E-03  0.17475598381E-01  0.27571131959E-01  0.51100000000E-03 0. -1.
         11    1    4    4    0    0 -0.65577361293E-01 -0.30211000210E-01  0.73792095906E-01  0.10324063825E+00  0.51100000000E-03 0.  1.
</event>
<event>
 8    1  0.1088270E+005  0.1043930E+01  0.7957747E-01            NaN
         13   -1    0    0    0    0  0.00000000000E+00  0.00000000000E+00  0.74505805969E-08  0.10566000000E+00  0.10566000000E+00 0. -1.
     999900   -1    0    0    0    0 -0.00000000000E+00 -0.00000000000E+00 -0.74505805969E-08  0.93827000000E+00  0.93827000000E+00 0.  1.
     999902    2    1    2    0    0  0.41452658822E-02  0.19832876905E-01 -0.75836494049E-02  0.10222958147E+01  0.10220668739E+01 0.  0.
     999903    2    3    3    0    0 -0.11956930030E+00 -0.18809626685E-01  0.46335890097E-01  0.13116964310E+00  0.20195071911E-01 0.  0.
         14    1    1    2    0    0 -0.41452658822E-02 -0.19832876905E-01  0.75836494049E-02  0.21634185306E-01  0.00000000000E+00 0. -1.
     999901    1    3    3    0    0  0.12371456618E+00  0.38642503589E-01 -0.53919539502E-01  0.89112617160E+00  0.88000000000E+00 0. -1.
        -11    1    4    4    0    0 -0.10276789100E+00 -0.92689866258E-02  0.41697564764E-01  0.11129286393E+00  0.51100000000E-03 0.  1.
         11    1    4    4    0    0 -0.16801409292E-01 -0.95406400591E-02  0.46383253328E-02  0.19876779161E-01  0.51100000000E-03 0. -1.
</event>
<event>
 8    1  0.1088270E+005  0.1043930E+01  0.7957747E-01            NaN
         13   -1    0    0    0    0  0.00000000000E+00  0.00000000000E+00  0.74505805969E-08  0.10566000000E+00  0.10566000000E+00 0.  1.
     999900   -1    0    0    0    0 -0.00000000000E+00 -0.00000000000E+00 -0.74505805969E-08  0.93827000000E+00  0.93827000000E+00 0.  1.
     999902    2    1    2    0    0 -0.19000107541E-01  0.15251997995E-01  0.90208848958E-02  0.10179491630E+01  0.10176175581E+01 0.  0.
     999903    2    3    3    0    0  0.11053744096E+00 -0.27324011252E-01 -0.49049071807E-01  0.12555641707E+00  0.19836203672E-01 0.  0.
         14    1    1    2    0    0  0.19000107541E-01 -0.15251997995E-01 -0.90208848958E-02  0.25980837048E-01  0.00000000000E+00 0. -1.
     999901    1    3    3    0    0 -0.12953754850E+00  0.42576009247E-01  0.58069956703E-01  0.89239274588E+00  0.88000000000E+00 0.  1.
        -11    1    4    4    0    0  0.27136032244E-01 -0.41599156360E-03 -0.18057543282E-01  0.32601737458E-01  0.51100000000E-03 0.  1.
         11    1    4    4    0    0  0.83401408719E-01 -0.26908019689E-01 -0.30991528525E-01  0.92954679609E-01  0.51100000000E-03 0. -1.
</event>
<event>
 8    1  0.1088270E+005  0.1043930E+01  0.7957747E-01            NaN
         13   -1    0    0    0    0  0.00000000000E+00  0.00000000000E+00  0.74505805969E-08  0.10566000000E+00  0.10566000000E+00 0.  1.
     999900   -1    0    0    0    0 -0.00000000000E+00 -0.00000000000E+00 -0.74505805969E-08  0.93827000000E+00  0.93827000000E+00 0.  1.
     999902    2    1    2    0    0 -0.40962725268E-02 -0.23611838429E-01 -0.58551972842E-02  0.10192605513E+01  0.10189619668E+01 0.  0.
     999903    2    3    3    0    0  0.99761638936E-01 -0.13964510394E-01  0.78294960720E-01  0.12911405450E+00  0.19822866663E-01 0.  0.
         14    1    1    2    0    0  0.40962725268E-02  0.23611838429E-01  0.58551972842E-02  0.24669448674E-01  0.00000000000E+00 0.  1.
     999901    1    3    3    0    0 -0.10385791146E+00 -0.96473280351E-02 -0.84150158004E-01  0.89014649682E+00  0.88000000000E+00 0.  1.
        -11    1    4    4    0    0  0.53180319505E-01 -0.12399405998E-01  0.31388094051E-01  0.62987024227E-01  0.51100000000E-03 0.  1.
         11    1    4    4    0    0  0.46581319431E-01 -0.15651043961E-02  0.46906866669E-01  0.66127030278E-01  0.51100000000E-03 0. -1.
</event>
<event>
 8    1  0.1088270E+005  0.1043930E+01  0.7957747E-01            NaN
         13   -1    0    0    0    0  0.00000000000E+00  0.00000000000E+00  0.74505805969E-08  0.10566000000E+00  0.10566000000E+00 0.  1.
     999900   -1    0    0    0    0 -0.00000000000E+00 -0.00000000000E+00 -0.74505805969E-08  0.93827000000E+00  0.93827000000E+00 0.  1.
     999902    2    1    2    0    0  0.13851295179E-01  0.18608606131E-01  0.29133398277E-02  0.10205499626E+01  0.10202821178E+01 0.  0.
     999903    2    3    3    0    0  0.11312149950E+00  0.40790166497E-01 -0.52964691286E-01  0.13293014001E+00  0.20120941029E-01 0.  0.
         14    1    1    2    0    0 -0.13851295179E-01 -0.18608606131E-01 -0.29133398277E-02  0.23380037409E-01  0.00000000000E+00 0.  1.
     999901    1    3    3    0    0 -0.99270204317E-01 -0.22181560366E-01  0.55878031113E-01  0.88761982259E+00  0.88000000000E+00 0. -1.
        -11    1    4    4    0    0  0.95020349143E-01  0.29115419988E-01 -0.49773127262E-01  0.11114944782E+00  0.51100000000E-03 0. -1.
         11    1    4    4    0    0  0.18101150353E-01  0.11674746509E-01 -0.31915640236E-02  0.21780692185E-01  0.51100000000E-03 0.  1.
</event>
<event>
 8    1  0.1088270E+005  0.1043930E+01  0.7957747E-01            NaN
         13   -1    0    0    0    0  0.00000000000E+00  0.00000000000E+00  0.74505805969E-08  0.10566000000E+00  0.10566000000E+00 0.  1.
     999900   -1    0    0    0    0 -0.00000000000E+00 -0.00000000000E+00 -0.74505805969E-08  0.93827000000E+00  0.93827000000E+00 0.  1.
     999902    2    1    2    0    0  0.21343837655E-01 -0.59070135653E-02  0.81128199180E-02  0.10203446219E+01  0.10200719961E+01 0.  0.
     999903    2    3    3    0    0  0.12067197253E+00 -0.37151256276E-01 -0.36859966483E-01  0.13306516611E+00  0.20143001358E-01 0.  0.
         14    1    1    2    0    0 -0.21343837655E-01  0.59070135653E-02 -0.81128199180E-02  0.23585378142E-01  0.00000000000E+00 0. -1.
     999901    1    3    3    0    0 -0.99328134879E-01  0.31244242711E-01  0.44972786401E-01  0.88727945575E+00  0.88000000000E+00 0. -1.
        -11    1    4    4    0    0  0.76492057008E-01 -0.14927325374E-01 -0.28041322634E-01  0.82827753345E-01  0.51100000000E-03 0.  1.
         11    1    4    4    0    0  0.44179915526E-01 -0.22223930903E-01 -0.88186438493E-02  0.50237412762E-01  0.51100000000E-03 0. -1.
</event>
<event>
 8    1  0.1088270E+005  0.1043930E+01  0.7957747E-01            NaN
         13   -1    0    0    0    0  0.00000000000E+00  0.00000000000E+00  0.74505805969E-08  0.10566000000E+00  0.10566000000E+00 0.  1.
     999900   -1    0    0    0    0 -0.00000000000E+00 -0.00000000000E+00 -0.74505805969E-08  0.93827000000E+00  0.93827000000E+00 0.  1.
     999902    2    1    2    0    0 -0.16953935514E-01  0.13734846429E-01 -0.55182624407E-02  0.10214237085E+01  0.10211757239E+01 0.  0.
     999903    2    3    3    0    0 -0.10394987298E+00 -0.51224001183E-01 -0.61862589592E-01  0.13296288878E+00  0.20559071256E-01 0.  0.
         14    1    1    2    0    0  0.16953935514E-01 -0.13734846429E-01  0.55182624407E-02  0.22506291480E-01  0.00000000000E+00 0.  1.
     999901    1    3    3    0    0  0.86995937465E-01  0.64958847611E-01  0.56344327151E-01  0.88846081974E+00  0.88000000000E+00 0.  1.
        -11    1    4    4    0    0 -0.62435992851E-01 -0.35423666749E-01 -0.27788687110E-01  0.76977669629E-01  0.51100000000E-03 0. -1.
         11    1    4    4    0    0 -0.41513880129E-01 -0.15800334434E-01 -0.34073902481E-01  0.55985219146E-01  0.51100000000E-03 0.  1.
</event>
<event>
 8    1  0.1088270E+005  0.1043930E+01  0.7957747E-01            NaN
         13   -1    0    0    0    0  0.00000000000E+00  0.00000000000E+00  0.74505805969E-08  0.10566000000E+00  0.10566000000E+00 0. -1.
     999900   -1    0    0    0    0 -0.00000000000E+00 -0.00000000000E+00 -0.74505805969E-08  0.93827000000E+00  0.93827000000E+00 0. -1.
     999902    2    1    2    0    0 -0.12649389147E-01 -0.13902292052E-01 -0.15268001106E-01  0.10197144548E+01  0.10194268864E+01 0.  0.
     999903    2    3    3    0    0  0.70030169520E-01  0.93506865423E-01  0.46029523175E-01  0.12722914794E+00  0.20512936348E-01 0.  0.
         14    1    1    2    0    0  0.12649389147E-01  0.13902292052E-01  0.15268001106E-01  0.24215545170E-01  0.00000000000E+00 0. -1.
     999901    1    3    3    0    0 -0.82679558668E-01 -0.10740915747E+00 -0.61297524281E-01  0.89248530689E+00  0.88000000000E+00 0.  1.
        -11    1    4    4    0    0  0.27748071960E-01  0.38552864960E-01  0.80844726539E-02  0.48186084228E-01  0.51100000000E-03 0. -1.
         11    1    4    4    0    0  0.42282097560E-01  0.54954000463E-01  0.37945050522E-01  0.79043063712E-01  0.51100000000E-03 0.  1.
</event>
<event>
 8    1  0.1088270E+005  0.1043930E+01  0.7957747E-01            NaN
         13   -1    0    0    0    0  0.00000000000E+00  0.00000000000E+00  0.74505805969E-08  0.10566000000E+00  0.10566000000E+00 0.  1.
     999900   -1    0    0    0    0 -0.00000000000E+00 -0.00000000000E+00 -0.74505805969E-08  0.93827000000E+00  0.93827000000E+00 0.  1.
     999902    2    1    2    0    0  0.12964470103E-01 -0.51997201082E-02  0.19967284166E-01  0.10195618443E+01  0.10192705958E+01 0.  0.
     999903    2    3    3    0    0  0.96205733039E-01  0.79912276990E-01  0.34967206672E-01  0.13141874910E+00  0.20165985978E-01 0.  0.
         14    1    1    2    0    0 -0.12964470103E-01  0.51997201082E-02 -0.19967284166E-01  0.24368155679E-01  0.00000000000E+00 0. -1.
     999901    1    3    3    0    0 -0.83241262936E-01 -0.85111997099E-01 -0.14999922507E-01  0.88814309522E+00  0.88000000000E+00 0. -1.
        -11    1    4    4    0    0  0.31539091613E-01  0.37137929315E-01  0.83107783058E-02  0.49429447202E-01  0.51100000000E-03 0. -1.
         11    1    4    4    0    0  0.64666641425E-01  0.42774347675E-01  0.26656428367E-01  0.81989301903E-01  0.51100000000E-03 0.  1.
</event>
<event>
 8    1  0.1088270E+005  0.1043930E+01  0.7957747E-01            NaN
         13   -1    0    0    0    0  0.00000000000E+00  0.00000000000E+00  0.74505805969E-08  0.10566000000E+00  0.10566000000E+00 0. -1.
     999900   -1    0    0    0    0 -0.00000000000E+00 -0.00000000000E+00 -0.74505805969E-08  0.93827000000E+00  0.93827000000E+00 0. -1.
     999902    2    1    2    0    0 -0.20435228470E-01  0.15777135869E-01  0.31006050933E-02  0.10179274938E+01  0.10175953283E+01 0.  0.
     999903    2    3    3    0    0 -0.10311693831E+00  0.41885399789E-01 -0.65842864941E-01  0.13098267662E+00  0.20825201786E-01 0.  0.
         14    1    1    2    0    0  0.20435228470E-01 -0.15777135869E-01 -0.31006050933E-02  0.26002506240E-01  0.00000000000E+00 0. -1.
     999901    1    3    3    0    0  0.82681709840E-01 -0.26108263921E-01  0.68943470035E-01  0.88694481714E+00  0.88000000000E+00 0.  1.
        -11    1    4    4    0    0 -0.19782195797E-01  0.14647335406E-01 -0.21719954178E-01  0.32831345321E-01  0.51100000000E-03 0. -1.
         11    1    4    4    0    0 -0.83334742513E-01  0.27238064383E-01 -0.44122910764E-01  0.98151331301E-01  0.51100000000E-03 0.  1.
</event>
<event>
 8    1  0.1088270E+005  0.1043930E+01  0.7957747E-01            NaN
         13   -1    0    0    0    0  0.00000000000E+00  0.00000000000E+00  0.74505805969E-08  0.10566000000E+00  0.10566000000E+00 0.  1.
     999900   -1    0    0    0    0 -0.00000000000E+00 -0.00000000000E+00 -0.74505805969E-08  0.93827000000E+00  0.93827000000E+00 0. -1.
     999902    2    1    2    0    0  0.96205866114E-02  0.15230683745E-01  0.17196606199E-01  0.10190251274E+01  0.10187207456E+01 0.  0.
     999903    2    3    3    0    0 -0.13134531952E-01 -0.99245546742E-01  0.79119882577E-01  0.12916160140E+00  0.20014219408E-01 0.  0.
         14    1    1    2    0    0 -0.96205866114E-02 -0.15230683745E-01 -0.17196606199E-01  0.24904872592E-01  0.00000000000E+00 0. -1.
     999901    1    3    3    0    0  0.22755118563E-01  0.11447623049E+00 -0.61923276379E-01  0.88986352601E+00  0.88000000000E+00 0. -1.
        -11    1    4    4    0    0 -0.13450487108E-02 -0.43102890248E-01  0.45389299646E-01  0.62610845284E-01  0.51100000000E-03 0.  1.
         11    1    4    4    0    0 -0.11789483241E-01 -0.56142656494E-01  0.33730582931E-01  0.66550756113E-01  0.51100000000E-03 0. -1.
</event>
<event>
 8    1  0.1088270E+005  0.1043930E+01  0.7957747E-01            NaN
         13   -1    0    0    0    0  0.00000000000E+00  0.00000000000E+00  0.74505805969E-08  0.10566000000E+00  0.10566000000E+00 0. -1.
     999900   -1    0    0    0    0 -0.00000000000E+00 -0.00000000000E+00 -0.74505805969E-08  0.93827000000E+00  0.93827000000E+00 0. -1.
     999902    2    1    2    0    0 -0.13434602779E-01  0.17421517086E-01 -0.76899665395E-02  0.10206247775E+01  0.10203586639E+01 0.  0.
     999903    2    3    3    0    0 -0.97549057484E-03 -0.91301973437E-01  0.88335722628E-01  0.12866235687E+00  0.20342080735E-01 0.  0.
         14    1    1    2    0    0  0.13434602779E-01 -0.17421517086E-01  0.76899665395E-02  0.23305222479E-01  0.00000000000E+00 0. -1.
     999901    1    3    3    0    0 -0.12459112204E-01  0.10872349052E+00 -0.96025689167E-01  0.89196242065E+00  0.88000000000E+00 0. -1.
        -11    1    4    4    0    0  0.83582343173E-02 -0.66621468146E-01  0.62621604190E-01  0.91815067016E-01  0.51100000000E-03 0.  1.
         11    1    4    4    0    0 -0.93337248921E-02 -0.24680505292E-01  0.25714118437E-01  0.36847289857E-01  0.51100000000E-03 0. -1.
</event>
<event>
 8    1  0.1088270E+005  0.1043930E+01  0.7957747E-01            NaN
         13   -1    0    0    0    0  0.00000000000E+00  0.00000000000E+00  0.74505805969E-08  0.10566000000E+00  0.10566000000E+00 0.  1.
     999900   -1    0    0    0    0 -0.00000000000E+00 -0.00000000000E+00 -0.74505805969E-08  0.93827000000E+00  0.93827000000E+00 0. -1.
     999902    2    1    2    0    0  0.17803880253E-01  0.66146694366E-02 -0.11875578325E-01  0.10215299695E+01  0.10212843469E+01 0.  0.
     999903    2    3    3    0    0  0.90475468830E-01  0.82974377551E-01 -0.51575394865E-01  0.13435014547E+00  0.17871274238E-01 0.  0.
         14    1    1    2    0    0 -0.17803880253E-01 -0.66146694366E-02  0.11875578325E-01  0.22400030454E-01  0.00000000000E+00 0.  1.
     999901    1    3    3    0    0 -0.72671588578E-01 -0.76359708115E-01  0.39699816540E-01  0.88717982407E+00  0.88000000000E+00 0.  1.
        -11    1    4    4    0    0  0.44400233904E-01  0.46170657636E-01 -0.18219273346E-01  0.66598148920E-01  0.51100000000E-03 0. -1.
         11    1    4    4    0    0  0.46075234926E-01  0.36803719916E-01 -0.33356121518E-01  0.67751996553E-01  0.51100000000E-03 0.  1.
</event>
<event>
 8    1  0.1088270E+005  0.1043930E+01  0.7957747E-01            NaN
         13   -1    0    0    0    0  0.00000000000E+00  0.00000000000E+00  0.74505805969E-08  0.10566000000E+00  0.10566000000E+00 0. -1.
     999900   -1    0    0    0    0 -0.00000000000E+00 -0.00000000000E+00 -0.74505805969E-08  0.93827000000E+00  0.93827000000E+00 0.  1.
     999902    2    1    2    0    0 -0.23797328119E-02 -0.10510114522E-01 -0.21189656347E-01  0.10201575964E+01  0.10198805785E+01 0.  0.
     999903    2    3    3    0    0  0.12805627630E+00 -0.84880078354E-02  0.63414493760E-02  0.13011512375E+00  0.20476212350E-01 0.  0.
         14    1    1    2    0    0  0.23797328119E-02  0.10510114522E-01  0.21189656347E-01  0.23772403573E-01  0.00000000000E+00 0. -1.
     999901    1    3    3    0    0 -0.13043600911E+00 -0.20221066864E-02 -0.27531105723E-01  0.89004247268E+00  0.88000000000E+00 0.  1.
        -11    1    4    4    0    0  0.72245970680E-01  0.44929144008E-02 -0.63155028098E-03  0.72390099711E-01  0.51100000000E-03 0. -1.
         11    1    4    4    0    0  0.55810305616E-01 -0.12980922236E-01  0.69729996570E-02  0.57725024039E-01  0.51100000000E-03 0.  1.
</event>
<event>
 8    1  0.1088270E+005  0.1043930E+01  0.7957747E-01            NaN
         13   -1    0    0    0    0  0.00000000000E+00  0.00000000000E+00  0.74505805969E-08  0.10566000000E+00  0.10566000000E+00 0.  1.
     999900   -1    0    0    0    0 -0.00000000000E+00 -0.00000000000E+00 -0.74505805969E-08  0.93827000000E+00  0.93827000000E+00 0. -1.
     999902    2    1    2    0    0  0.95347394145E-02  0.61109789994E-02  0.20183297907E-01  0.10207865164E+01  0.10205241257E+01 0.  0.
     999903    2    3    3    0    0  0.11727929989E+00 -0.53221034973E-01  0.22281225151E-01  0.13222949541E+00  0.20031817621E-01 0.  0.
         14    1    1    2    0    0 -0.95347394145E-02 -0.61109789994E-02 -0.20183297907E-01  0.23143483628E-01  0.00000000000E+00 0. -1.
     999901    1    3    3    0    0 -0.10774456048E+00  0.59332013972E-01 -0.20979272444E-02  0.88855702096E+00  0.88000000000E+00 0.  1.
        -11    1    4    4    0    0  0.74354919756E-01 -0.41700524332E-01  0.20829158902E-01  0.87759345958E-01  0.51100000000E-03 0. -1.
         11    1    4    4    0    0  0.42924380134E-01 -0.11520510641E-01  0.14520662494E-02  0.44470149457E-01  0.51100000000E-03 0.  1.
</event>
<event>
 8    1  0.1088270E+005  0.1043930E+01  0.7957747E-01            NaN
         13   -1    0    0    0    0  0.00000000000E+00  0.00000000000E+00  0.74505805969E-08  0.10566000000E+00  0.10566000000E+00 0. -1.
     999900   -1    0    0    0    0 -0.00000000000E+00 -0.00000000000E+00 -0.74505805969E-08  0.93827000000E+00  0.93827000000E+00 0. -1.
     999902    2    1    2    0    0  0.13936191547E-01  0.55626289047E-03 -0.19101151037E-01  0.10202787668E+01  0.10200045985E+01 0.  0.
     999903    2    3    3    0    0 -0.10153673010E+00  0.73465827789E-01 -0.25923549956E-01  0.12971919804E+00  0.21168478609E-01 0.  0.
         14    1    1    2    0    0 -0.13936191547E-01 -0.55626289047E-03  0.19101151037E-01  0.23651233249E-01  0.00000000000E+00 0. -1.
     999901    1    3    3    0    0  0.11547292165E+00 -0.72909564899E-01  0.68223989185E-02  0.89055956871E+00  0.88000000000E+00 0. -1.
        -11    1    4    4    0    0 -0.72964806304E-01  0.40491770780E-01 -0.18111166870E-01  0.85391580067E-01  0.51100000000E-03 0.  1.
         11    1    4    4    0    0 -0.28571923797E-01  0.32974057009E-01 -0.78123830861E-02  0.44327617978E-01  0.51100000000E-03 0. -1.
</event>
<event>
 8    1  0.1088270E+005  0.1043930E+01  0.7957747E-01            NaN
         13   -1    0    0    0    0  0.00000000000E+00  0.00000000000E+00  0.74505805969E-08  0.10566000000E+00  0.10566000000E+00 0. -1.
     999900   -1    0    0    0    0 -0.00000000000E+00 -0.00000000000E+00 -0.74505805969E-08  0.93827000000E+00  0.93827000000E+00 0. -1.
     999902    2    1    2    0    0  0.50150004447E-02  0.74598338273E-02  0.21794757625E-01  0.10203543598E+01  0.10200819618E+01 0.  0.
     999903    2    3    3    0    0  0.63829717706E-01 -0.10079791555E+00  0.51094109872E-01  0.13128891604E+00  0.19791886478E-01 0.  0.
         14    1    1    2    0    0 -0.50150004447E-02 -0.74598338273E-02 -0.21794757625E-01  0.23575640184E-01  0.00000000000E+00 0.  1.
     999901    1    3    3    0    0 -0.58814717261E-01  0.10825774938E+00 -0.29299352248E-01  0.88906544377E+00  0.88000000000E+00 0. -1.
        -11    1    4    4    0    0  0.24002407182E-01 -0.24327269730E-01  0.90200647649E-02  0.35349035240E-01  0.51100000000E-03 0.  1.
         11    1    4    4    0    0  0.39827310524E-01 -0.76470645821E-01  0.42074045107E-01  0.95939880803E-01  0.51100000000E-03 0. -1.
</event>
<event>
 8    1  0.1088270E+005  0.1043930E+01  0.7957747E-01            NaN
         13   -1    0    0    0    0  0.00000000000E+00  0.00000000000E+00  0.74505805969E-08  0.10566000000E+00  0.10566000000E+00 0.  1.
     999900   -1    0    0    0    0 -0.00000000000E+00 -0.00000000000E+00 -0.74505805969E-08  0.93827000000E+00  0.93827000000E+00 0.  1.
     999902    2    1    2    0    0  0.14150474662E-01 -0.15822520240E-01 -0.81731537318E-02  0.10211838240E+01  0.10209304648E+01 0.  0.
     999903    2    3    3    0    0  0.59929803398E-01 -0.10116825762E+00 -0.61595871229E-01  0.13426013588E+00  0.20127966878E-01 0.  0.
         14    1    1    2    0    0 -0.14150474662E-01  0.15822520240E-01  0.81731537318E-02  0.22746175983E-01  0.00000000000E+00 0. -1.
     999901    1    3    3    0    0 -0.45779328736E-01  0.85345737376E-01  0.53422717497E-01  0.88692368813E+00  0.88000000000E+00 0.  1.
        -11    1    4    4    0    0  0.41173450454E-01 -0.84709131621E-01 -0.45899465140E-01  0.10477553161E+00  0.51100000000E-03 0. -1.
         11    1    4    4    0    0  0.18756352944E-01 -0.16459125995E-01 -0.15696406089E-01  0.29484604277E-01  0.51100000000E-03 0.  1.
</event>
<event>
 8    1  0.1088270E+005  0.1043930E+01  0.7957747E-01            NaN
         13   -1    0    0    0    0  0.00000000000E+00  0.00000000000E+00  0.74505805969E-08  0.10566000000E+00  0.10566000000E+00 0. -1.
     999900   -1    0    0    0    0 -0.00000000000E+00 -0.00000000000E+00 -0.74505805969E-08  0.93827000000E+00  0.93827000000E+00 0. -1.
     999902    2    1    2    0    0  0.16372890417E-01  0.88822698767E-02 -0.85704685649E-02  0.10234258738E+01  0.10232204552E+01 0.  0.
     999903    2    3    3    0    0 -0.45743842325E-01 -0.65749335627E-01  0.10194972043E+00  0.13121341191E+00  0.20192566048E-01 0.  0.
         14    1    1    2    0    0 -0.16372890417E-01 -0.88822698767E-02  0.85704685649E-02  0.20504126175E-01  0.00000000000E+00 0.  1.
     999901    1    3    3    0    0  0.62116732743E-01  0.74631605503E-01 -0.11052018899E+00  0.89221246192E+00  0.88000000000E+00 0. -1.
        -11    1    4    4    0    0 -0.16496465118E-01 -0.39545078441E-01  0.60220298551E-01  0.73910026849E-01  0.51100000000E-03 0. -1.
         11    1    4    4    0    0 -0.29247377208E-01 -0.26204257185E-01  0.41729421874E-01  0.57303385058E-01  0.51100000000E-03 0.  1.
</event>
<event>
 8    1  0.1088270E+005  0.1043930E+01  0.7957747E-01            NaN
         13   -1    0    0    0    0  0.00000000000E+00  0.00000000000E+00  0.74505805969E-08  0.10566000000E+00  0.10566000000E+00 0. -1.
     999900   -1    0    0    0    0 -0.00000000000E+00 -0.00000000000E+00 -0.74505805969E-08  0.93827000000E+00  0.93827000000E+00 0. -1.
     999902    2    1    2    0    0 -0.15202635548E-01  0.17385186170E-01 -0.29363817913E-02  0.10206493822E+01  0.10203838367E+01 0.  0.
     999903    2    3    3    0    0 -0.64151152751E-01 -0.92431818441E-01  0.62411476689E-01  0.13007312247E+00  0.19100086570E-01 0.  0.
         14    1    1    2    0    0  0.15202635548E-01 -0.17385186170E-01  0.29363817913E-02  0.23280617771E-01  0.00000000000E+00 0. -1.
     999901    1    3    3    0    0  0.48948517204E-01  0.10981700461E+00 -0.65347858480E-01  0.89057625976E+00  0.88000000000E+00 0. -1.
        -11    1    4    4    0    0 -0.53124557107E-01 -0.69796977523E-01  0.40178319496E-01  0.96480024449E-01  0.51100000000E-03 0. -1.
         11    1    4    4    0    0 -0.11026595645E-01 -0.22634840918E-01  0.22233157193E-01  0.33593098021E-01  0.51100000000E-03 0.  1.
</event>
<event>
 8    1  0.1088270E+005  0.1043930E+01  0.7957747E-01            NaN
         13   -1    0    0    0    0  0.00000000000E+00  0.00000000000E+00  0.74505805969E-08  0.10566000000E+00  0.10566000000E+00 0. -1.
     999900   -1    0    0    0    0 -0.00000000000E+00 -0.00000000000E+00 -0.74505805969E-08  0.93827000000E+00  0.93827000000E+00 0.  1.
     999902    2    1    2    0    0  0.18095464137E-01 -0.11781579806E-01 -0.99845456582E-02  0.10201404519E+01  0.10198630296E+01 0.  0.
     999903    2    3    3    0    0 -0.12058751062E+00 -0.17713269991E-01  0.34318598775E-01  0.12815899415E+00  0.19795300169E-01 0.  0.
         14    1    1    2    0    0 -0.18095464137E-01  0.11781579806E-01  0.99845456582E-02  0.23789548063E-01  0.00000000000E+00 0. -1.
     999901    1    3    3    0    0  0.13868297475E+00  0.59316901854E-02 -0.44303144433E-01  0.89198145779E+00  0.88000000000E+00 0.  1.
        -11    1    4    4    0    0 -0.33712062587E-01  0.26429472160E-02  0.14256900044E-01  0.36701616500E-01  0.51100000000E-03 0.  1.
         11    1    4    4    0    0 -0.86875448028E-01 -0.20356217207E-01  0.20061698730E-01  0.91457377647E-01  0.51100000000E-03 0. -1.
</event>
<event>
 8    1  0.1088270E+005  0.1043930E+01  0.7957747E-01            NaN
         13   -1    0    0    0    0  0.00000000000E+00  0.00000000000E+00  0.74505805969E-08  0.10566000000E+00  0.10566000000E+00 0. -1.
     999900   -1    0    0    0    0 -0.00000000000E+00 -0.00000000000E+00 -0.74505805969E-08  0.93827000000E+00  0.93827000000E+00 0. -1.
     999902    2    1    2    0    0  0.15523899570E-01 -0.17145988472E-01 -0.23919723319E-02  0.10206770881E+01  0.10204121816E+01 0.  0.
     999903    2    3    3    0    0 -0.32614133545E-01 -0.85217111774E-01 -0.93374090764E-01  0.13206654693E+00  0.19930231990E-01 0.  0.
         14    1    1    2    0    0 -0.15523899570E-01  0.17145988472E-01  0.23919723319E-02  0.23252911865E-01  0.00000000000E+00 0. -1.
     999901    1    3    3    0    0  0.48138033115E-01  0.68071123302E-01  0.90982118432E-01  0.88861054120E+00  0.88000000000E+00 0.  1.
        -11    1    4    4    0    0 -0.25455360477E-01 -0.43480844300E-01 -0.42865439654E-01  0.66153353927E-01  0.51100000000E-03 0.  1.
         11    1    4    4    0    0 -0.71587730687E-02 -0.41736267474E-01 -0.50508651110E-01  0.65913193007E-01  0.51100000000E-03 0. -1.
</event>
<event>
 8    1  0.1088270E+005  0.1043930E+01  0.7957747E-01            NaN
         13   -1    0    0    0    0  0.00000000000E+00  0.00000000000E+00  0.74505805969E-08  0.10566000000E+00  0.10566000000E+00 0.  1.
     999900   -1    0    0    0    0 -0.00000000000E+00 -0.00000000000E+00 -0.74505805969E-08  0.93827000000E+00  0.93827000000E+00 0. -1.
     999902    2    1    2    0    0 -0.17219826056E-01 -0.17243886516E-02 -0.15342845944E-01  0.10208021197E+01  0.10205400868E+01 0.  0.
     999903    2    3    3    0    0  0.21861310127E-02  0.55873466102E-02 -0.13110019324E+00  0.13297904267E+00  0.21451515359E-01 0.  0.
         14    1    1    2    0    0  0.17219826056E-01  0.17243886516E-02  0.15342845944E-01  0.23127880302E-01  0.00000000000E+00 0.  1.
     999901    1    3    3    0    0 -0.19405957069E-01 -0.73117352618E-02  0.11575734730E+00  0.88782307702E+00  0.88000000000E+00 0.  1.
        -11    1    4    4    0    0  0.46110747537E-02 -0.74199390175E-02 -0.42163016263E-01  0.43061567166E-01  0.51100000000E-03 0.  1.
         11    1    4    4    0    0 -0.24249437410E-02  0.13007285628E-01 -0.88937176980E-01  0.89917475508E-01  0.51100000000E-03 0. -1.
</event>
<event>
 8    1  0.1088270E+005  0.1043930E+01  0.7957747E-01            NaN
         13   -1    0    0    0    0  0.00000000000E+00  0.00000000000E+00  0.74505805969E-08  0.10566000000E+00  0.10566000000E+00 0. -1.
     999900   -1    0    0    0    0 -0.00000000000E+00 -0.00000000000E+00 -0.74505805969E-08  0.93827000000E+00  0.93827000000E+00 0. -1.
     999902    2    1    2    0    0 -0.22482566436E-01 -0.67637732907E-02  0.84308113302E-03  0.10204369115E+01  0.10201664399E+01 0.  0.
     999903    2    3    3    0    0  0.93449913861E-01  0.61807047932E-01 -0.58670044505E-01  0.12820145509E+00  0.20986695541E-01 0.  0.
         14    1    1    2    0    0  0.22482566436E-01  0.67637732907E-02 -0.84308113302E-03  0.23493088525E-01  0.00000000000E+00 0.  1.
     999901    1    3    3    0    0 -0.11593248030E+00 -0.68570821222E-01  0.59513125638E-01  0.89223545639E+00  0.88000000000E+00 0.  1.
        -11    1    4    4    0    0  0.56976409813E-01  0.42732474644E-01 -0.26628784219E-01  0.76037681016E-01  0.51100000000E-03 0.  1.
         11    1    4    4    0    0  0.36473504048E-01  0.19074573288E-01 -0.32041260286E-01  0.52163774072E-01  0.51100000000E-03 0. -1.
</event>
<event>
 8    1  0.1088270E+005  0.1043930E+01  0.7957747E-01            NaN
         13   -1    0    0    0    0  0.00000000000E+00  0.00000000000E+00  0.74505805969E-08  0.10566000000E+00  0.10566000000E+00 0. -1.
     999900   -1    0    0    0    0 -0.00000000000E+00 -0.00000000000E+00 -0.74505805969E-08  0.93827000000E+00  0.93827000000E+00 0. -1.
     999902    2    1    2    0    0  0.76168989882E-03  0.17255312403E-01  0.18153030070E-01  0.10188728957E+01  0.10185647348E+01 0.  0.
     999903    2    3    3    0    0  0.27277464016E-01 -0.10953986697E+00  0.57858978071E-01  0.12850405854E+00  0.20556974956E-01 0.  0.
         14    1    1    2    0    0 -0.76168989882E-03 -0.17255312403E-01 -0.18153030070E-01  0.25057104349E-01  0.00000000000E+00 0. -1.
     999901    1    3    3    0    0 -0.26515774117E-01  0.12679517937E+00 -0.39705948000E-01  0.89036883711E+00  0.88000000000E+00 0. -1.
        -11    1    4    4    0    0  0.11438949914E-01 -0.61483126786E-01  0.21265450382E-01  0.66056831255E-01  0.51100000000E-03 0.  1.
         11    1    4    4    0    0  0.15838514103E-01 -0.48056740184E-01  0.36593527689E-01  0.62447227287E-01  0.51100000000E-03 0. -1.
</event>
<event>
 8    1  0.1088270E+005  0.1043930E+01  0.7957747E-01            NaN
         13   -1    0    0    0    0  0.00000000000E+00  0.00000000000E+00  0.74505805969E-08  0.10566000000E+00  0.10566000000E+00 0. -1.
     999900   -1    0    0    0    0 -0.00000000000E+00 -0.00000000000E+00 -0.74505805969E-08  0.93827000000E+00  0.93827000000E+00 0. -1.
     999902    2    1    2    0    0  0.73568066811E-02  0.97675050727E-02  0.20380917236E-01  0.10201621952E+01  0.10198852856E+01 0.  0.
     999903    2    3    3    0    0 -0.26027304014E-01 -0.30366947211E-01 -0.11981034000E+00  0.12753749142E+00  0.17655653798E-01 0.  0.
         14    1    1    2    0    0 -0.73568066811E-02 -0.97675050727E-02 -0.20380917236E-01  0.23767804847E-01  0.00000000000E+00 0.  1.
     999901    1    3    3    0    0  0.33384110695E-01  0.40134452284E-01  0.14019125723E+00  0.89262470373E+00  0.88000000000E+00 0.  1.
        -11    1    4    4    0    0 -0.23388246067E-01 -0.15487879751E-01 -0.67846595443E-01  0.73418704071E-01  0.51100000000E-03 0.  1.
         11    1    4    4    0    0 -0.26390579466E-02 -0.14879067460E-01 -0.51963744553E-01  0.54118787351E-01  0.51100000000E-03 0. -1.
</event>
<event>
 8    1  0.1088270E+005  0.1043930E+01  0.7957747E-01            NaN
         13   -1    0    0    0    0  0.00000000000E+00  0.00000000000E+00  0.74505805969E-08  0.10566000000E+00  0.10566000000E+00 0. -1.
     999900   -1    0    0    0    0 -0.00000000000E+00 -0.00000000000E+00 -0.74505805969E-08  0.93827000000E+00  0.93827000000E+00 0.  1.
     999902    2    1    2    0    0 -0.10253738068E-02 -0.91942458131E-02  0.22360636907E-01  0.10197311647E+01  0.10194439978E+01 0.  0.
     999903    2    3    3    0    0  0.10609549395E-01  0.11169878154E+00  0.63595222632E-01  0.13043324691E+00  0.19475605822E-01 0.  0.
         14    1    1    2    0    0  0.10253738068E-02  0.91942458131E-02 -0.22360636907E-01  0.24198835311E-01  0.00000000000E+00 0.  1.
     999901    1    3    3    0    0 -0.11634923201E-01 -0.12089302736E+00 -0.41234585725E-01  0.88929791778E+00  0.88000000000E+00 0. -1.
        -11    1    4    4    0    0 -0.11690951215E-02  0.62852729468E-01  0.27797583673E-01  0.68737174542E-01  0.51100000000E-03 0. -1.
         11    1    4    4    0    0  0.11778644516E-01  0.48846052075E-01  0.35797638959E-01  0.61696072371E-01  0.51100000000E-03 0.  1.
</event>
<event>
 8    1  0.1088270E+005  0.1043930E+01  0.7957747E-01            NaN
         13   -1    0    0    0    0  0.00000000000E+00  0.00000000000E+00  0.74505805969E-08  0.10566000000E+00  0.10566000000E+00 0. -1.
     999900   -1    0    0    0    0 -0.00000000000E+00 -0.00000000000E+00 -0.74505805969E-08  0.93827000000E+00  0.93827000000E+00 0. -1.
     999902    2    1    2    0    0  0.17574198044E-01 -0.61331735686E-02 -0.15466993830E-01  0.10197288398E+01  0.10194416171E+01 0.  0.
     999903    2    3    3    0    0 -0.65194141797E-01 -0.71963982408E-01  0.81114226496E-01  0.12815033764E+00  0.20344542457E-01 0.  0.
         14    1    1    2    0    0 -0.17574198044E-01  0.61331735686E-02  0.15466993830E-01  0.24201160159E-01  0.00000000000E+00 0. -1.
     999901    1    3    3    0    0  0.82768339841E-01  0.65830808839E-01 -0.96581220326E-01  0.89157850220E+00  0.88000000000E+00 0.  1.
        -11    1    4    4    0    0 -0.39774092054E-01 -0.28841294747E-01  0.41423594863E-01  0.64264873872E-01  0.51100000000E-03 0.  1.
         11    1    4    4    0    0 -0.25420049743E-01 -0.43122687661E-01  0.39690631633E-01  0.63885463765E-01  0.51100000000E-03 0. -1.
</event>
<event>
 8    1  0.1094963E+005  0.1043930E+01  0.7957747E-01            NaN
         13   -1    0    0    0    0  0.00000000000E+00  0.00000000000E+00  0.74505805969E-08  0.10566000000E+00  0.10566000000E+00 0.  1.
     999900   -1    0    0    0    0 -0.00000000000E+00 -0.00000000000E+00 -0.74505805969E-08  0.93827000000E+00  0.93827000000E+00 0.  1.
     999902    2    1    2    0    0 -0.10431780801E-01  0.19500343802E-01 -0.81364737899E-02  0.10203654575E+01  0.10200933188E+01 0.  0.
     999903    2    3    3    0    0 -0.51126735305E-01 -0.50265105214E-01  0.10587635935E+00  0.12934232459E+00  0.19470736948E-01 0.  0.
         14    1    1    2    0    0  0.10431780801E-01 -0.19500343802E-01  0.81364737899E-02  0.23564542533E-01  0.00000000000E+00 0.  1.
     999901    1    3    3    0    0  0.40694954504E-01  0.69765449016E-01 -0.11401283314E+00  0.89102313287E+00  0.88000000000E+00 0.  1.
        -11    1    4    4    0    0 -0.18990363176E-01 -0.18292956714E-01  0.56253878248E-01  0.62129108297E-01  0.51100000000E-03 0. -1.
         11    1    4    4    0    0 -0.32136372129E-01 -0.31972148500E-01  0.49622481099E-01  0.67213216295E-01  0.51100000000E-03 0.  1.
</event>
<event>
 8    1  0.1088270E+005  0.1043930E+01  0.7957747E-01            NaN
         13   -1    0    0    0    0  0.00000000000E+00  0.00000000000E+00  0.74505805969E-08  0.10566000000E+00  0.10566000000E+00 0.  1.
     999900   -1    0    0    0    0 -0.00000000000E+00 -0.00000000000E+00 -0.74505805969E-08  0.93827000000E+00  0.93827000000E+00 0. -1.
     999902    2    1    2    0    0  0.34143548045E-02 -0.18595135360E-01  0.12085366997E-01  0.10214913509E+01  0.10212448712E+01 0.  0.
     999903    2    3    3    0    0  0.56542966333E-01  0.11509070742E+00  0.15518023423E-02  0.12974838911E+00  0.19729632773E-01 0.  0.
         14    1    1    2    0    0 -0.34143548045E-02  0.18595135360E-01 -0.12085366997E-01  0.22438649096E-01  0.00000000000E+00 0. -1.
     999901    1    3    3    0    0 -0.53128611529E-01 -0.13368584278E+00  0.10533564655E-01  0.89174296179E+00  0.88000000000E+00 0.  1.
        -11    1    4    4    0    0  0.19537652831E-01  0.41992870484E-01  0.99870475520E-02  0.47382731975E-01  0.51100000000E-03 0.  1.
         11    1    4    4    0    0  0.37005313502E-01  0.73097836939E-01 -0.84352452097E-02  0.82365657135E-01  0.51100000000E-03 0. -1.
</event>
<event>
 8    1  0.1088270E+005  0.1043930E+01  0.7957747E-01            NaN
         13   -1    0    0    0    0  0.00000000000E+00  0.00000000000E+00  0.74505805969E-08  0.10566000000E+00  0.10566000000E+00 0.  1.
     999900   -1    0    0    0    0 -0.00000000000E+00 -0.00000000000E+00 -0.74505805969E-08  0.93827000000E+00  0.93827000000E+00 0. -1.
     999902    2    1    2    0    0  0.66231105823E-02  0.16534563288E-01 -0.13567837359E-01  0.10215392969E+01  0.10212938810E+01 0.  0.
     999903    2    3    3    0    0  0.93388214300E-01 -0.85477801507E-01 -0.25962549640E-01  0.13132115803E+00  0.23310500673E-01 0.  0.
         14    1    1    2    0    0 -0.66231105823E-02 -0.16534563288E-01  0.13567837359E-01  0.22390703149E-01  0.00000000000E+00 0. -1.
     999901    1    3    3    0    0 -0.86765103718E-01  0.10201236480E+00  0.12394712281E-01  0.89021813882E+00  0.88000000000E+00 0.  1.
        -11    1    4    4    0    0  0.36196773902E-01 -0.45593655583E-01 -0.46173647520E-02  0.58400077471E-01  0.51100000000E-03 0.  1.
         11    1    4    4    0    0  0.57191440398E-01 -0.39884145924E-01 -0.21345184888E-01  0.72921080558E-01  0.51100000000E-03 0. -1.
</event>
<event>
 8    1  0.1088270E+005  0.1043930E+01  0.7957747E-01            NaN
         13   -1    0    0    0    0  0.00000000000E+00  0.00000000000E+00  0.74505805969E-08  0.10566000000E+00  0.10566000000E+00 0. -1.
     999900   -1    0    0    0    0 -0.00000000000E+00 -0.00000000000E+00 -0.74505805969E-08  0.93827000000E+00  0.93827000000E+00 0.  1.
     999902    2    1    2    0    0  0.92031922493E-02 -0.56901451283E-03 -0.21550250040E-01  0.10204899530E+01  0.10202207156E+01 0.  0.
     999903    2    3    3    0    0 -0.48695874630E-01 -0.20393049296E-01 -0.12038038426E+00  0.13284549170E+00  0.19217780457E-01 0.  0.
         14    1    1    2    0    0 -0.92031922493E-02  0.56901451283E-03  0.21550250040E-01  0.23440046968E-01  0.00000000000E+00 0. -1.
     999901    1    3    3    0    0  0.57899066879E-01  0.19824034783E-01  0.98830134219E-01  0.88764446133E+00  0.88000000000E+00 0. -1.
        -11    1    4    4    0    0 -0.81961275882E-02  0.37391260518E-02 -0.18336530413E-01  0.20436414550E-01  0.51100000000E-03 0.  1.
         11    1    4    4    0    0 -0.40499747041E-01 -0.24132175348E-01 -0.10204385385E+00  0.11240907715E+00  0.51100000000E-03 0. -1.
</event>
<event>
 8    1  0.1088270E+005  0.1043930E+01  0.7957747E-01            NaN
         13   -1    0    0    0    0  0.00000000000E+00  0.00000000000E+00  0.74505805969E-08  0.10566000000E+00  0.10566000000E+00 0.  1.
     999900   -1    0    0    0    0 -0.00000000000E+00 -0.00000000000E+00 -0.74505805969E-08  0.93827000000E+00  0.93827000000E+00 0. -1.
     999902    2    1    2    0    0  0.92662198265E-02 -0.78803790155E-02  0.20403061572E-01  0.10201760924E+01  0.10198995105E+01 0.  0.
     999903    2    3    3    0    0 -0.91974907374E-02  0.95586896599E-01  0.87407000330E-01  0.13139270288E+00  0.20065144565E-01 0.  0.
         14    1    1    2    0    0 -0.92662198265E-02  0.78803790155E-02 -0.20403061572E-01  0.23753907569E-01  0.00000000000E+00 0. -1.
     999901    1    3    3    0    0  0.18463710564E-01 -0.10346727561E+00 -0.67003938758E-01  0.88878338955E+00  0.88000000000E+00 0. -1.
        -11    1    4    4    0    0 -0.18859591922E-02  0.46712450855E-01  0.29582516439E-01  0.55326271398E-01  0.51100000000E-03 0.  1.
         11    1    4    4    0    0 -0.73115315451E-02  0.48874445744E-01  0.57824483891E-01  0.76066431483E-01  0.51100000000E-03 0. -1.
</event>
<event>
 8    1  0.1088270E+005  0.1043930E+01  0.7957747E-01            NaN
         13   -1    0    0    0    0  0.00000000000E+00  0.00000000000E+00  0.74505805969E-08  0.10566000000E+00  0.10566000000E+00 0. -1.
     999900   -1    0    0    0    0 -0.00000000000E+00 -0.00000000000E+00 -0.74505805969E-08  0.93827000000E+00  0.93827000000E+00 0. -1.
     999902    2    1    2    0    0  0.86664316995E-02  0.19358589659E-01  0.11127003749E-01  0.10199785440E+01  0.10196972874E+01 0.  0.
     999903    2    3    3    0    0 -0.58435695451E-01 -0.48418615196E-01  0.10374775936E+00  0.12999256134E+00  0.19374613024E-01 0.  0.
         14    1    1    2    0    0 -0.86664316995E-02 -0.19358589659E-01 -0.11127003749E-01  0.23951455998E-01  0.00000000000E+00 0. -1.
     999901    1    3    3    0    0  0.67102127151E-01  0.67777204855E-01 -0.92620755615E-01  0.88998598266E+00  0.88000000000E+00 0. -1.
        -11    1    4    4    0    0 -0.39722931124E-01 -0.39738661348E-01  0.63698139369E-01  0.84939899592E-01  0.51100000000E-03 0. -1.
         11    1    4    4    0    0 -0.18712764328E-01 -0.86799538485E-02  0.40049619996E-01  0.45052661746E-01  0.51100000000E-03 0.  1.
</event>
<event>
 8    1  0.1088270E+005  0.1043930E+01  0.7957747E-01            NaN
         13   -1    0    0    0    0  0.00000000000E+00  0.00000000000E+00  0.74505805969E-08  0.10566000000E+00  0.10566000000E+00 0. -1.
     999900   -1    0    0    0    0 -0.00000000000E+00 -0.00000000000E+00 -0.74505805969E-08  0.93827000000E+00  0.93827000000E+00 0.  1.
     999902    2    1    2    0    0  0.19685672426E-01 -0.11533603900E-01 -0.77475455130E-02  0.10198348930E+01  0.10195502120E+01 0.  0.
     999903    2    3    3    0    0 -0.10619252040E+00 -0.62463751388E-01 -0.30264333341E-01  0.12913505298E+00  0.24111416565E-01 0.  0.
         14    1    1    2    0    0 -0.19685672426E-01  0.11533603900E-01  0.77475455130E-02  0.24095106957E-01  0.00000000000E+00 0.  1.
     999901    1    3    3    0    0  0.12587819283E+00  0.50930147488E-01  0.22516787828E-01  0.89069984006E+00  0.88000000000E+00 0. -1.
        -11    1    4    4    0    0 -0.54530672724E-01 -0.34370815873E-01 -0.28010099240E-01  0.70283526036E-01  0.51100000000E-03 0. -1.
         11    1    4    4    0    0 -0.51661847679E-01 -0.28092935514E-01 -0.22542341009E-02  0.58851526945E-01  0.51100000000E-03 0.  1.
</event>
<event>
 8    1  0.1088270E+005  0.1043930E+01  0.7957747E-01            NaN
         13   -1    0    0    0    0  0.00000000000E+00  0.00000000000E+00  0.74505805969E-08  0.10566000000E+00  0.10566000000E+00 0.  1.
     999900   -1    0    0    0    0 -0.00000000000E+00 -0.00000000000E+00 -0.74505805969E-08  0.93827000000E+00  0.93827000000E+00 0.  1.
     999902    2    1    2    0    0 -0.70637829022E-02 -0.32788786015E-02  0.22250420177E-01  0.10203560892E+01  0.10200837316E+01 0.  0.
     999903    2    3    3    0    0  0.44227373602E-01 -0.30012952818E-02 -0.11808691232E+00  0.12776131735E+00  0.20331428875E-01 0.  0.
         14    1    1    2    0    0  0.70637829022E-02  0.32788786015E-02 -0.22250420177E-01  0.23573910831E-01  0.00000000000E+00 0. -1.
     999901    1    3    3    0    0 -0.51291156505E-01 -0.27758331973E-03  0.14033733250E+00  0.89259477182E+00  0.88000000000E+00 0. -1.
        -11    1    4    4    0    0  0.42052111900E-02  0.44788136566E-02 -0.31243739261E-01  0.31846129073E-01  0.51100000000E-03 0. -1.
         11    1    4    4    0    0  0.40022162412E-01 -0.74801089384E-02 -0.86843173060E-01  0.95915188276E-01  0.51100000000E-03 0.  1.
</event>
<event>
 8    1  0.1424245E+005  0.1043930E+01  0.7957747E-01            NaN
         13   -1    0    0    0    0  0.00000000000E+00  0.00000000000E+00  0.74505805969E-08  0.10566000000E+00  0.10566000000E+00 0. -1.
     999900   -1    0    0    0    0 -0.00000000000E+00 -0.00000000000E+00 -0.74505805969E-08  0.93827000000E+00  0.93827000000E+00 0.  1.
     999902    2    1    2    0    0 -0.95493339732E-02 -0.21722845244E-01  0.20217352933E-01  0.10127560823E+01  0.10122761822E+01 0.  0.
     999903    2    3    3    0    0 -0.78545341460E-01 -0.86523110851E-01  0.46266891349E-01  0.12729682185E+00  0.20204856886E-01 0.  0.
         14    1    1    2    0    0  0.95493339732E-02  0.21722845244E-01 -0.20217352933E-01  0.31173917695E-01  0.00000000000E+00 0.  1.
     999901    1    3    3    0    0  0.68996007487E-01  0.64800265607E-01 -0.26049538416E-01  0.88545926045E+00  0.88000000000E+00 0. -1.
        -11    1    4    4    0    0 -0.34764696500E-01 -0.30533708282E-01  0.27331420817E-01  0.53741596078E-01  0.51100000000E-03 0. -1.
         11    1    4    4    0    0 -0.43780644960E-01 -0.55989402569E-01  0.18935470532E-01  0.73555225772E-01  0.51100000000E-03 0.  1.
</event>
<event>
 8    1  0.1088270E+005  0.1043930E+01  0.7957747E-01            NaN
         13   -1    0    0    0    0  0.00000000000E+00  0.00000000000E+00  0.74505805969E-08  0.10566000000E+00  0.10566000000E+00 0.  1.
     999900   -1    0    0    0    0 -0.00000000000E+00 -0.00000000000E+00 -0.74505805969E-08  0.93827000000E+00  0.93827000000E+00 0. -1.
     999902    2    1    2    0    0 -0.13046979337E-01 -0.44179471911E-02 -0.19520592106E-01  0.10200386743E+01  0.10197588448E+01 0.  0.
     999903    2    3    3    0    0 -0.58077400214E-01  0.11487666071E+00 -0.53361825097E-02  0.13073549780E+00  0.22218549674E-01 0.  0.
         14    1    1    2    0    0  0.13046979337E-01  0.44179471911E-02  0.19520592106E-01  0.23891325693E-01  0.00000000000E+00 0. -1.
     999901    1    3    3    0    0  0.45030420877E-01 -0.11929460790E+00 -0.14184409596E-01  0.88930317651E+00  0.88000000000E+00 0. -1.
        -11    1    4    4    0    0 -0.27642957914E-01  0.31743170798E-01 -0.15692676789E-02  0.42124645240E-01  0.51100000000E-03 0.  1.
         11    1    4    4    0    0 -0.30434442300E-01  0.83133489907E-01 -0.37669148308E-02  0.88610852556E-01  0.51100000000E-03 0. -1.
</event>
<event>
 8    1  0.1088270E+005  0.1043930E+01  0.7957747E-01            NaN
         13   -1    0    0    0    0  0.00000000000E+00  0.00000000000E+00  0.74505805969E-08  0.10566000000E+00  0.10566000000E+00 0.  1.
     999900   -1    0    0    0    0 -0.00000000000E+00 -0.00000000000E+00 -0.74505805969E-08  0.93827000000E+00  0.93827000000E+00 0. -1.
     999902    2    1    2    0    0  0.22192879836E-01 -0.70168860043E-02  0.33382549618E-02  0.10204160775E+01  0.10201451204E+01 0.  0.
     999903    2    3    3    0    0 -0.80273817293E-01  0.98449996596E-01  0.24147685852E-03  0.12820966788E+00  0.17360099516E-01 0.  0.
         14    1    1    2    0    0 -0.22192879836E-01  0.70168860043E-02 -0.33382549618E-02  0.23513922489E-01  0.00000000000E+00 0.  1.
     999901    1    3    3    0    0  0.10246669713E+00 -0.10546688260E+00  0.30967781032E-02  0.89220640963E+00  0.88000000000E+00 0. -1.
        -11    1    4    4    0    0 -0.12117991262E-01  0.90770942201E-02  0.42744192553E-02  0.15740747526E-01  0.51100000000E-03 0.  1.
         11    1    4    4    0    0 -0.68155826032E-01  0.89372902376E-01 -0.40329423968E-02  0.11246892036E+00  0.51100000000E-03 0. -1.
</event>
<event>
 8    1  0.1088270E+005  0.1043930E+01  0.7957747E-01            NaN
         13   -1    0    0    0    0  0.00000000000E+00  0.00000000000E+00  0.74505805969E-08  0.10566000000E+00  0.10566000000E+00 0. -1.
     999900   -1    0    0    0    0 -0.00000000000E+00 -0.00000000000E+00 -0.74505805969E-08  0.93827000000E+00  0.93827000000E+00 0.  1.
     999902    2    1    2    0    0 -0.21600309511E-01  0.83833930854E-02  0.41910077841E-02  0.10203838921E+01  0.10201121841E+01 0.  0.
     999903    2    3    3    0    0 -0.45234759895E-01  0.10892003687E+00 -0.56613243757E-01  0.13226038662E+00  0.19442030945E-01 0.  0.
         14    1    1    2    0    0  0.21600309511E-01 -0.83833930854E-02 -0.41910077841E-02  0.23546107892E-01  0.00000000000E+00 0.  1.
     999901    1    3    3    0    0  0.23634450384E-01 -0.10053664378E+00  0.60804251541E-01  0.88812350548E+00  0.88000000000E+00 0. -1.
        -11    1    4    4    0    0 -0.13997302964E-01  0.58996558910E-01 -0.28350960911E-01  0.66936959589E-01  0.51100000000E-03 0.  1.
         11    1    4    4    0    0 -0.31237456931E-01  0.49923477958E-01 -0.28262282846E-01  0.65323427035E-01  0.51100000000E-03 0. -1.
</event>
<event>
 8    1  0.1088270E+005  0.1043930E+01  0.7957747E-01            NaN
         13   -1    0    0    0    0  0.00000000000E+00  0.00000000000E+00  0.74505805969E-08  0.10566000000E+00  0.10566000000E+00 0.  1.
     999900   -1    0    0    0    0 -0.00000000000E+00 -0.00000000000E+00 -0.74505805969E-08  0.93827000000E+00  0.93827000000E+00 0. -1.
     999902    2    1    2    0    0 -0.55946093049E-03 -0.19085375551E-01  0.14487387505E-01  0.10199623353E+01  0.10196806934E+01 0.  0.
     999903    2    3    3    0    0 -0.11418476941E+00  0.48253619428E-01 -0.29084457754E-01  0.12903935505E+00  0.20944596300E-01 0.  0.
         14    1    1    2    0    0  0.55946093049E-03  0.19085375551E-01 -0.14487387505E-01  0.23967664742E-01  0.00000000000E+00 0. -1.
     999901    1    3    3    0    0  0.11362530848E+00 -0.67338994979E-01  0.43571845260E-01  0.89092298021E+00  0.88000000000E+00 0.  1.
        -11    1    4    4    0    0 -0.85183428567E-01  0.44086359897E-01 -0.27083499201E-01  0.99667450461E-01  0.51100000000E-03 0.  1.
         11    1    4    4    0    0 -0.29001340845E-01  0.41672595306E-02 -0.20009585535E-02  0.29371904584E-01  0.51100000000E-03 0. -1.
</event>
<event>
 8    1  0.1088270E+005  0.1043930E+01  0.7957747E-01            NaN
         13   -1    0    0    0    0  0.00000000000E+00  0.00000000000E+00  0.74505805969E-08  0.10566000000E+00  0.10566000000E+00 0.  1.
     999900   -1    0    0    0    0 -0.00000000000E+00 -0.00000000000E+00 -0.74505805969E-08  0.93827000000E+00  0.93827000000E+00 0. -1.
     999902    2    1    2    0    0  0.68068014951E-02 -0.22440835822E-01  0.20102457557E-02  0.10203935443E+01  0.10201220616E+01 0.  0.
     999903    2    3    3    0    0  0.33880482381E-01 -0.12615767213E+00 -0.19725247948E-01  0.13362266182E+00  0.20057044151E-01 0.  0.
         14    1    1    2    0    0 -0.68068014951E-02  0.22440835822E-01 -0.20102457557E-02  0.23536455701E-01  0.00000000000E+00 0. -1.
     999901    1    3    3    0    0 -0.27073680886E-01  0.10371683631E+00  0.21735493703E-01  0.88677088248E+00  0.88000000000E+00 0.  1.
        -11    1    4    4    0    0  0.33868191420E-01 -0.10314016606E+00 -0.20967370838E-01  0.11056599841E+00  0.51100000000E-03 0. -1.
         11    1    4    4    0    0  0.12290961737E-04 -0.23017506077E-01  0.12421228905E-02  0.23056663405E-01  0.51100000000E-03 0.  1.
</event>
<event>
 8    1  0.1088270E+005  0.1043930E+01  0.7957747E-01            NaN
         13   -1    0    0    0    0  0.00000000000E+00  0.00000000000E+00  0.74505805969E-08  0.10566000000E+00  0.10566000000E+00 0. -1.
     999900   -1    0    0    0    0 -0.00000000000E+00 -0.00000000000E+00 -0.74505805969E-08  0.93827000000E+00  0.93827000000E+00 0. -1.
     999902    2    1    2    0    0 -0.56902897381E-02  0.72363231757E-02  0.21614241404E-01  0.10204370393E+01  0.10201665707E+01 0.  0.
     999903    2    3    3    0    0  0.64122349445E-01 -0.57464066381E-01  0.95711127331E-01  0.13220829991E+00  0.30076902208E-01 0.  0.
         14    1    1    2    0    0  0.56902897381E-02 -0.72363231757E-02 -0.21614241404E-01  0.23492960688E-01  0.00000000000E+00 0.  1.
     999901    1    3    3    0    0 -0.69812639183E-01  0.64700389556E-01 -0.74096885927E-01  0.88822873940E+00  0.88000000000E+00 0. -1.
        -11    1    4    4    0    0  0.80307688227E-02 -0.79933897237E-02  0.32027291199E-01  0.33976404014E-01  0.51100000000E-03 0. -1.
         11    1    4    4    0    0  0.56091580622E-01 -0.49470676657E-01  0.63683836132E-01  0.98231895894E-01  0.51100000000E-03 0.  1.
</event>
<event>
 8    1  0.1088270E+005  0.1043930E+01  0.7957747E-01            NaN
         13   -1    0    0    0    0  0.00000000000E+00  0.00000000000E+00  0.74505805969E-08  0.10566000000E+00  0.10566000000E+00 0. -1.
     999900   -1    0    0    0    0 -0.00000000000E+00 -0.00000000000E+00 -0.74505805969E-08  0.93827000000E+00  0.93827000000E+00 0. -1.
     999902    2    1    2    0    0  0.83254342202E-02 -0.13562346747E-01  0.22940872698E-01  0.10160098685E+01  0.10156261709E+01 0.  0.
     999903    2    3    3    0    0 -0.26218328163E-01  0.11236320264E+00 -0.41088988979E-01  0.12407358224E+00  0.19825709462E-01 0.  0.
         14    1    1    2    0    0 -0.83254342202E-02  0.13562346747E-01 -0.22940872698E-01  0.27920131525E-01  0.00000000000E+00 0.  1.
     999901    1    3    3    0    0  0.34543762383E-01 -0.12592554939E+00  0.64029861677E-01  0.89193628623E+00  0.88000000000E+00 0.  1.
        -11    1    4    4    0    0 -0.46293446564E-02  0.40466308921E-01 -0.23292755335E-01  0.46922985430E-01  0.51100000000E-03 0.  1.
         11    1    4    4    0    0 -0.21588983507E-01  0.71896893722E-01 -0.17796233644E-01  0.77150596813E-01  0.51100000000E-03 0. -1.
</event>
<event>
 8    1  0.1088270E+005  0.1043930E+01  0.7957747E-01            NaN
         13   -1    0    0    0    0  0.00000000000E+00  0.00000000000E+00  0.74505805969E-08  0.10566000000E+00  0.10566000000E+00 0. -1.
     999900   -1    0    0    0    0 -0.00000000000E+00 -0.00000000000E+00 -0.74505805969E-08  0.93827000000E+00  0.93827000000E+00 0.  1.
     999902    2    1    2    0    0 -0.41690268309E-02  0.16759339319E-01  0.13551451034E-01  0.10219778232E+01  0.10217420287E+01 0.  0.
     999903    2    3    3    0    0 -0.11511032405E+00 -0.18521242387E-02 -0.60365941645E-01  0.13174294472E+00  0.21408865129E-01 0.  0.
         14    1    1    2    0    0  0.41690268309E-02 -0.16759339319E-01 -0.13551451034E-01  0.21952176755E-01  0.00000000000E+00 0.  1.
     999901    1    3    3    0    0  0.11094129722E+00  0.18611463558E-01  0.73917392680E-01  0.89023487853E+00  0.88000000000E+00 0. -1.
        -11    1    4    4    0    0 -0.10314283175E+00 -0.53511512080E-02 -0.59588419855E-01  0.11923975622E+00  0.51100000000E-03 0.  1.
         11    1    4    4    0    0 -0.11967492296E-01  0.34990269694E-02 -0.77752179063E-03  0.12503188502E-01  0.51100000000E-03 0. -1.
</event>
<event>
 8    1  0.1088270E+005  0.1043930E+01  0.7957747E-01            NaN
         13   -1    0    0    0    0  0.00000000000E+00  0.00000000000E+00  0.74505805969E-08  0.10566000000E+00  0.10566000000E+00 0. -1.
     999900   -1    0    0    0    0 -0.00000000000E+00 -0.00000000000E+00 -0.74505805969E-08  0.93827000000E+00  0.93827000000E+00 0.  1.
     999902    2    1    2    0    0 -0.22491399194E-02 -0.23666274896E-01  0.23033075835E-02  0.10200457704E+01  0.10197661091E+01 0.  0.
     999903    2    3    3    0    0  0.85429871458E-01 -0.11614265228E-01 -0.95524412454E-01  0.13021257098E+00  0.19931035436E-01 0.  0.
         14    1    1    2    0    0  0.22491399194E-02  0.23666274896E-01 -0.23033075835E-02  0.23884229601E-01  0.00000000000E+00 0.  1.
     999901    1    3    3    0    0 -0.87679011377E-01 -0.12052009668E-01  0.97827720037E-01  0.88983319941E+00  0.88000000000E+00 0. -1.
        -11    1    4    4    0    0  0.39895440655E-01  0.32280778108E-02 -0.50862415112E-01  0.64724902962E-01  0.51100000000E-03 0.  1.
         11    1    4    4    0    0  0.45534430802E-01 -0.14842343039E-01 -0.44661997342E-01  0.65487668022E-01  0.51100000000E-03 0. -1.
</event>
<event>
 8    1  0.1088270E+005  0.1043930E+01  0.7957747E-01            NaN
         13   -1    0    0    0    0  0.00000000000E+00  0.00000000000E+00  0.74505805969E-08  0.10566000000E+00  0.10566000000E+00 0.  1.
     999900   -1    0    0    0    0 -0.00000000000E+00 -0.00000000000E+00 -0.74505805969E-08  0.93827000000E+00  0.93827000000E+00 0.  1.
     999902    2    1    2    0    0 -0.20927217219E-02 -0.10286077269E-01 -0.20977521922E-01  0.10204728200E+01  0.10202031842E+01 0.  0.
     999903    2    3    3    0    0  0.11653308140E-01 -0.76174537876E-01  0.10208163066E+00  0.12936463482E+00  0.19395608092E-01 0.  0.
         14    1    1    2    0    0  0.20927217219E-02  0.10286077269E-01  0.20977521922E-01  0.23457180047E-01  0.00000000000E+00 0.  1.
     999901    1    3    3    0    0 -0.13746029862E-01  0.65888460607E-01 -0.12305915258E+00  0.89110818513E+00  0.88000000000E+00 0.  1.
        -11    1    4    4    0    0  0.11911201820E-01 -0.44766831889E-01  0.73574940463E-01  0.86945264111E-01  0.51100000000E-03 0. -1.
         11    1    4    4    0    0 -0.25789368070E-03 -0.31407705987E-01  0.28506690194E-01  0.42419370709E-01  0.51100000000E-03 0.  1.
</event>
<event>
 8    1  0.1088270E+005  0.1043930E+01  0.7957747E-01            NaN
         13   -1    0    0    0    0  0.00000000000E+00  0.00000000000E+00  0.74505805969E-08  0.10566000000E+00  0.10566000000E+00 0. -1.
     999900   -1    0    0    0    0 -0.00000000000E+00 -0.00000000000E+00 -0.74505805969E-08  0.93827000000E+00  0.93827000000E+00 0. -1.
     999902    2    1    2    0    0  0.20102215909E-01 -0.11971728169E-03  0.11792092207E-01  0.10206240597E+01  0.10203579295E+01 0.  0.
     999903    2    3    3    0    0  0.10241761757E+00  0.61121641380E-01  0.56390878000E-01  0.13354154881E+00  0.20692769349E-01 0.  0.
         14    1    1    2    0    0 -0.20102215909E-01  0.11971728169E-03 -0.11792092207E-01  0.23305940344E-01  0.00000000000E+00 0.  1.
     999901    1    3    3    0    0 -0.82315401657E-01 -0.61241358662E-01 -0.44598785793E-01  0.88708251085E+00  0.88000000000E+00 0. -1.
        -11    1    4    4    0    0  0.27213991876E-01  0.15132187736E-01  0.51117705981E-02  0.31559083940E-01  0.51100000000E-03 0. -1.
         11    1    4    4    0    0  0.75203625690E-01  0.45989453644E-01  0.51279107402E-01  0.10198246487E+00  0.51100000000E-03 0.  1.
</event>
<event>
 8    1  0.1088270E+005  0.1043930E+01  0.7957747E-01            NaN
         13   -1    0    0    0    0  0.00000000000E+00  0.00000000000E+00  0.74505805969E-08  0.10566000000E+00  0.10566000000E+00 0. -1.
     999900   -1    0    0    0    0 -0.00000000000E+00 -0.00000000000E+00 -0.74505805969E-08  0.93827000000E+00  0.93827000000E+00 0.  1.
     999902    2    1    2    0    0  0.42987955526E-02 -0.18795456723E-01  0.13903247745E-01  0.10201592378E+01  0.10198822586E+01 0.  0.
     999903    2    3    3    0    0  0.62466873780E-01 -0.13742714028E-01  0.11443075846E+00  0.13251356756E+00  0.19351346083E-01 0.  0.
         14    1    1    2    0    0 -0.42987955526E-02  0.18795456723E-01 -0.13903247745E-01  0.23770762177E-01  0.00000000000E+00 0.  1.
     999901    1    3    3    0    0 -0.58168078228E-01 -0.50527426951E-02 -0.10052751072E+00  0.88764567027E+00  0.88000000000E+00 0.  1.
        -11    1    4    4    0    0  0.49290231312E-01 -0.22704339439E-02  0.84310594281E-01  0.97689401688E-01  0.51100000000E-03 0. -1.
         11    1    4    4    0    0  0.13176642469E-01 -0.11472280084E-01  0.30120164182E-01  0.34824165868E-01  0.51100000000E-03 0.  1.
</event>
<event>
 8    1  0.1088270E+005  0.1043930E+01  0.7957747E-01            NaN
         13   -1    0    0    0    0  0.00000000000E+00  0.00000000000E+00  0.74505805969E-08  0.10566000000E+00  0.10566000000E+00 0. -1.
     999900   -1    0    0    0    0 -0.00000000000E+00 -0.00000000000E+00 -0.74505805969E-08  0.93827000000E+00  0.93827000000E+00 0. -1.
     999902    2    1    2    0    0  0.18100628102E-01 -0.54848856218E-02  0.13485259574E-01  0.10207013768E+01  0.10204370298E+01 0.  0.
     999903    2    3    3    0    0 -0.34526524282E-01  0.41552173243E-01 -0.11496814241E+00  0.12857897574E+00  0.19905156398E-01 0.  0.
         14    1    1    2    0    0 -0.18100628102E-01  0.54848856218E-02 -0.13485259574E-01  0.23228623156E-01  0.00000000000E+00 0.  1.
     999901    1    3    3    0    0  0.52627152384E-01 -0.47037058865E-01  0.12845340199E+00  0.89212240111E+00  0.88000000000E+00 0.  1.
        -11    1    4    4    0    0 -0.15652228425E-01  0.32289032499E-01 -0.62786442022E-01  0.72318547395E-01  0.51100000000E-03 0. -1.
         11    1    4    4    0    0 -0.18874295857E-01  0.92631407440E-02 -0.52181700391E-01  0.56260428342E-01  0.51100000000E-03 0.  1.
</event>
<event>
 8    1  0.1088270E+005  0.1043930E+01  0.7957747E-01            NaN
         13   -1    0    0    0    0  0.00000000000E+00  0.00000000000E+00  0.74505805969E-08  0.10566000000E+00  0.10566000000E+00 0.  1.
     999900   -1    0    0    0    0 -0.00000000000E+00 -0.00000000000E+00 -0.74505805969E-08  0.93827000000E+00  0.93827000000E+00 0.  1.
     999902    2    1    2    0    0 -0.87165411915E-02  0.16051580113E-03  0.22531375548E-01  0.10197708042E+01  0.10194845886E+01 0.  0.
     999903    2    3    3    0    0 -0.29085326144E-01  0.12277751258E+00 -0.22302360970E-01  0.12990571377E+00  0.21396854295E-01 0.  0.
         14    1    1    2    0    0  0.87165411915E-02 -0.16051580113E-03 -0.22531375548E-01  0.24159195760E-01  0.00000000000E+00 0.  1.
     999901    1    3    3    0    0  0.20368784952E-01 -0.12261699678E+00  0.44833736518E-01  0.88986509047E+00  0.88000000000E+00 0. -1.
        -11    1    4    4    0    0 -0.21131552375E-01  0.86176601342E-01 -0.56453601324E-02  0.88910518707E-01  0.51100000000E-03 0. -1.
         11    1    4    4    0    0 -0.79537737685E-02  0.36600911240E-01 -0.16657000837E-01  0.40995195068E-01  0.51100000000E-03 0.  1.
</event>
<event>
 8    1  0.1088270E+005  0.1043930E+01  0.7957747E-01            NaN
         13   -1    0    0    0    0  0.00000000000E+00  0.00000000000E+00  0.74505805969E-08  0.10566000000E+00  0.10566000000E+00 0. -1.
     999900   -1    0    0    0    0 -0.00000000000E+00 -0.00000000000E+00 -0.74505805969E-08  0.93827000000E+00  0.93827000000E+00 0.  1.
     999902    2    1    2    0    0  0.10661919681E-01  0.18532044057E-01  0.10103612789E-01  0.10202826708E+01  0.10200085941E+01 0.  0.
     999903    2    3    3    0    0 -0.12659626313E-01  0.12712740430E+00  0.30660171071E-01  0.13306261979E+00  0.21070634366E-01 0.  0.
         14    1    1    2    0    0 -0.10661919681E-01 -0.18532044057E-01 -0.10103612789E-01  0.23647329228E-01  0.00000000000E+00 0.  1.
     999901    1    3    3    0    0  0.23321545994E-01 -0.10859536024E+00 -0.20556558282E-01  0.88722005098E+00  0.88000000000E+00 0.  1.
        -11    1    4    4    0    0 -0.11999711813E-01  0.71833099031E-01  0.26882193799E-01  0.77633115771E-01  0.51100000000E-03 0. -1.
         11    1    4    4    0    0 -0.65991449985E-03  0.55294305271E-01  0.37779772722E-02  0.55429504020E-01  0.51100000000E-03 0.  1.
</event>
<event>
 8    1  0.1088270E+005  0.1043930E+01  0.7957747E-01            NaN
         13   -1    0    0    0    0  0.00000000000E+00  0.00000000000E+00  0.74505805969E-08  0.10566000000E+00  0.10566000000E+00 0.  1.
     999900   -1    0    0    0    0 -0.00000000000E+00 -0.00000000000E+00 -0.74505805969E-08  0.93827000000E+00  0.93827000000E+00 0.  1.
     999902    2    1    2    0    0 -0.12657346658E-01 -0.20511600944E-01 -0.12499828885E-02  0.10197950325E+01  0.10195093976E+01 0.  0.
     999903    2    3    3    0    0 -0.38915349396E-01  0.51068040876E-02  0.12309425940E+00  0.13029670427E+00  0.16868627067E-01 0.  0.
         14    1    1    2    0    0  0.12657346658E-01  0.20511600944E-01  0.12499828885E-02  0.24134967473E-01  0.00000000000E+00 0. -1.
     999901    1    3    3    0    0  0.26258002738E-01 -0.25618405032E-01 -0.12434424229E+00  0.88949832826E+00  0.88000000000E+00 0.  1.
        -11    1    4    4    0    0 -0.30339375376E-01  0.45879400119E-02  0.68929576977E-01  0.75452465798E-01  0.51100000000E-03 0. -1.
         11    1    4    4    0    0 -0.85759740204E-02  0.51886407574E-03  0.54164682424E-01  0.54844238471E-01  0.51100000000E-03 0.  1.
</event>
<event>
 8    1  0.1088270E+005  0.1043930E+01  0.7957747E-01            NaN
         13   -1    0    0    0    0  0.00000000000E+00  0.00000000000E+00  0.74505805969E-08  0.10566000000E+00  0.10566000000E+00 0. -1.
     999900   -1    0    0    0    0 -0.00000000000E+00 -0.00000000000E+00 -0.74505805969E-08  0.93827000000E+00  0.93827000000E+00 0. -1.
     999902    2    1    2    0    0  0.24064271985E-01  0.49820300799E-02 -0.82691279322E-02  0.10180014774E+01  0.10176712237E+01 0.  0.
     999903    2    3    3    0    0  0.97648238736E-01  0.74914568326E-01  0.39654706836E-01  0.13087022776E+00  0.20177949933E-01 0.  0.
         14    1    1    2    0    0 -0.24064271985E-01 -0.49820300799E-02  0.82691279322E-02  0.25928522647E-01  0.00000000000E+00 0. -1.
     999901    1    3    3    0    0 -0.73583966751E-01 -0.69932538246E-01 -0.47923834769E-01  0.88713124959E+00  0.88000000000E+00 0. -1.
        -11    1    4    4    0    0  0.62522244259E-01  0.56468721792E-01  0.33736358218E-01  0.90753239914E-01  0.51100000000E-03 0. -1.
         11    1    4    4    0    0  0.35125994477E-01  0.18445846534E-01  0.59183486180E-02  0.40116987845E-01  0.51100000000E-03 0.  1.
</event>
<event>
 8    1  0.1088270E+005  0.1043930E+01  0.7957747E-01            NaN
         13   -1    0    0    0    0  0.00000000000E+00  0.00000000000E+00  0.74505805969E-08  0.10566000000E+00  0.10566000000E+00 0. -1.
     999900   -1    0    0    0    0 -0.00000000000E+00 -0.00000000000E+00 -0.74505805969E-08  0.93827000000E+00  0.93827000000E+00 0.  1.
     999902    2    1    2    0    0 -0.13274791867E-01 -0.18440057174E-01 -0.33533357269E-02  0.10209626173E+01  0.10207042496E+01 0.  0.
     999903    2    3    3    0    0 -0.10438872395E+00 -0.29464470738E-01 -0.74632468499E-01  0.13332305020E+00  0.20973069288E-01 0.  0.
         14    1    1    2    0    0  0.13274791867E-01  0.18440057174E-01  0.33533357269E-02  0.22967382702E-01  0.00000000000E+00 0. -1.
     999901    1    3    3    0    0  0.91113932085E-01  0.11024413563E-01  0.71279132772E-01  0.88763956710E+00  0.88000000000E+00 0. -1.
        -11    1    4    4    0    0 -0.63693467513E-01 -0.18891951554E-01 -0.33124264257E-01  0.74237737310E-01  0.51100000000E-03 0. -1.
         11    1    4    4    0    0 -0.40695256439E-01 -0.10572519183E-01 -0.41508204242E-01  0.59085312887E-01  0.51100000000E-03 0.  1.
</event>
<event>
 8    1  0.1088270E+005  0.1043930E+01  0.7957747E-01            NaN
         13   -1    0    0    0    0  0.00000000000E+00  0.00000000000E+00  0.74505805969E-08  0.10566000000E+00  0.10566000000E+00 0.  1.
     999900   -1    0    0    0    0 -0.00000000000E+00 -0.00000000000E+00 -0.74505805969E-08  0.93827000000E+00  0.93827000000E+00 0. -1.
     999902    2    1    2    0    0  0.39495331038E-02 -0.11863061814E-01  0.20187815343E-01  0.10201838648E+01  0.10199074660E+01 0.  0.
     999903    2    3    3    0    0  0.21719078400E-01  0.95429311005E-01 -0.80037852529E-01  0.12784278962E+00  0.18953871746E-01 0.  0.
         14    1    1    2    0    0 -0.39495331038E-02  0.11863061814E-01 -0.20187815343E-01  0.23746135173E-01  0.00000000000E+00 0. -1.
     999901    1    3    3    0    0 -0.17769545296E-01 -0.10729237282E+00  0.10022566787E+00  0.89234107521E+00  0.88000000000E+00 0.  1.
        -11    1    4    4    0    0  0.10869341187E-01  0.15312859460E-01 -0.16754765872E-01  0.25171601918E-01  0.51100000000E-03 0. -1.
         11    1    4    4    0    0  0.10849737213E-01  0.80116451545E-01 -0.63283086657E-01  0.10267118770E+00  0.51100000000E-03 0.  1.
</event>
<event>
 8    1  0.1088270E+005  0.1043930E+01  0.7957747E-01            NaN
         13   -1    0    0    0    0  0.00000000000E+00  0.00000000000E+00  0.74505805969E-08  0.10566000000E+00  0.10566000000E+00 0. -1.
     999900   -1    0    0    0    0 -0.00000000000E+00 -0.00000000000E+00 -0.74505805969E-08  0.93827000000E+00  0.93827000000E+00 0.  1.
     999902    2    1    2    0    0  0.16400216205E-01 -0.84910823978E-02 -0.15623712978E-01  0.10197397958E+01  0.10194528362E+01 0.  0.
     999903    2    3    3    0    0  0.47665290382E-01 -0.68105607480E-01 -0.10156549072E+00  0.13299440640E+00  0.21485100699E-01 0.  0.
         14    1    1    2    0    0 -0.16400216205E-01  0.84910823978E-02  0.15623712978E-01  0.24190204197E-01  0.00000000000E+00 0.  1.
     999901    1    3    3    0    0 -0.31265074177E-01  0.59614525083E-01  0.85941777738E-01  0.88674538940E+00  0.88000000000E+00 0. -1.
        -11    1    4    4    0    0  0.31981290354E-01 -0.41870559434E-01 -0.79162718542E-01  0.95094394198E-01  0.51100000000E-03 0.  1.
         11    1    4    4    0    0  0.15684000028E-01 -0.26235048046E-01 -0.22402772175E-01  0.37900012203E-01  0.51100000000E-03 0. -1.
</event>
<event>
 7    1  0.1088270E+005  0.1043930E+01  0.7957747E-01            NaN
         13   -1    0    0    0    0  0.00000000000E+00  0.00000000000E+00  0.74505805969E-08  0.10566000000E+00  0.10566000000E+00 0.  1.
     999900   -1    0    0    0    0 -0.00000000000E+00 -0.00000000000E+00 -0.74505805969E-08  0.93827000000E+00  0.93827000000E+00 0. -1.
     999903    2    1    2    0    0 -0.40313579167E-01 -0.52753892311E-01 -0.65197739756E-01  0.94786309714E-01  0.18042766432E-01 0.  0.
         14    1    1    2    0    0  0.38279598976E-01  0.19141621180E-01  0.53381831677E-01  0.68420386672E-01  0.00000000000E+00 0.  1.
     999901    1    1    2    0    0  0.20339801912E-02  0.33612271131E-01  0.11815908079E-01  0.88072330361E+00  0.88000000000E+00 0. -1.
        -11    1    3    3    0    0 -0.22542682810E-01 -0.29913048097E-01 -0.48800824640E-01  0.61520277968E-01  0.51100000000E-03 0.  1.
         11    1    3    3    0    0 -0.17770896357E-01 -0.22840844214E-01 -0.16396915116E-01  0.33266031745E-01  0.51100000000E-03 0. -1.
</event>
<event>
 8    1  0.1088270E+005  0.1043930E+01  0.7957747E-01            NaN
         13   -1    0    0    0    0  0.00000000000E+00  0.00000000000E+00  0.74505805969E-08  0.10566000000E+00  0.10566000000E+00 0.  1.
     999900   -1    0    0    0    0 -0.00000000000E+00 -0.00000000000E+00 -0.74505805969E-08  0.93827000000E+00  0.93827000000E+00 0. -1.
     999902    2    1    2    0    0 -0.23148762933E-02  0.22214893313E-01  0.49480989055E-02  0.10210532909E+01  0.10207969823E+01 0.  0.
     999903    2    3    3    0    0  0.68586612519E-01  0.76361632939E-01  0.82319089073E-01  0.13316525704E+00  0.20526345374E-01 0.  0.
         14    1    1    2    0    0  0.23148762933E-02 -0.22214893313E-01 -0.49480989055E-02  0.22876709115E-01  0.00000000000E+00 0.  1.
     999901    1    3    3    0    0 -0.70901488812E-01 -0.54146739626E-01 -0.77370990167E-01  0.88788803385E+00  0.88000000000E+00 0. -1.
        -11    1    4    4    0    0  0.62663572317E-01  0.58377265633E-01  0.65261604488E-01  0.10767528305E+00  0.51100000000E-03 0. -1.
         11    1    4    4    0    0  0.59230402024E-02  0.17984367306E-01  0.17057484585E-01  0.25489973990E-01  0.51100000000E-03 0.  1.
</event>
<event>
 8    1  0.1088270E+005  0.1043930E+01  0.7957747E-01            NaN
         13   -1    0    0    0    0  0.00000000000E+00  0.00000000000E+00  0.74505805969E-08  0.10566000000E+00  0.10566000000E+00 0. -1.
     999900   -1    0    0    0    0 -0.00000000000E+00 -0.00000000000E+00 -0.74505805969E-08  0.93827000000E+00  0.93827000000E+00 0.  1.
     999902    2    1    2    0    0 -0.21999339972E-01 -0.68634663351E-02 -0.46518137136E-02  0.10204200553E+01  0.10201491909E+01 0.  0.
     999903    2    3    3    0    0 -0.87761720752E-01 -0.77804180558E-02  0.96389306906E-01  0.13220001522E+00  0.20574037143E-01 0.  0.
         14    1    1    2    0    0  0.21999339972E-01  0.68634663351E-02  0.46518137136E-02  0.23509944708E-01  0.00000000000E+00 0. -1.
     999901    1    3    3    0    0  0.65762380780E-01  0.91695172068E-03 -0.10104112062E+00  0.88822004007E+00  0.88000000000E+00 0.  1.
        -11    1    4    4    0    0 -0.28870046983E-01 -0.60836205225E-02  0.46112927703E-01  0.54746262647E-01  0.51100000000E-03 0. -1.
         11    1    4    4    0    0 -0.58891673769E-01 -0.16967975333E-02  0.50276379202E-01  0.77453752574E-01  0.51100000000E-03 0.  1.
</event>
<event>
 8    1  0.1088270E+005  0.1043930E+01  0.7957747E-01            NaN
         13   -1    0    0    0    0  0.00000000000E+00  0.00000000000E+00  0.74505805969E-08  0.10566000000E+00  0.10566000000E+00 0.  1.
     999900   -1    0    0    0    0 -0.00000000000E+00 -0.00000000000E+00 -0.74505805969E-08  0.93827000000E+00  0.93827000000E+00 0.  1.
     999902    2    1    2    0    0  0.14358905335E-01 -0.20559873999E-02 -0.18421383575E-01  0.10204831960E+01  0.10202138014E+01 0.  0.
     999903    2    3    3    0    0  0.41290895160E-02 -0.12942311398E+00 -0.77773862978E-02  0.13119115803E+00  0.19576526582E-01 0.  0.
         14    1    1    2    0    0 -0.14358905335E-01  0.20559873999E-02  0.18421383575E-01  0.23446804034E-01  0.00000000000E+00 0.  1.
     999901    1    3    3    0    0  0.10229815819E-01  0.12736712658E+00 -0.10643997277E-01  0.88929203794E+00  0.88000000000E+00 0.  1.
        -11    1    4    4    0    0  0.35579461377E-02 -0.11986817999E+00 -0.18802266958E-02  0.11993679973E+00  0.51100000000E-03 0. -1.
         11    1    4    4    0    0  0.57114337829E-03 -0.95549339915E-02 -0.58971596020E-02  0.11254358299E-01  0.51100000000E-03 0.  1.
</event>
<event>
 8    1  0.1088270E+005  0.1043930E+01  0.7957747E-01            NaN
         13   -1    0    0    0    0  0.00000000000E+00  0.00000000000E+00  0.74505805969E-08  0.10566000000E+00  0.10566000000E+00 0. -1.
     999900   -1    0    0    0    0 -0.00000000000E+00 -0.00000000000E+00 -0.74505805969E-08  0.93827000000E+00  0.93827000000E+00 0.  1.
     999902    2    1    2    0    0  0.61891236718E-02  0.81761253529E-02  0.21146450736E-01  0.10204283691E+01  0.10201576985E+01 0.  0.
     999903    2    3    3    0    0  0.56879074365E-01 -0.10502522863E+00  0.50279688582E-01  0.13125304148E+00  0.20827531402E-01 0.  0.
         14    1    1    2    0    0 -0.61891236718E-02 -0.81761253529E-02 -0.21146450736E-01  0.23501630930E-01  0.00000000000E+00 0.  1.
     999901    1    3    3    0    0 -0.50689950694E-01  0.11320135399E+00 -0.29133237845E-01  0.88917532759E+00  0.88000000000E+00 0. -1.
        -11    1    4    4    0    0  0.25028689720E-01 -0.32958873421E-01  0.92151540444E-02  0.42401684299E-01  0.51100000000E-03 0. -1.
         11    1    4    4    0    0  0.31850384645E-01 -0.72066355211E-01  0.41064534537E-01  0.88851357183E-01  0.51100000000E-03 0.  1.
</event>
<event>
 8    1  0.1088270E+005  0.1043930E+01  0.7957747E-01            NaN
         13   -1    0    0    0    0  0.00000000000E+00  0.00000000000E+00  0.74505805969E-08  0.10566000000E+00  0.10566000000E+00 0. -1.
     999900   -1    0    0    0    0 -0.00000000000E+00 -0.00000000000E+00 -0.74505805969E-08  0.93827000000E+00  0.93827000000E+00 0. -1.
     999902    2    1    2    0    0  0.10260254219E-01 -0.70435248065E-02  0.20750961900E-01  0.10197331721E+01  0.10194460535E+01 0.  0.
     999903    2    3    3    0    0 -0.42512172743E-01 -0.10770009026E+00 -0.55083532176E-01  0.12918977416E+00  0.15786321828E-01 0.  0.
         14    1    1    2    0    0 -0.10260254219E-01  0.70435248065E-02 -0.20750961900E-01  0.24196827853E-01  0.00000000000E+00 0.  1.
     999901    1    3    3    0    0  0.52772426962E-01  0.10065656545E+00  0.75834494077E-01  0.89054339799E+00  0.88000000000E+00 0.  1.
        -11    1    4    4    0    0 -0.11934257652E-01 -0.48998254158E-01 -0.19784374035E-01  0.54175068003E-01  0.51100000000E-03 0.  1.
         11    1    4    4    0    0 -0.30577915091E-01 -0.58701836098E-01 -0.35299158141E-01  0.75014706152E-01  0.51100000000E-03 0. -1.
</event>
<event>
 8    1  0.1088270E+005  0.1043930E+01  0.7957747E-01            NaN
         13   -1    0    0    0    0  0.00000000000E+00  0.00000000000E+00  0.74505805969E-08  0.10566000000E+00  0.10566000000E+00 0.  1.
     999900   -1    0    0    0    0 -0.00000000000E+00 -0.00000000000E+00 -0.74505805969E-08  0.93827000000E+00  0.93827000000E+00 0.  1.
     999902    2    1    2    0    0  0.74373539040E-02 -0.15659636377E-01 -0.11087322872E-01  0.10233516820E+01  0.10231447590E+01 0.  0.
     999903    2    3    3    0    0  0.10324288943E+00  0.76733731696E-01  0.25005683741E-01  0.13261157384E+00  0.20331883831E-01 0.  0.
         14    1    1    2    0    0 -0.74373539040E-02  0.15659636377E-01  0.11087322872E-01  0.20578318032E-01  0.00000000000E+00 0.  1.
     999901    1    3    3    0    0 -0.95805535522E-01 -0.92393368073E-01 -0.36093006613E-01  0.89074010813E+00  0.88000000000E+00 0. -1.
        -11    1    4    4    0    0  0.74408833928E-01  0.43370389203E-01  0.15952720595E-01  0.87592326385E-01  0.51100000000E-03 0. -1.
         11    1    4    4    0    0  0.28834055498E-01  0.33363342492E-01  0.90529631455E-02  0.45019247456E-01  0.51100000000E-03 0.  1.
</event>
<event>
 8    1  0.1088270E+005  0.1043930E+01  0.7957747E-01            NaN
         13   -1    0    0    0    0  0.00000000000E+00  0.00000000000E+00  0.74505805969E-08  0.10566000000E+00  0.10566000000E+00 0. -1.
     999900   -1    0    0    0    0 -0.00000000000E+00 -0.00000000000E+00 -0.74505805969E-08  0.93827000000E+00  0.93827000000E+00 0.  1.
     999902    2    1    2    0    0  0.83646039774E-02 -0.96539463381E-02  0.19808846659E-01  0.10203597712E+01  0.10200874997E+01 0.  0.
     999903    2    3    3    0    0 -0.44852105886E-01  0.74072723041E-01  0.97000417501E-01  0.13142742733E+00  0.19120877543E-01 0.  0.
         14    1    1    2    0    0 -0.83646039774E-02  0.96539463381E-02 -0.19808846659E-01  0.23570228797E-01  0.00000000000E+00 0.  1.
     999901    1    3    3    0    0  0.53216709864E-01 -0.83726669379E-01 -0.77191570842E-01  0.88893234387E+00  0.88000000000E+00 0.  1.
        -11    1    4    4    0    0 -0.14298671310E-02  0.13132742424E-01  0.94202752474E-02  0.16233180537E-01  0.51100000000E-03 0. -1.
         11    1    4    4    0    0 -0.43422238755E-01  0.60939980617E-01  0.87580142254E-01  0.11519424679E+00  0.51100000000E-03 0.  1.
</event>
<event>
 8    1  0.1088270E+005  0.1043930E+01  0.7957747E-01            NaN
         13   -1    0    0    0    0  0.00000000000E+00  0.00000000000E+00  0.74505805969E-08  0.10566000000E+00  0.10566000000E+00 0.  1.
     999900   -1    0    0    0    0 -0.00000000000E+00 -0.00000000000E+00 -0.74505805969E-08  0.93827000000E+00  0.93827000000E+00 0. -1.
     999902    2    1    2    0    0 -0.12765784305E-01  0.45800811157E-02  0.14863598475E-01  0.10238086444E+01  0.10236108984E+01 0.  0.
     999903    2    3    3    0    0 -0.53041807935E-01 -0.10765760827E+00 -0.54242039086E-01  0.13308138752E+00  0.19101384553E-01 0.  0.
         14    1    1    2    0    0  0.12765784305E-01 -0.45800811157E-02 -0.14863598475E-01  0.20121355610E-01  0.00000000000E+00 0.  1.
     999901    1    3    3    0    0  0.40276023630E-01  0.11223768938E+00  0.69105637561E-01  0.89072725688E+00  0.88000000000E+00 0.  1.
        -11    1    4    4    0    0 -0.20538996416E-01 -0.44684199703E-01 -0.12167033562E-01  0.50663852040E-01  0.51100000000E-03 0. -1.
         11    1    4    4    0    0 -0.32502811519E-01 -0.62973408565E-01 -0.42075005524E-01  0.82417535475E-01  0.51100000000E-03 0.  1.
</event>
<event>
 8    1  0.1088270E+005  0.1043930E+01  0.7957747E-01            NaN
         13   -1    0    0    0    0  0.00000000000E+00  0.00000000000E+00  0.74505805969E-08  0.10566000000E+00  0.10566000000E+00 0.  1.
     999900   -1    0    0    0    0 -0.00000000000E+00 -0.00000000000E+00 -0.74505805969E-08  0.93827000000E+00  0.93827000000E+00 0.  1.
     999902    2    1    2    0    0 -0.10784377501E-01 -0.12913455389E-01  0.16458806793E-01  0.10203938055E+01  0.10201223289E+01 0.  0.
     999903    2    3    3    0    0 -0.11521540948E+00  0.58424541138E-01  0.12490604972E-01  0.13134335883E+00  0.20175358913E-01 0.  0.
         14    1    1    2    0    0  0.10784377501E-01  0.12913455389E-01 -0.16458806793E-01  0.23536194451E-01  0.00000000000E+00 0. -1.
     999901    1    3    3    0    0  0.10443103198E+00 -0.71337996528E-01  0.39682018213E-02  0.88905044672E+00  0.88000000000E+00 0.  1.
        -11    1    4    4    0    0 -0.80321595599E-01  0.45859598947E-01  0.94631051950E-03  0.92497665699E-01  0.51100000000E-03 0. -1.
         11    1    4    4    0    0 -0.34893813879E-01  0.12564942192E-01  0.11544294452E-01  0.38845693130E-01  0.51100000000E-03 0.  1.
</event>
<event>
 8    1  0.1088270E+005  0.1043930E+01  0.7957747E-01            NaN
         13   -1    0    0    0    0  0.00000000000E+00  0.00000000000E+00  0.74505805969E-08  0.10566000000E+00  0.10566000000E+00 0.  1.
     999900   -1    0    0    0    0 -0.00000000000E+00 -0.00000000000E+00 -0.74505805969E-08  0.93827000000E+00  0.93827000000E+00 0.  1.
     999902    2    1    2    0    0  0.11218934902E-01  0.19481414639E-01 -0.59862525447E-02  0.10206657520E+01  0.10204005841E+01 0.  0.
     999903    2    3    3    0    0 -0.91795957511E-02  0.12790634478E+00  0.29144146601E-01  0.13308127122E+00  0.20419242277E-01 0.  0.
         14    1    1    2    0    0 -0.11218934902E-01 -0.19481414639E-01  0.59862525447E-02  0.23264248026E-01  0.00000000000E+00 0.  1.
     999901    1    3    3    0    0  0.20398530653E-01 -0.10842493014E+00 -0.35130399145E-01  0.88758448075E+00  0.88000000000E+00 0.  1.
        -11    1    4    4    0    0 -0.90656995859E-02  0.10851312194E+00  0.17047681518E-01  0.11021873302E+00  0.51100000000E-03 0.  1.
         11    1    4    4    0    0 -0.11389616525E-03  0.19393222839E-01  0.12096465083E-01  0.22862538199E-01  0.51100000000E-03 0. -1.
</event>
<event>
 8    1  0.1088270E+005  0.1043930E+01  0.7957747E-01            NaN
         13   -1    0    0    0    0  0.00000000000E+00  0.00000000000E+00  0.74505805969E-08  0.10566000000E+00  0.10566000000E+00 0.  1.
     999900   -1    0    0    0    0 -0.00000000000E+00 -0.00000000000E+00 -0.74505805969E-08  0.93827000000E+00  0.93827000000E+00 0. -1.
     999902    2    1    2    0    0 -0.20855405640E-01  0.65487439852E-03  0.10647103205E-01  0.10205048509E+01  0.10202359595E+01 0.  0.
     999903    2    3    3    0    0 -0.13025560245E+00 -0.20723782327E-01 -0.25589063227E-03  0.13340602588E+00  0.20027609410E-01 0.  0.
         14    1    1    2    0    0  0.20855405640E-01 -0.65487439852E-03 -0.10647103205E-01  0.23425149125E-01  0.00000000000E+00 0.  1.
     999901    1    3    3    0    0  0.10940019681E+00  0.21378656726E-01  0.10902993837E-01  0.88709882499E+00  0.88000000000E+00 0. -1.
        -11    1    4    4    0    0 -0.80033152864E-01 -0.15488498855E-01  0.91796004371E-02  0.82034903178E-01  0.51100000000E-03 0.  1.
         11    1    4    4    0    0 -0.50222449585E-01 -0.52352834723E-02 -0.94354910694E-02  0.51371122706E-01  0.51100000000E-03 0. -1.
</event>
<event>
 8    1  0.1088270E+005  0.1043930E+01  0.7957747E-01            NaN
         13   -1    0    0    0    0  0.00000000000E+00  0.00000000000E+00  0.74505805969E-08  0.10566000000E+00  0.10566000000E+00 0.  1.
     999900   -1    0    0    0    0 -0.00000000000E+00 -0.00000000000E+00 -0.74505805969E-08  0.93827000000E+00  0.93827000000E+00 0.  1.
     999902    2    1    2    0    0 -0.22205742344E-01  0.43058429120E-02 -0.68461324555E-02  0.10202972937E+01  0.10200235599E+01 0.  0.
     999903    2    3    3    0    0 -0.10786625015E+00 -0.22327428458E-01  0.70830345925E-01  0.13233294251E+00  0.19011254190E-01 0.  0.
         14    1    1    2    0    0  0.22205742344E-01 -0.43058429120E-02  0.68461324555E-02  0.23632706274E-01  0.00000000000E+00 0. -1.
     999901    1    3    3    0    0  0.85660507806E-01  0.26633271370E-01 -0.77676478381E-01  0.88796435122E+00  0.88000000000E+00 0.  1.
        -11    1    4    4    0    0 -0.39994720708E-01 -0.17244987989E-01  0.24201886933E-01  0.49829306110E-01  0.51100000000E-03 0.  1.
         11    1    4    4    0    0 -0.67871529442E-01 -0.50824404694E-02  0.46628458992E-01  0.82503636398E-01  0.51100000000E-03 0. -1.
</event>
<event>
 8    1  0.1088270E+005  0.1043930E+01  0.7957747E-01            NaN
         13   -1    0    0    0    0  0.00000000000E+00  0.00000000000E+00  0.74505805969E-08  0.10566000000E+00  0.10566000000E+00 0.  1.
     999900   -1    0    0    0    0 -0.00000000000E+00 -0.00000000000E+00 -0.74505805969E-08  0.93827000000E+00  0.93827000000E+00 0. -1.
     999902    2    1    2    0    0  0.35370377693E-02 -0.21188634960E-01  0.61307307448E-02  0.10215904667E+01  0.10213461837E+01 0.  0.
     999903    2    3    3    0    0  0.10764128713E+00 -0.39170206064E-03 -0.73307248052E-01  0.13165754811E+00  0.19312100658E-01 0.  0.
         14    1    1    2    0    0 -0.35370377693E-02  0.21188634960E-01 -0.61307307448E-02  0.22339533279E-01  0.00000000000E+00 0. -1.
     999901    1    3    3    0    0 -0.10410424936E+00 -0.20796932899E-01  0.79437978796E-01  0.88993291861E+00  0.88000000000E+00 0.  1.
        -11    1    4    4    0    0  0.77273720290E-01  0.63108209693E-02 -0.45258756800E-01  0.89775667621E-01  0.51100000000E-03 0. -1.
         11    1    4    4    0    0  0.30367566840E-01 -0.67025230299E-02 -0.28048491251E-01  0.41881880488E-01  0.51100000000E-03 0.  1.
</event>
<event>
 8    1  0.1088270E+005  0.1043930E+01  0.7957747E-01            NaN
         13   -1    0    0    0    0  0.00000000000E+00  0.00000000000E+00  0.74505805969E-08  0.10566000000E+00  0.10566000000E+00 0. -1.
     999900   -1    0    0    0    0 -0.00000000000E+00 -0.00000000000E+00 -0.74505805969E-08  0.93827000000E+00  0.93827000000E+00 0. -1.
     999902    2    1    2    0    0  0.42704846598E-02  0.11372042491E-01  0.21849602653E-01  0.10189306895E+01  0.10186239662E+01 0.  0.
     999903    2    3    3    0    0  0.18887187096E-01 -0.63131181922E-01 -0.10596907919E+00  0.12646108561E+00  0.20510691382E-01 0.  0.
         14    1    1    2    0    0 -0.42704846598E-02 -0.11372042491E-01 -0.21849602653E-01  0.24999310505E-01  0.00000000000E+00 0.  1.
     999901    1    3    3    0    0 -0.14616702436E-01  0.74503224413E-01  0.12781868184E+00  0.89246960389E+00  0.88000000000E+00 0.  1.
        -11    1    4    4    0    0  0.16941799763E-01 -0.28570847950E-01 -0.63545870267E-01  0.71705346250E-01  0.51100000000E-03 0. -1.
         11    1    4    4    0    0  0.19453873329E-02 -0.34560333972E-01 -0.42423208922E-01  0.54755739356E-01  0.51100000000E-03 0.  1.
</event>
<event>
 8    1  0.1088270E+005  0.1043930E+01  0.7957747E-01            NaN
         13   -1    0    0    0    0  0.00000000000E+00  0.00000000000E+00  0.74505805969E-08  0.10566000000E+00  0.10566000000E+00 0.  1.
     999900   -1    0    0    0    0 -0.00000000000E+00 -0.00000000000E+00 -0.74505805969E-08  0.93827000000E+00  0.93827000000E+00 0.  1.
     999902    2    1    2    0    0  0.22829478471E-01  0.69347320962E-02  0.49198152651E-02  0.10195685514E+01  0.10192774651E+01 0.  0.
     999903    2    3    3    0    0  0.78199122448E-01 -0.12118788090E-01 -0.10259793522E+00  0.13109294633E+00  0.19926276350E-01 0.  0.
         14    1    1    2    0    0 -0.22829478471E-01 -0.69347320962E-02 -0.49198152651E-02  0.24361448618E-01  0.00000000000E+00 0.  1.
     999901    1    3    3    0    0 -0.55369643977E-01  0.19053520186E-01  0.10751775049E+00  0.88847560505E+00  0.88000000000E+00 0. -1.
        -11    1    4    4    0    0  0.29113389804E-01  0.48034290700E-02 -0.41282350344E-01  0.50745994597E-01  0.51100000000E-03 0. -1.
         11    1    4    4    0    0  0.49085732644E-01 -0.16922217160E-01 -0.61315584877E-01  0.80346951732E-01  0.51100000000E-03 0.  1.
</event>
<event>
 8    1  0.1088270E+005  0.1043930E+01  0.7957747E-01            NaN
         13   -1    0    0    0    0  0.00000000000E+00  0.00000000000E+00  0.74505805969E-08  0.10566000000E+00  0.10566000000E+00 0. -1.
     999900   -1    0    0    0    0 -0.00000000000E+00 -0.00000000000E+00 -0.74505805969E-08  0.93827000000E+00  0.93827000000E+00 0.  1.
     999902    2    1    2    0    0 -0.23514432416E-01 -0.24620498896E-02 -0.13526590909E-02  0.10202483635E+01  0.10199734817E+01 0.  0.
     999903    2    3    3    0    0 -0.21227150505E-01  0.11889741698E+00  0.42157784953E-01  0.13085165189E+00  0.27526138255E-01 0.  0.
         14    1    1    2    0    0  0.23514432416E-01  0.24620498896E-02  0.13526590909E-02  0.23681636517E-01  0.00000000000E+00 0. -1.
     999901    1    3    3    0    0 -0.22872819105E-02 -0.12135946687E+00 -0.43510444044E-01  0.88939671160E+00  0.88000000000E+00 0.  1.
        -11    1    4    4    0    0 -0.12335113541E-01  0.14318934828E-01  0.58085843865E-02  0.19778465417E-01  0.51100000000E-03 0.  1.
         11    1    4    4    0    0 -0.88920369643E-02  0.10457848215E+00  0.36349200566E-01  0.11107318647E+00  0.51100000000E-03 0. -1.
</event>
<event>
 8    1  0.1088270E+005  0.1043930E+01  0.7957747E-01            NaN
         13   -1    0    0    0    0  0.00000000000E+00  0.00000000000E+00  0.74505805969E-08  0.10566000000E+00  0.10566000000E+00 0.  1.
     999900   -1    0    0    0    0 -0.00000000000E+00 -0.00000000000E+00 -0.74505805969E-08  0.93827000000E+00  0.93827000000E+00 0. -1.
     999902    2    1    2    0    0  0.16364029871E-01  0.11114625221E-01  0.13686946372E-01  0.10198748785E+01  0.10195911529E+01 0.  0.
     999903    2    3    3    0    0 -0.49629256756E-01 -0.34785365601E-01  0.11390248181E+00  0.13054643720E+00  0.19887486436E-01 0.  0.
         14    1    1    2    0    0 -0.16364029871E-01 -0.11114625221E-01 -0.13686946372E-01  0.24055121459E-01  0.00000000000E+00 0. -1.
     999901    1    3    3    0    0  0.65993286627E-01  0.45899990822E-01 -0.10021553544E+00  0.88932844134E+00  0.88000000000E+00 0. -1.
        -11    1    4    4    0    0 -0.23882840182E-01 -0.65121347790E-02  0.35097065144E-01  0.42951869078E-01  0.51100000000E-03 0.  1.
         11    1    4    4    0    0 -0.25746416574E-01 -0.28273230822E-01  0.78805416665E-01  0.87594568121E-01  0.51100000000E-03 0. -1.
</event>
<event>
 8    1  0.1088270E+005  0.1043930E+01  0.7957747E-01            NaN
         13   -1    0    0    0    0  0.00000000000E+00  0.00000000000E+00  0.74505805969E-08  0.10566000000E+00  0.10566000000E+00 0. -1.
     999900   -1    0    0    0    0 -0.00000000000E+00 -0.00000000000E+00 -0.74505805969E-08  0.93827000000E+00  0.93827000000E+00 0.  1.
     999902    2    1    2    0    0 -0.11485301947E-01 -0.37282971733E-02 -0.20569210016E-01  0.10200782755E+01  0.10197993839E+01 0.  0.
     999903    2    3    3    0    0  0.82055620688E-01 -0.88872116540E-01 -0.44030155984E-01  0.13072469556E+00  0.22779670933E-01 0.  0.
         14    1    1    2    0    0  0.11485301947E-01  0.37282971733E-02  0.20569210016E-01  0.23851724493E-01  0.00000000000E+00 0. -1.
     999901    1    3    3    0    0 -0.93540922635E-01  0.85143819366E-01  0.23460945969E-01  0.88935357995E+00  0.88000000000E+00 0. -1.
        -11    1    4    4    0    0  0.24836475297E-01 -0.35186138045E-01 -0.58562759863E-02  0.43468056147E-01  0.51100000000E-03 0.  1.
         11    1    4    4    0    0  0.57219145391E-01 -0.53685978494E-01 -0.38173879998E-01  0.87256639411E-01  0.51100000000E-03 0. -1.
</event>
<event>
 8    1  0.1088270E+005  0.1043930E+01  0.7957747E-01            NaN
         13   -1    0    0    0    0  0.00000000000E+00  0.00000000000E+00  0.74505805969E-08  0.10566000000E+00  0.10566000000E+00 0. -1.
     999900   -1    0    0    0    0 -0.00000000000E+00 -0.00000000000E+00 -0.74505805969E-08  0.93827000000E+00  0.93827000000E+00 0.  1.
     999902    2    1    2    0    0 -0.35615086172E-02 -0.21166852093E-01 -0.59043261873E-02  0.10216683505E+01  0.10214257865E+01 0.  0.
     999903    2    3    3    0    0  0.89164442618E-01  0.88681868998E-01 -0.25038958082E-01  0.12979897794E+00  0.20150770105E-01 0.  0.
         14    1    1    2    0    0  0.35615086172E-02  0.21166852093E-01  0.59043261873E-02  0.22261649510E-01  0.00000000000E+00 0. -1.
     999901    1    3    3    0    0 -0.92725951235E-01 -0.10984872109E+00  0.19134631895E-01  0.89186937255E+00  0.88000000000E+00 0.  1.
        -11    1    4    4    0    0  0.22593268676E-01  0.15132913631E-01  0.10628578173E-02  0.27218590194E-01  0.51100000000E-03 0. -1.
         11    1    4    4    0    0  0.66571173942E-01  0.73548955367E-01 -0.26101815900E-01  0.10258038774E+00  0.51100000000E-03 0.  1.
</event>
<event>
 8    1  0.1088270E+005  0.1043930E+01  0.7957747E-01            NaN
         13   -1    0    0    0    0  0.00000000000E+00  0.00000000000E+00  0.74505805969E-08  0.10566000000E+00  0.10566000000E+00 0.  1.
     999900   -1    0    0    0    0 -0.00000000000E+00 -0.00000000000E+00 -0.74505805969E-08  0.93827000000E+00  0.93827000000E+00 0.  1.
     999902    2    1    2    0    0  0.22813208588E-02  0.71872612135E-02  0.22405941677E-01  0.10202892011E+01  0.10200152776E+01 0.  0.
     999903    2    3    3    0    0  0.54721065626E-01  0.54881662935E-01 -0.10087206680E+00  0.12887338898E+00  0.20658765112E-01 0.  0.
         14    1    1    2    0    0 -0.22813208588E-02 -0.71872612135E-02 -0.22405941677E-01  0.23640798867E-01  0.00000000000E+00 0. -1.
     999901    1    3    3    0    0 -0.52439744768E-01 -0.47694401722E-01  0.12327800848E+00  0.89141581216E+00  0.88000000000E+00 0. -1.
        -11    1    4    4    0    0  0.45898504010E-01  0.37176549575E-01 -0.64452236968E-01  0.87424941978E-01  0.51100000000E-03 0.  1.
         11    1    4    4    0    0  0.88225616159E-02  0.17705113360E-01 -0.36419829834E-01  0.41448447000E-01  0.51100000000E-03 0. -1.
</event>
<event>
 8    1  0.1088270E+005  0.1043930E+01  0.7957747E-01            NaN
         13   -1    0    0    0    0  0.00000000000E+00  0.00000000000E+00  0.74505805969E-08  0.10566000000E+00  0.10566000000E+00 0.  1.
     999900   -1    0    0    0    0 -0.00000000000E+00 -0.00000000000E+00 -0.74505805969E-08  0.93827000000E+00  0.93827000000E+00 0.  1.
     999902    2    1    2    0    0  0.37809660568E-02 -0.22269528824E-01 -0.49046804697E-02  0.10208154265E+01  0.10205536985E+01 0.  0.
     999903    2    3    3    0    0  0.11481971974E+00  0.35756917380E-01  0.46239308426E-01  0.13047145875E+00  0.20557303386E-01 0.  0.
         14    1    1    2    0    0 -0.37809660568E-02  0.22269528824E-01  0.49046804697E-02  0.23114573517E-01  0.00000000000E+00 0. -1.
     999901    1    3    3    0    0 -0.11103875368E+00 -0.58026446204E-01 -0.51143988896E-01  0.89034396773E+00  0.88000000000E+00 0. -1.
        -11    1    4    4    0    0  0.32004958023E-01  0.29294450534E-02  0.59053461507E-02  0.32680777539E-01  0.51100000000E-03 0. -1.
         11    1    4    4    0    0  0.82814761718E-01  0.32827472327E-01  0.40333962275E-01  0.97790681211E-01  0.51100000000E-03 0.  1.
</event>
<event>
 8    1  0.1088270E+005  0.1043930E+01  0.7957747E-01            NaN
         13   -1    0    0    0    0  0.00000000000E+00  0.00000000000E+00  0.74505805969E-08  0.10566000000E+00  0.10566000000E+00 0. -1.
     999900   -1    0    0    0    0 -0.00000000000E+00 -0.00000000000E+00 -0.74505805969E-08  0.93827000000E+00  0.93827000000E+00 0. -1.
     999902    2    1    2    0    0  0.15856522267E-01  0.15300864244E-01 -0.95076636489E-02  0.10199312206E+01  0.10196488382E+01 0.  0.
     999903    2    3    3    0    0  0.82095495460E-01  0.78430005093E-01  0.64672202630E-01  0.13208239193E+00  0.19295812794E-01 0.  0.
         14    1    1    2    0    0 -0.15856522267E-01 -0.15300864244E-01  0.95076636489E-02  0.23998779408E-01  0.00000000000E+00 0.  1.
     999901    1    3    3    0    0 -0.66238973194E-01 -0.63129140850E-01 -0.74179866279E-01  0.88784882866E+00  0.88000000000E+00 0. -1.
        -11    1    4    4    0    0  0.41233149820E-01  0.31835550433E-01  0.38638811989E-01  0.64860572217E-01  0.51100000000E-03 0.  1.
         11    1    4    4    0    0  0.40862345640E-01  0.46594454661E-01  0.26033390641E-01  0.67221819714E-01  0.51100000000E-03 0. -1.
</event>
<event>
 8    1  0.1088270E+005  0.1043930E+01  0.7957747E-01            NaN
         13   -1    0    0    0    0  0.00000000000E+00  0.00000000000E+00  0.74505805969E-08  0.10566000000E+00  0.10566000000E+00 0. -1.
     999900   -1    0    0    0    0 -0.00000000000E+00 -0.00000000000E+00 -0.74505805969E-08  0.93827000000E+00  0.93827000000E+00 0.  1.
     999902    2    1    2    0    0  0.58694242470E-02  0.19173157357E-02 -0.23008075865E-01  0.10201077878E+01  0.10198295940E+01 0.  0.
     999903    2    3    3    0    0 -0.23114656447E-01  0.10816125167E+00 -0.69310296419E-01  0.13203586135E+00  0.19909992176E-01 0.  0.
         14    1    1    2    0    0 -0.58694242470E-02 -0.19173157357E-02  0.23008075865E-01  0.23822212233E-01  0.00000000000E+00 0. -1.
     999901    1    3    3    0    0  0.28984080694E-01 -0.10624393593E+00  0.46302220553E-01  0.88807192641E+00  0.88000000000E+00 0. -1.
        -11    1    4    4    0    0 -0.12059881044E-01  0.42907769199E-01 -0.17117089641E-01  0.47746971288E-01  0.51100000000E-03 0.  1.
         11    1    4    4    0    0 -0.11054775403E-01  0.65253482471E-01 -0.52193206778E-01  0.84288890066E-01  0.51100000000E-03 0. -1.
</event>
<event>
 8    1  0.1088270E+005  0.1043930E+01  0.7957747E-01            NaN
         13   -1    0    0    0    0  0.00000000000E+00  0.00000000000E+00  0.74505805969E-08  0.10566000000E+00  0.10566000000E+00 0. -1.
     999900   -1    0    0    0    0 -0.00000000000E+00 -0.00000000000E+00 -0.74505805969E-08  0.93827000000E+00  0.93827000000E+00 0.  1.
     999902    2    1    2    0    0 -0.39846530167E-02  0.22658047101E-01  0.37826259857E-02  0.10206153519E+01  0.10203490205E+01 0.  0.
     999903    2    3    3    0    0  0.69348363391E-01  0.11114803322E+00 -0.11286672534E-01  0.13301448848E+00  0.20059520765E-01 0.  0.
         14    1    1    2    0    0  0.39846530167E-02 -0.22658047101E-01 -0.37826259857E-02  0.23314648130E-01  0.00000000000E+00 0.  1.
     999901    1    3    3    0    0 -0.73333016408E-01 -0.88489986122E-01  0.15069298520E-01  0.88760086339E+00  0.88000000000E+00 0. -1.
        -11    1    4    4    0    0  0.29685037011E-01  0.66363892510E-01 -0.68813554267E-02  0.73027267681E-01  0.51100000000E-03 0.  1.
         11    1    4    4    0    0  0.39663326380E-01  0.44784140713E-01 -0.44053171077E-02  0.59987220796E-01  0.51100000000E-03 0. -1.
</event>
<event>
 8    1  0.1088270E+005  0.1043930E+01  0.7957747E-01            NaN
         13   -1    0    0    0    0  0.00000000000E+00  0.00000000000E+00  0.74505805969E-08  0.10566000000E+00  0.10566000000E+00 0.  1.
     999900   -1    0    0    0    0 -0.00000000000E+00 -0.00000000000E+00 -0.74505805969E-08  0.93827000000E+00  0.93827000000E+00 0.  1.
     999902    2    1    2    0    0 -0.21277231881E-01 -0.95220855027E-02  0.71892775844E-02  0.10195358117E+01  0.10192439330E+01 0.  0.
     999903    2    3    3    0    0  0.61928634709E-01 -0.40449976964E-01 -0.10247307955E+00  0.12829758136E+00  0.22094816526E-01 0.  0.
         14    1    1    2    0    0  0.21277231881E-01  0.95220855027E-02 -0.71892775844E-02  0.24394188263E-01  0.00000000000E+00 0. -1.
     999901    1    3    3    0    0 -0.83205866590E-01  0.30927891462E-01  0.10966235714E+00  0.89123823037E+00  0.88000000000E+00 0. -1.
        -11    1    4    4    0    0  0.22805129467E-01 -0.20905163456E-01 -0.26989758614E-01  0.41058592038E-01  0.51100000000E-03 0.  1.
         11    1    4    4    0    0  0.39123505242E-01 -0.19544813508E-01 -0.75483320940E-01  0.87238989326E-01  0.51100000000E-03 0. -1.
</event>
<event>
 8    1  0.1088270E+005  0.1043930E+01  0.7957747E-01            NaN
         13   -1    0    0    0    0  0.00000000000E+00  0.00000000000E+00  0.74505805969E-08  0.10566000000E+00  0.10566000000E+00 0.  1.
     999900   -1    0    0    0    0 -0.00000000000E+00 -0.00000000000E+00 -0.74505805969E-08  0.93827000000E+00  0.93827000000E+00 0. -1.
     999902    2    1    2    0    0 -0.83614239490E-02 -0.40657395696E-02  0.21980253436E-01  0.10200642256E+01  0.10197850014E+01 0.  0.
     999903    2    3    3    0    0 -0.49923287634E-02 -0.10779831255E+00  0.74029543272E-01  0.13243765651E+00  0.20346008223E-01 0.  0.
         14    1    1    2    0    0  0.83614239490E-02  0.40657395696E-02 -0.21980253436E-01  0.23865774444E-01  0.00000000000E+00 0. -1.
     999901    1    3    3    0    0 -0.33690951855E-02  0.10373257298E+00 -0.52049289836E-01  0.88762656904E+00  0.88000000000E+00 0.  1.
        -11    1    4    4    0    0 -0.31260437944E-03 -0.67418979355E-01  0.34505398921E-01  0.75738366595E-01  0.51100000000E-03 0. -1.
         11    1    4    4    0    0 -0.46797243840E-02 -0.40379333194E-01  0.39524144351E-01  0.56699289918E-01  0.51100000000E-03 0.  1.
</event>
<event>
 8    1  0.1088270E+005  0.1043930E+01  0.7957747E-01            NaN
         13   -1    0    0    0    0  0.00000000000E+00  0.00000000000E+00  0.74505805969E-08  0.10566000000E+00  0.10566000000E+00 0.  1.
     999900   -1    0    0    0    0 -0.00000000000E+00 -0.00000000000E+00 -0.74505805969E-08  0.93827000000E+00  0.93827000000E+00 0.  1.
     999902    2    1    2    0    0  0.38824620903E-02 -0.20742457980E-01 -0.95973004308E-02  0.10207474365E+01  0.10204841488E+01 0.  0.
     999903    2    3    3    0    0  0.14905361245E-01 -0.12953217342E+00 -0.22985367323E-01  0.13387881780E+00  0.19860941607E-01 0.  0.
         14    1    1    2    0    0 -0.38824620903E-02  0.20742457980E-01  0.95973004308E-02  0.23182563501E-01  0.00000000000E+00 0.  1.
     999901    1    3    3    0    0 -0.11022899155E-01  0.10878971544E+00  0.13388066892E-01  0.88686861869E+00  0.88000000000E+00 0. -1.
        -11    1    4    4    0    0  0.16610864933E-01 -0.70694472230E-01 -0.74763328923E-02  0.73005382762E-01  0.51100000000E-03 0.  1.
         11    1    4    4    0    0 -0.17055036875E-02 -0.58837701187E-01 -0.15509034430E-01  0.60873435041E-01  0.51100000000E-03 0. -1.
</event>
<event>
 8    1  0.1088270E+005  0.1043930E+01  0.7957747E-01            NaN
         13   -1    0    0    0    0  0.00000000000E+00  0.00000000000E+00  0.74505805969E-08  0.10566000000E+00  0.10566000000E+00 0.  1.
     999900   -1    0    0    0    0 -0.00000000000E+00 -0.00000000000E+00 -0.74505805969E-08  0.93827000000E+00  0.93827000000E+00 0. -1.
     999902    2    1    2    0    0  0.44654156520E-02  0.20150967780E-01 -0.11403923463E-01  0.10203492683E+01  0.10200767512E+01 0.  0.
     999903    2    3    3    0    0  0.89576072807E-01  0.28756567724E-01 -0.91185776201E-01  0.13260886456E+00  0.20480531559E-01 0.  0.
         14    1    1    2    0    0 -0.44654156520E-02 -0.20150967780E-01  0.11403923463E-01  0.23580731748E-01  0.00000000000E+00 0.  1.
     999901    1    3    3    0    0 -0.85110657155E-01 -0.86055999441E-02  0.79781852738E-01  0.88774040369E+00  0.88000000000E+00 0.  1.
        -11    1    4    4    0    0  0.27737769554E-01  0.19048109865E-01 -0.33523329967E-01  0.47500411812E-01  0.51100000000E-03 0.  1.
         11    1    4    4    0    0  0.61838303253E-01  0.97084578596E-02 -0.57662446235E-01  0.85108452753E-01  0.51100000000E-03 0. -1.
</event>
<event>
 8    1  0.1088270E+005  0.1043930E+01  0.7957747E-01            NaN
         13   -1    0    0    0    0  0.00000000000E+00  0.00000000000E+00  0.74505805969E-08  0.10566000000E+00  0.10566000000E+00 0. -1.
     999900   -1    0    0    0    0 -0.00000000000E+00 -0.00000000000E+00 -0.74505805969E-08  0.93827000000E+00  0.93827000000E+00 0.  1.
     999902    2    1    2    0    0  0.17882025390E-01 -0.44557872606E-02 -0.14953941895E-01  0.10201972958E+01  0.10199212131E+01 0.  0.
     999903    2    3    3    0    0 -0.62052170541E-01 -0.10807290659E+00 -0.32568673971E-01  0.13034547558E+00  0.19974971141E-01 0.  0.
         14    1    1    2    0    0 -0.17882025390E-01  0.44557872606E-02  0.14953941895E-01  0.23732704237E-01  0.00000000000E+00 0.  1.
     999901    1    3    3    0    0  0.79934195931E-01  0.10361711933E+00  0.17614732075E-01  0.88985182018E+00  0.88000000000E+00 0. -1.
        -11    1    4    4    0    0 -0.11939863436E-01 -0.17824019947E-01  0.18246132718E-02  0.21537092667E-01  0.51100000000E-03 0. -1.
         11    1    4    4    0    0 -0.50112307105E-01 -0.90248886643E-01 -0.34393287243E-01  0.10880838291E+00  0.51100000000E-03 0.  1.
</event>
<event>
 8    1  0.1088270E+005  0.1043930E+01  0.7957747E-01            NaN
         13   -1    0    0    0    0  0.00000000000E+00  0.00000000000E+00  0.74505805969E-08  0.10566000000E+00  0.10566000000E+00 0.  1.
     999900   -1    0    0    0    0 -0.00000000000E+00 -0.00000000000E+00 -0.74505805969E-08  0.93827000000E+00  0.93827000000E+00 0. -1.
     999902    2    1    2    0    0 -0.10688230803E-01 -0.28657273804E-01 -0.20611244437E-01  0.10070477412E+01  0.10063721240E+01 0.  0.
     999903    2    3    3    0    0  0.66357552338E-01 -0.15135820440E-02  0.94046313979E-01  0.11585798112E+00  0.13143322786E-01 0.  0.
         14    1    1    2    0    0  0.10688230803E-01  0.28657273804E-01  0.20611244437E-01  0.36882258835E-01  0.00000000000E+00 0.  1.
     999901    1    3    3    0    0 -0.77045783141E-01 -0.27143691760E-01 -0.11465755842E+00  0.89118976004E+00  0.88000000000E+00 0. -1.
        -11    1    4    4    0    0  0.39746844592E-01 -0.55565609931E-02  0.48538262435E-01  0.62983418979E-01  0.51100000000E-03 0. -1.
         11    1    4    4    0    0  0.26610707746E-01  0.40429789491E-02  0.45508051544E-01  0.52874562143E-01  0.51100000000E-03 0.  1.
</event>
<event>
 8    1  0.1088270E+005  0.1043930E+01  0.7957747E-01            NaN
         13   -1    0    0    0    0  0.00000000000E+00  0.00000000000E+00  0.74505805969E-08  0.10566000000E+00  0.10566000000E+00 0. -1.
     999900   -1    0    0    0    0 -0.00000000000E+00 -0.00000000000E+00 -0.74505805969E-08  0.93827000000E+00  0.93827000000E+00 0. -1.
     999902    2    1    2    0    0  0.14583808720E-01  0.16836171623E-01 -0.45751512604E-02  0.10211906913E+01  0.10209374867E+01 0.  0.
     999903    2    3    3    0    0  0.54541658247E-01  0.45127746631E-01  0.11013023786E+00  0.13239691923E+00  0.19722295244E-01 0.  0.
         14    1    1    2    0    0 -0.14583808720E-01 -0.16836171623E-01  0.45751512604E-02  0.22739308713E-01  0.00000000000E+00 0. -1.
     999901    1    3    3    0    0 -0.39957849527E-01 -0.28291575008E-01 -0.11470538912E+00  0.88879377206E+00  0.88000000000E+00 0. -1.
        -11    1    4    4    0    0  0.21851890093E-01  0.30642613153E-01  0.53233541188E-01  0.65196210548E-01  0.51100000000E-03 0.  1.
         11    1    4    4    0    0  0.32689768154E-01  0.14485133478E-01  0.56896696673E-01  0.67200708681E-01  0.51100000000E-03 0. -1.
</event>
<event>
 8    1  0.1088270E+005  0.1043930E+01  0.7957747E-01            NaN
         13   -1    0    0    0    0  0.00000000000E+00  0.00000000000E+00  0.74505805969E-08  0.10566000000E+00  0.10566000000E+00 0.  1.
     999900   -1    0    0    0    0 -0.00000000000E+00 -0.00000000000E+00 -0.74505805969E-08  0.93827000000E+00  0.93827000000E+00 0. -1.
     999902    2    1    2    0    0 -0.68391709267E-02 -0.20384711339E-01 -0.90396365981E-02  0.10206056405E+01  0.10203390847E+01 0.  0.
     999903    2    3    3    0    0  0.44803077163E-01 -0.61126404970E-01  0.10502037305E+00  0.13080988127E+00  0.18390029208E-01 0.  0.
         14    1    1    2    0    0  0.68391709267E-02  0.20384711339E-01  0.90396365981E-02  0.23324359480E-01  0.00000000000E+00 0. -1.
     999901    1    3    3    0    0 -0.51642248090E-01  0.40741693631E-01 -0.11406000964E+00  0.88979575925E+00  0.88000000000E+00 0. -1.
        -11    1    4    4    0    0  0.98155975460E-02 -0.41192041847E-02  0.10053342825E-01  0.14650754972E-01  0.51100000000E-03 0.  1.
         11    1    4    4    0    0  0.34987479617E-01 -0.57007200785E-01  0.94967030221E-01  0.11615912629E+00  0.51100000000E-03 0. -1.
</event>
<event>
 8    1  0.1088270E+005  0.1043930E+01  0.7957747E-01            NaN
         13   -1    0    0    0    0  0.00000000000E+00  0.00000000000E+00  0.74505805969E-08  0.10566000000E+00  0.10566000000E+00 0. -1.
     999900   -1    0    0    0    0 -0.00000000000E+00 -0.00000000000E+00 -0.74505805969E-08  0.93827000000E+00  0.93827000000E+00 0. -1.
     999902    2    1    2    0    0  0.18707047273E-01  0.14846342856E-01  0.34820203323E-02  0.10197951294E+01  0.10195094967E+01 0.  0.
     999903    2    3    3    0    0 -0.12394915511E+00  0.23391938972E-01 -0.86993200473E-02  0.12818299155E+00  0.21086139816E-01 0.  0.
         14    1    1    2    0    0 -0.18707047273E-01 -0.14846342856E-01 -0.34820203323E-02  0.24134870612E-01  0.00000000000E+00 0. -1.
     999901    1    3    3    0    0  0.14265620238E+00 -0.85455961167E-02  0.12181340380E-01  0.89161213784E+00  0.88000000000E+00 0. -1.
        -11    1    4    4    0    0 -0.59024973719E-01  0.76548171532E-02  0.58583410124E-02  0.59809071458E-01  0.51100000000E-03 0.  1.
         11    1    4    4    0    0 -0.64924181388E-01  0.15737121819E-01 -0.14557661060E-01  0.68373920091E-01  0.51100000000E-03 0. -1.
</event>
<event>
 8    1  0.1088270E+005  0.1043930E+01  0.7957747E-01            NaN
         13   -1    0    0    0    0  0.00000000000E+00  0.00000000000E+00  0.74505805969E-08  0.10566000000E+00  0.10566000000E+00 0.  1.
     999900   -1    0    0    0    0 -0.00000000000E+00 -0.00000000000E+00 -0.74505805969E-08  0.93827000000E+00  0.93827000000E+00 0.  1.
     999902    2    1    2    0    0 -0.13664442779E-01  0.38165858749E-02  0.19017236251E-01  0.10202036729E+01  0.10199277404E+01 0.  0.
     999903    2    3    3    0    0  0.91000145945E-01  0.48620260531E-01 -0.73011420340E-01  0.12810988911E+00  0.20893058459E-01 0.  0.
         14    1    1    2    0    0  0.13664442779E-01 -0.38165858749E-02 -0.19017236251E-01  0.23726327125E-01  0.00000000000E+00 0. -1.
     999901    1    3    3    0    0 -0.10466458872E+00 -0.44803674656E-01  0.92028656592E-01  0.89209378376E+00  0.88000000000E+00 0. -1.
        -11    1    4    4    0    0  0.20761207780E-01  0.11030656223E-01 -0.66841765927E-02  0.24446727039E-01  0.51100000000E-03 0. -1.
         11    1    4    4    0    0  0.70238938166E-01  0.37589604307E-01 -0.66327243748E-01  0.10366316207E+00  0.51100000000E-03 0.  1.
</event>
<event>
 8    1  0.1088270E+005  0.1043930E+01  0.7957747E-01            NaN
         13   -1    0    0    0    0  0.00000000000E+00  0.00000000000E+00  0.74505805969E-08  0.10566000000E+00  0.10566000000E+00 0. -1.
     999900   -1    0    0    0    0 -0.00000000000E+00 -0.00000000000E+00 -0.74505805969E-08  0.93827000000E+00  0.93827000000E+00 0. -1.
     999902    2    1    2    0    0  0.21973499219E-01  0.26866484639E-02 -0.10947789635E-01  0.10192337079E+01  0.10189344652E+01 0.  0.
     999903    2    3    3    0    0 -0.10802577451E+00 -0.35229951534E-01  0.52233167780E-01  0.12663675900E+00  0.19946114143E-01 0.  0.
         14    1    1    2    0    0 -0.21973499219E-01 -0.26866484639E-02  0.10947789635E-01  0.24696292147E-01  0.00000000000E+00 0. -1.
     999901    1    3    3    0    0  0.12999927373E+00  0.37916599998E-01 -0.63180957416E-01  0.89259694886E+00  0.88000000000E+00 0.  1.
        -11    1    4    4    0    0 -0.24403498143E-01 -0.70217369726E-02  0.21207820529E-01  0.33088793939E-01  0.51100000000E-03 0.  1.
         11    1    4    4    0    0 -0.83622276367E-01 -0.28208214562E-01  0.31025347251E-01  0.93547965059E-01  0.51100000000E-03 0. -1.
</event>
<event>
 8    1  0.1088270E+005  0.1043930E+01  0.7957747E-01            NaN
         13   -1    0    0    0    0  0.00000000000E+00  0.00000000000E+00  0.74505805969E-08  0.10566000000E+00  0.10566000000E+00 0.  1.
     999900   -1    0    0    0    0 -0.00000000000E+00 -0.00000000000E+00 -0.74505805969E-08  0.93827000000E+00  0.93827000000E+00 0. -1.
     999902    2    1    2    0    0  0.13451681877E-01  0.75751213507E-02  0.18908595207E-01  0.10195196501E+01  0.10192273798E+01 0.  0.
     999903    2    3    3    0    0  0.28566511829E-01  0.12007401195E+00 -0.37560833493E-01  0.13043402159E+00  0.19193848807E-01 0.  0.
         14    1    1    2    0    0 -0.13451681877E-01 -0.75751213507E-02 -0.18908595207E-01  0.24410349885E-01  0.00000000000E+00 0. -1.
     999901    1    3    3    0    0 -0.15114829951E-01 -0.11249889060E+00  0.56469428700E-01  0.88908562852E+00  0.88000000000E+00 0.  1.
        -11    1    4    4    0    0  0.86294651163E-02  0.35354765852E-01 -0.20399417994E-01  0.41723189142E-01  0.51100000000E-03 0. -1.
         11    1    4    4    0    0  0.19937046712E-01  0.84719246098E-01 -0.17161415499E-01  0.88710832449E-01  0.51100000000E-03 0.  1.
</event>
<event>
 8    1  0.1088270E+005  0.1043930E+01  0.7957747E-01            NaN
         13   -1    0    0    0    0  0.00000000000E+00  0.00000000000E+00  0.74505805969E-08  0.10566000000E+00  0.10566000000E+00 0. -1.
     999900   -1    0    0    0    0 -0.00000000000E+00 -0.00000000000E+00 -0.74505805969E-08  0.93827000000E+00  0.93827000000E+00 0.  1.
     999902    2    1    2    0    0  0.20439904126E-01 -0.12522551813E-01 -0.74312277849E-02  0.10188336431E+01  0.10185245039E+01 0.  0.
     999903    2    3    3    0    0 -0.89285102224E-01  0.51135660202E-01 -0.72330471553E-01  0.12737200239E+00  0.20130689347E-01 0.  0.
         14    1    1    2    0    0 -0.20439904126E-01  0.12522551813E-01  0.74312277849E-02  0.25096356926E-01  0.00000000000E+00 0. -1.
     999901    1    3    3    0    0  0.10972500635E+00 -0.63658212014E-01  0.64899243768E-01  0.89146164069E+00  0.88000000000E+00 0.  1.
        -11    1    4    4    0    0 -0.76428724438E-01  0.37131448106E-01 -0.65030714376E-01  0.10700163219E+00  0.51100000000E-03 0. -1.
         11    1    4    4    0    0 -0.12856377786E-01  0.14004212096E-01 -0.72997571768E-02  0.20370370199E-01  0.51100000000E-03 0.  1.
</event>
<event>
 8    1  0.1088270E+005  0.1043930E+01  0.7957747E-01            NaN
         13   -1    0    0    0    0  0.00000000000E+00  0.00000000000E+00  0.74505805969E-08  0.10566000000E+00  0.10566000000E+00 0. -1.
     999900   -1    0    0    0    0 -0.00000000000E+00 -0.00000000000E+00 -0.74505805969E-08  0.93827000000E+00  0.93827000000E+00 0. -1.
     999902    2    1    2    0    0 -0.56313120453E-02 -0.20744399667E-01 -0.97343310941E-02  0.10203334114E+01  0.10200605234E+01 0.  0.
     999903    2    3    3    0    0  0.67066319734E-01 -0.11150334466E+00 -0.16675378128E-01  0.13265649386E+00  0.19717758839E-01 0.  0.
         14    1    1    2    0    0  0.56313120453E-02  0.20744399667E-01  0.97343310941E-02  0.23596588625E-01  0.00000000000E+00 0. -1.
     999901    1    3    3    0    0 -0.72697631779E-01  0.90758944991E-01  0.69410470343E-02  0.88767691752E+00  0.88000000000E+00 0. -1.
        -11    1    4    4    0    0  0.30618135532E-01 -0.65775273760E-01 -0.15362412179E-01  0.74162805305E-01  0.51100000000E-03 0.  1.
         11    1    4    4    0    0  0.36448184202E-01 -0.45728070898E-01 -0.13129659491E-02  0.58493688551E-01  0.51100000000E-03 0. -1.
</event>
<event>
 8    1  0.1088270E+005  0.1043930E+01  0.7957747E-01            NaN
         13   -1    0    0    0    0  0.00000000000E+00  0.00000000000E+00  0.74505805969E-08  0.10566000000E+00  0.10566000000E+00 0.  1.
     999900   -1    0    0    0    0 -0.00000000000E+00 -0.00000000000E+00 -0.74505805969E-08  0.93827000000E+00  0.93827000000E+00 0. -1.
     999902    2    1    2    0    0  0.90851066270E-02  0.20322024395E-01  0.90681473829E-02  0.10198934625E+01  0.10196101803E+01 0.  0.
     999903    2    3    3    0    0 -0.30414326094E-01 -0.39923479718E-01  0.11833375123E+00  0.13021447650E+00  0.20833092544E-01 0.  0.
         14    1    1    2    0    0 -0.90851066270E-02 -0.20322024395E-01 -0.90681473829E-02  0.24036537498E-01  0.00000000000E+00 0. -1.
     999901    1    3    3    0    0  0.39499432721E-01  0.60245504113E-01 -0.10926560385E+00  0.88967898600E+00  0.88000000000E+00 0. -1.
        -11    1    4    4    0    0 -0.17262286430E-01 -0.35984006416E-01  0.78251934586E-01  0.87843392683E-01  0.51100000000E-03 0. -1.
         11    1    4    4    0    0 -0.13152039664E-01 -0.39394733024E-02  0.40081816645E-01  0.42371083816E-01  0.51100000000E-03 0.  1.
</event>
<event>
 8    1  0.1088270E+005  0.1043930E+01  0.7957747E-01            NaN
         13   -1    0    0    0    0  0.00000000000E+00  0.00000000000E+00  0.74505805969E-08  0.10566000000E+00  0.10566000000E+00 0. -1.
     999900   -1    0    0    0    0 -0.00000000000E+00 -0.00000000000E+00 -0.74505805969E-08  0.93827000000E+00  0.93827000000E+00 0. -1.
     999902    2    1    2    0    0 -0.20985902307E-01  0.29776574407E-02 -0.91563894186E-02  0.10208407383E+01  0.10205795897E+01 0.  0.
     999903    2    3    3    0    0  0.98657987912E-01  0.24293528846E-01 -0.78387657580E-01  0.12979528752E+00  0.19458100574E-01 0.  0.
         14    1    1    2    0    0  0.20985902307E-01 -0.29776574407E-02  0.91563894186E-02  0.23089261718E-01  0.00000000000E+00 0. -1.
     999901    1    3    3    0    0 -0.11964389022E+00 -0.21315871405E-01  0.69231268161E-01  0.89104545077E+00  0.88000000000E+00 0. -1.
        -11    1    4    4    0    0  0.32220956064E-01 -0.18038295915E-03 -0.19200887028E-01  0.37512101132E-01  0.51100000000E-03 0. -1.
         11    1    4    4    0    0  0.66437031847E-01  0.24473911805E-01 -0.59186770552E-01  0.92283186384E-01  0.51100000000E-03 0.  1.
</event>
<event>
 8    1  0.1088270E+005  0.1043930E+01  0.7957747E-01            NaN
         13   -1    0    0    0    0  0.00000000000E+00  0.00000000000E+00  0.74505805969E-08  0.10566000000E+00  0.10566000000E+00 0. -1.
     999900   -1    0    0    0    0 -0.00000000000E+00 -0.00000000000E+00 -0.74505805969E-08  0.93827000000E+00  0.93827000000E+00 0. -1.
     999902    2    1    2    0    0  0.17474533839E-01  0.12643782877E-01  0.78217122484E-02  0.10209865094E+01  0.10207286851E+01 0.  0.
     999903    2    3    3    0    0 -0.92109064956E-01 -0.61104835586E-01 -0.62010359428E-01  0.12839256920E+00  0.20530133230E-01 0.  0.
         14    1    1    2    0    0 -0.17474533839E-01 -0.12643782877E-01 -0.78217122484E-02  0.22943490598E-01  0.00000000000E+00 0.  1.
     999901    1    3    3    0    0  0.10958359879E+00  0.73748618463E-01  0.69832071677E-01  0.89259394020E+00  0.88000000000E+00 0.  1.
        -11    1    4    4    0    0 -0.65470255628E-01 -0.52749090246E-01 -0.51258369896E-01  0.98470820547E-01  0.51100000000E-03 0. -1.
         11    1    4    4    0    0 -0.26638809327E-01 -0.83557453398E-02 -0.10751989533E-01  0.29921748653E-01  0.51100000000E-03 0.  1.
</event>
<event>
 8    1  0.1088270E+005  0.1043930E+01  0.7957747E-01            NaN
         13   -1    0    0    0    0  0.00000000000E+00  0.00000000000E+00  0.74505805969E-08  0.10566000000E+00  0.10566000000E+00 0.  1.
     999900   -1    0    0    0    0 -0.00000000000E+00 -0.00000000000E+00 -0.74505805969E-08  0.93827000000E+00  0.93827000000E+00 0.  1.
     999902    2    1    2    0    0 -0.12633246861E-01 -0.39769587255E-02  0.21664264806E-01  0.10185379639E+01  0.10182214044E+01 0.  0.
     999903    2    3    3    0    0 -0.54017889755E-01  0.45261383695E-01 -0.10408027203E+00  0.12727549327E+00  0.19995571870E-01 0.  0.
         14    1    1    2    0    0  0.12633246861E-01  0.39769587255E-02 -0.21664264806E-01  0.25392036085E-01  0.00000000000E+00 0. -1.
     999901    1    3    3    0    0  0.41384642895E-01 -0.49238342421E-01  0.12574453684E+00  0.89126247064E+00  0.88000000000E+00 0.  1.
        -11    1    4    4    0    0 -0.47025003554E-01  0.30603495971E-01 -0.71674373851E-01  0.91024183121E-01  0.51100000000E-03 0.  1.
         11    1    4    4    0    0 -0.69928862017E-02  0.14657887725E-01 -0.32405898179E-01  0.36251310152E-01  0.51100000000E-03 0. -1.
</event>
<event>
 8    1  0.1088270E+005  0.1043930E+01  0.7957747E-01            NaN
         13   -1    0    0    0    0  0.00000000000E+00  0.00000000000E+00  0.74505805969E-08  0.10566000000E+00  0.10566000000E+00 0. -1.
     999900   -1    0    0    0    0 -0.00000000000E+00 -0.00000000000E+00 -0.74505805969E-08  0.93827000000E+00  0.93827000000E+00 0.  1.
     999902    2    1    2    0    0 -0.23071417648E-01 -0.14868470730E-02 -0.70041383123E-02  0.10197730345E+01  0.10194868724E+01 0.  0.
     999903    2    3    3    0    0  0.30639301536E-01  0.94411631997E-02  0.12310186469E+00  0.12852007675E+00  0.18314985046E-01 0.  0.
         14    1    1    2    0    0  0.23071417648E-01  0.14868470730E-02  0.70041383123E-02  0.24156965456E-01  0.00000000000E+00 0. -1.
     999901    1    3    3    0    0 -0.53710719184E-01 -0.10928010273E-01 -0.13010600300E+00  0.89125295780E+00  0.88000000000E+00 0.  1.
        -11    1    4    4    0    0  0.20295478820E-01  0.11269624967E-01  0.56378441602E-01  0.60972950608E-01  0.51100000000E-03 0.  1.
         11    1    4    4    0    0  0.10343822716E-01 -0.18284617670E-02  0.66723423084E-01  0.67547126140E-01  0.51100000000E-03 0. -1.
</event>
<event>
 8    1  0.1088270E+005  0.1043930E+01  0.7957747E-01            NaN
         13   -1    0    0    0    0  0.00000000000E+00  0.00000000000E+00  0.74505805969E-08  0.10566000000E+00  0.10566000000E+00 0. -1.
     999900   -1    0    0    0    0 -0.00000000000E+00 -0.00000000000E+00 -0.74505805969E-08  0.93827000000E+00  0.93827000000E+00 0. -1.
     999902    2    1    2    0    0  0.14490019239E-01 -0.98596344049E-02 -0.16451744415E-01  0.10198918440E+01  0.10196085232E+01 0.  0.
     999903    2    3    3    0    0  0.19651959028E-01  0.12525642863E+00  0.12595561384E-01  0.12909066414E+00  0.20745577705E-01 0.  0.
         14    1    1    2    0    0 -0.14490019239E-01  0.98596344049E-02  0.16451744415E-01  0.24038155970E-01  0.00000000000E+00 0. -1.
     999901    1    3    3    0    0 -0.51619397896E-02 -0.13511606304E+00 -0.29047305799E-01  0.89080117989E+00  0.88000000000E+00 0.  1.
        -11    1    4    4    0    0  0.21614572398E-01  0.78490235382E-01  0.41070139545E-02  0.81517087012E-01  0.51100000000E-03 0. -1.
         11    1    4    4    0    0 -0.19626133699E-02  0.46766193253E-01  0.84885474295E-02  0.47573577131E-01  0.51100000000E-03 0.  1.
</event>
<event>
 8    1  0.1088270E+005  0.1043930E+01  0.7957747E-01            NaN
         13   -1    0    0    0    0  0.00000000000E+00  0.00000000000E+00  0.74505805969E-08  0.10566000000E+00  0.10566000000E+00 0.  1.
     999900   -1    0    0    0    0 -0.00000000000E+00 -0.00000000000E+00 -0.74505805969E-08  0.93827000000E+00  0.93827000000E+00 0. -1.
     999902    2    1    2    0    0  0.92512064413E-02  0.83219924133E-02 -0.19816457055E-01  0.10205305909E+01  0.10202622969E+01 0.  0.
     999903    2    3    3    0    0  0.11255101546E+00  0.60699906987E-01  0.24977126681E-01  0.13181198430E+00  0.19958270465E-01 0.  0.
         14    1    1    2    0    0 -0.92512064413E-02 -0.83219924133E-02  0.19816457055E-01  0.23399409150E-01  0.00000000000E+00 0.  1.
     999901    1    3    3    0    0 -0.10329980902E+00 -0.52377914574E-01 -0.44793583736E-01  0.88871860655E+00  0.88000000000E+00 0. -1.
        -11    1    4    4    0    0  0.72802372298E-01  0.49071711283E-01  0.20445203127E-01  0.90147022759E-01  0.51100000000E-03 0. -1.
         11    1    4    4    0    0  0.39748643161E-01  0.11628195705E-01  0.45319235538E-02  0.41664961545E-01  0.51100000000E-03 0.  1.
</event>
<event>
 8    1  0.1088270E+005  0.1043930E+01  0.7957747E-01            NaN
         13   -1    0    0    0    0  0.00000000000E+00  0.00000000000E+00  0.74505805969E-08  0.10566000000E+00  0.10566000000E+00 0.  1.
     999900   -1    0    0    0    0 -0.00000000000E+00 -0.00000000000E+00 -0.74505805969E-08  0.93827000000E+00  0.93827000000E+00 0. -1.
     999902    2    1    2    0    0 -0.16132336304E-01  0.13000484490E-01 -0.12097610393E-01  0.10199379795E+01  0.10196557581E+01 0.  0.
     999903    2    3    3    0    0 -0.76131347494E-01 -0.24678946322E-01 -0.10358699835E+00  0.13236267058E+00  0.19610657127E-01 0.  0.
         14    1    1    2    0    0  0.16132336304E-01 -0.13000484490E-01  0.12097610393E-01  0.23992020524E-01  0.00000000000E+00 0.  1.
     999901    1    3    3    0    0  0.59999011190E-01  0.37679430812E-01  0.91489387961E-01  0.88757530889E+00  0.88000000000E+00 0.  1.
        -11    1    4    4    0    0 -0.12966690824E-02  0.17778589419E-02 -0.69393962162E-02  0.72978403635E-02  0.51100000000E-03 0. -1.
         11    1    4    4    0    0 -0.74834678411E-01 -0.26456805264E-01 -0.96647602137E-01  0.12506483022E+00  0.51100000000E-03 0.  1.
</event>
<event>
 8    1  0.1088270E+005  0.1043930E+01  0.7957747E-01            NaN
         13   -1    0    0    0    0  0.00000000000E+00  0.00000000000E+00  0.74505805969E-08  0.10566000000E+00  0.10566000000E+00 0.  1.
     999900   -1    0    0    0    0 -0.00000000000E+00 -0.00000000000E+00 -0.74505805969E-08  0.93827000000E+00  0.93827000000E+00 0. -1.
     999902    2    1    2    0    0  0.15813679943E-01  0.42847492563E-02  0.16316185313E-01  0.10208075120E+01  0.10205456026E+01 0.  0.
     999903    2    3    3    0    0  0.45893848257E-01 -0.11716541003E+00 -0.25164805552E-01  0.13098976079E+00  0.26288236494E-01 0.  0.
         14    1    1    2    0    0 -0.15813679943E-01 -0.42847492563E-02 -0.16316185313E-01  0.23122488030E-01  0.00000000000E+00 0. -1.
     999901    1    3    3    0    0 -0.30080168314E-01  0.12145015928E+00  0.41480990865E-01  0.88981775118E+00  0.88000000000E+00 0.  1.
        -11    1    4    4    0    0  0.35101390144E-01 -0.83192045561E-01 -0.59505041302E-02  0.90491401001E-01  0.51100000000E-03 0. -1.
         11    1    4    4    0    0  0.10792458113E-01 -0.33973364466E-01 -0.19214301422E-01  0.40498359787E-01  0.51100000000E-03 0.  1.
</event>
<event>
 8    1  0.1088270E+005  0.1043930E+01  0.7957747E-01            NaN
         13   -1    0    0    0    0  0.00000000000E+00  0.00000000000E+00  0.74505805969E-08  0.10566000000E+00  0.10566000000E+00 0.  1.
     999900   -1    0    0    0    0 -0.00000000000E+00 -0.00000000000E+00 -0.74505805969E-08  0.93827000000E+00  0.93827000000E+00 0. -1.
     999902    2    1    2    0    0  0.16509041764E-01  0.14921665354E-01  0.84370881174E-02  0.10201310712E+01  0.10198534274E+01 0.  0.
     999903    2    3    3    0    0  0.26568575693E-02  0.39846179178E-01  0.12430264073E+00  0.13207817823E+00  0.19968019098E-01 0.  0.
         14    1    1    2    0    0 -0.16509041764E-01 -0.14921665354E-01 -0.84370881174E-02  0.23798928816E-01  0.00000000000E+00 0. -1.
     999901    1    3    3    0    0  0.13852184195E-01 -0.24924513823E-01 -0.11586555261E+00  0.88805289295E+00  0.88000000000E+00 0. -1.
        -11    1    4    4    0    0 -0.70544238969E-02  0.16916118257E-01  0.69556822140E-01  0.71932833814E-01  0.51100000000E-03 0. -1.
         11    1    4    4    0    0  0.97112814662E-02  0.22930060921E-01  0.54745818587E-01  0.60145344419E-01  0.51100000000E-03 0.  1.
</event>
<event>
 8    1  0.1088270E+005  0.1043930E+01  0.7957747E-01            NaN
         13   -1    0    0    0    0  0.00000000000E+00  0.00000000000E+00  0.74505805969E-08  0.10566000000E+00  0.10566000000E+00 0.  1.
     999900   -1    0    0    0    0 -0.00000000000E+00 -0.00000000000E+00 -0.74505805969E-08  0.93827000000E+00  0.93827000000E+00 0.  1.
     999902    2    1    2    0    0  0.36582636967E-02 -0.19706230677E-01 -0.16288480777E-01  0.10181030175E+01  0.10177753785E+01 0.  0.
     999903    2    3    3    0    0 -0.12185289199E+00  0.18979336955E-01  0.24803596756E-01  0.12740768112E+00  0.20227611842E-01 0.  0.
         14    1    1    2    0    0 -0.36582636967E-02  0.19706230677E-01  0.16288480777E-01  0.25826982534E-01  0.00000000000E+00 0.  1.
     999901    1    3    3    0    0  0.12551115568E+00 -0.38685567632E-01 -0.41092077533E-01  0.89069533634E+00  0.88000000000E+00 0. -1.
        -11    1    4    4    0    0 -0.53821450445E-01  0.16307577379E-01  0.17662694403E-01  0.58948430874E-01  0.51100000000E-03 0. -1.
         11    1    4    4    0    0 -0.68031441542E-01  0.26717595761E-02  0.71409023535E-02  0.68459250251E-01  0.51100000000E-03 0.  1.
</event>
<event>
 8    1  0.1088270E+005  0.1043930E+01  0.7957747E-01            NaN
         13   -1    0    0    0    0  0.00000000000E+00  0.00000000000E+00  0.74505805969E-08  0.10566000000E+00  0.10566000000E+00 0.  1.
     999900   -1    0    0    0    0 -0.00000000000E+00 -0.00000000000E+00 -0.74505805969E-08  0.93827000000E+00  0.93827000000E+00 0. -1.
     999902    2    1    2    0    0  0.42078253676E-02  0.19704319447E-01 -0.89549451578E-02  0.10218810308E+01  0.10216431295E+01 0.  0.
     999903    2    3    3    0    0 -0.10634903358E+00  0.42852268664E-01 -0.63203126624E-01  0.13300448607E+00  0.23433399781E-01 0.  0.
         14    1    1    2    0    0 -0.42078253676E-02 -0.19704319447E-01  0.89549451578E-02  0.22048969181E-01  0.00000000000E+00 0.  1.
     999901    1    3    3    0    0  0.11055685895E+00 -0.23147949217E-01  0.54248181466E-01  0.88887654475E+00  0.88000000000E+00 0.  1.
        -11    1    4    4    0    0 -0.60091796586E-01  0.11633952614E-01 -0.32196833182E-01  0.69161188960E-01  0.51100000000E-03 0. -1.
         11    1    4    4    0    0 -0.46257236999E-01  0.31218316050E-01 -0.31006293442E-01  0.63843297109E-01  0.51100000000E-03 0.  1.
</event>
<event>
 8    1  0.1088270E+005  0.1043930E+01  0.7957747E-01            NaN
         13   -1    0    0    0    0  0.00000000000E+00  0.00000000000E+00  0.74505805969E-08  0.10566000000E+00  0.10566000000E+00 0.  1.
     999900   -1    0    0    0    0 -0.00000000000E+00 -0.00000000000E+00 -0.74505805969E-08  0.93827000000E+00  0.93827000000E+00 0. -1.
     999902    2    1    2    0    0  0.48920791791E-02 -0.20790114189E-01 -0.11318620169E-01  0.10197582717E+01  0.10194717555E+01 0.  0.
     999903    2    3    3    0    0 -0.35871028876E-01  0.92002157777E-01  0.77358000301E-01  0.12720728121E+00  0.21125918558E-01 0.  0.
         14    1    1    2    0    0 -0.48920791791E-02  0.20790114189E-01  0.11318620169E-01  0.24171728304E-01  0.00000000000E+00 0.  1.
     999901    1    3    3    0    0  0.40763108055E-01 -0.11279227197E+00 -0.88676620470E-01  0.89255099048E+00  0.88000000000E+00 0. -1.
        -11    1    4    4    0    0 -0.84684767783E-02  0.50404927604E-01  0.37099665753E-01  0.63158674350E-01  0.51100000000E-03 0.  1.
         11    1    4    4    0    0 -0.27402552097E-01  0.41597230173E-01  0.40258334548E-01  0.64048606863E-01  0.51100000000E-03 0. -1.
</event>
<event>
 8    1  0.1088270E+005  0.1043930E+01  0.7957747E-01            NaN
         13   -1    0    0    0    0  0.00000000000E+00  0.00000000000E+00  0.74505805969E-08  0.10566000000E+00  0.10566000000E+00 0.  1.
     999900   -1    0    0    0    0 -0.00000000000E+00 -0.00000000000E+00 -0.74505805969E-08  0.93827000000E+00  0.93827000000E+00 0.  1.
     999902    2    1    2    0    0  0.18978963141E-01 -0.98467988283E-02 -0.10984129216E-01  0.10198922883E+01  0.10196089781E+01 0.  0.
     999903    2    3    3    0    0 -0.64673757445E-01  0.52555792684E-01  0.94590217437E-01  0.12745864721E+00  0.18804022602E-01 0.  0.
         14    1    1    2    0    0 -0.18978963141E-01  0.98467988283E-02  0.10984129216E-01  0.24037711699E-01  0.00000000000E+00 0. -1.
     999901    1    3    3    0    0  0.83652720586E-01 -0.62402591512E-01 -0.10557434665E+00  0.89243364110E+00  0.88000000000E+00 0.  1.
        -11    1    4    4    0    0 -0.60892916790E-01  0.49162430618E-01  0.79632385091E-01  0.11165334646E+00  0.51100000000E-03 0. -1.
         11    1    4    4    0    0 -0.37808406546E-02  0.33933620661E-02  0.14957832345E-01  0.15805300745E-01  0.51100000000E-03 0.  1.
</event>
<event>
 8    1  0.1088270E+005  0.1043930E+01  0.7957747E-01            NaN
         13   -1    0    0    0    0  0.00000000000E+00  0.00000000000E+00  0.74505805969E-08  0.10566000000E+00  0.10566000000E+00 0.  1.
     999900   -1    0    0    0    0 -0.00000000000E+00 -0.00000000000E+00 -0.74505805969E-08  0.93827000000E+00  0.93827000000E+00 0. -1.
     999902    2    1    2    0    0  0.10365799823E-01 -0.93791175971E-02 -0.18289597536E-01  0.10209098560E+01  0.10206502863E+01 0.  0.
     999903    2    3    3    0    0 -0.56202185472E-01 -0.10659402766E+00 -0.49872016113E-01  0.13249582830E+00  0.23387050727E-01 0.  0.
         14    1    1    2    0    0 -0.10365799823E-01  0.93791175971E-02  0.18289597536E-01  0.23020144024E-01  0.00000000000E+00 0.  1.
     999901    1    3    3    0    0  0.66567985295E-01  0.97214910063E-01  0.31582418577E-01  0.88841402767E+00  0.88000000000E+00 0.  1.
        -11    1    4    4    0    0 -0.42262852345E-01 -0.61629987994E-01 -0.38495213936E-01  0.84062754686E-01  0.51100000000E-03 0.  1.
         11    1    4    4    0    0 -0.13939333127E-01 -0.44964039666E-01 -0.11376802177E-01  0.48433073616E-01  0.51100000000E-03 0. -1.
</event>
<event>
 8    1  0.1088270E+005  0.1043930E+01  0.7957747E-01            NaN
         13   -1    0    0    0    0  0.00000000000E+00  0.00000000000E+00  0.74505805969E-08  0.10566000000E+00  0.10566000000E+00 0.  1.
     999900   -1    0    0    0    0 -0.00000000000E+00 -0.00000000000E+00 -0.74505805969E-08  0.93827000000E+00  0.93827000000E+00 0. -1.
     999902    2    1    2    0    0  0.47047904799E-02 -0.78372990597E-02 -0.21336723604E-01  0.10207176308E+01  0.10204536578E+01 0.  0.
     999903    2    3    3    0    0  0.17491802933E-01  0.11792800727E+00 -0.50899250725E-01  0.13119283464E+00  0.20195248651E-01 0.  0.
         14    1    1    2    0    0 -0.47047904799E-02  0.78372990597E-02  0.21336723604E-01  0.23212369206E-01  0.00000000000E+00 0.  1.
     999901    1    3    3    0    0 -0.12787012453E-01 -0.12576530633E+00  0.29562527122E-01  0.88952479615E+00  0.88000000000E+00 0. -1.
        -11    1    4    4    0    0  0.69231434156E-02  0.71521308987E-01 -0.40455186535E-01  0.82462784289E-01  0.51100000000E-03 0.  1.
         11    1    4    4    0    0  0.10568659518E-01  0.46406698282E-01 -0.10444064190E-01  0.48730050351E-01  0.51100000000E-03 0. -1.
</event>
<event>
 8    1  0.1088270E+005  0.1043930E+01  0.7957747E-01            NaN
         13   -1    0    0    0    0  0.00000000000E+00  0.00000000000E+00  0.74505805969E-08  0.10566000000E+00  0.10566000000E+00 0.  1.
     999900   -1    0    0    0    0 -0.00000000000E+00 -0.00000000000E+00 -0.74505805969E-08  0.93827000000E+00  0.93827000000E+00 0. -1.
     999902    2    1    2    0    0  0.83012395530E-02 -0.23432872773E-01 -0.45066079127E-02  0.10186650120E+01  0.10183516519E+01 0.  0.
     999903    2    3    3    0    0 -0.82506527914E-01  0.43595713767E-01  0.83607938840E-01  0.12709165247E+00  0.21309323864E-01 0.  0.
         14    1    1    2    0    0 -0.83012395530E-02  0.23432872773E-01  0.45066079127E-02  0.25264988015E-01  0.00000000000E+00 0. -1.
     999901    1    3    3    0    0  0.90807767467E-01 -0.67028586540E-01 -0.88114546753E-01  0.89157335951E+00  0.88000000000E+00 0. -1.
        -11    1    4    4    0    0 -0.78530454810E-01  0.43734975989E-01  0.73153948994E-01  0.11589452891E+00  0.51100000000E-03 0. -1.
         11    1    4    4    0    0 -0.39760731038E-02 -0.13926222191E-03  0.10453989846E-01  0.11197123559E-01  0.51100000000E-03 0.  1.
</event>
<event>
 8    1  0.1088270E+005  0.1043930E+01  0.7957747E-01            NaN
         13   -1    0    0    0    0  0.00000000000E+00  0.00000000000E+00  0.74505805969E-08  0.10566000000E+00  0.10566000000E+00 0. -1.
     999900   -1    0    0    0    0 -0.00000000000E+00 -0.00000000000E+00 -0.74505805969E-08  0.93827000000E+00  0.93827000000E+00 0. -1.
     999902    2    1    2    0    0  0.80166158004E-02 -0.18093540556E-01  0.14593484724E-01  0.10193411380E+01  0.10190445248E+01 0.  0.
     999903    2    3    3    0    0 -0.11158232508E+00  0.21085298000E-01 -0.54970087158E-01  0.12766968583E+00  0.19561010618E-01 0.  0.
         14    1    1    2    0    0 -0.80166158004E-02  0.18093540556E-01 -0.14593484724E-01  0.24588862014E-01  0.00000000000E+00 0.  1.
     999901    1    3    3    0    0  0.11959894088E+00 -0.39178838556E-01  0.69563571882E-01  0.89167145215E+00  0.88000000000E+00 0.  1.
        -11    1    4    4    0    0 -0.79226117936E-02 -0.14439941028E-02  0.25759294082E-03  0.80734361783E-02  0.51100000000E-03 0. -1.
         11    1    4    4    0    0 -0.10365971329E+00  0.22529292103E-01 -0.55227680098E-01  0.11959624966E+00  0.51100000000E-03 0.  1.
</event>
<event>
 8    1  0.1088270E+005  0.1043930E+01  0.7957747E-01            NaN
         13   -1    0    0    0    0  0.00000000000E+00  0.00000000000E+00  0.74505805969E-08  0.10566000000E+00  0.10566000000E+00 0. -1.
     999900   -1    0    0    0    0 -0.00000000000E+00 -0.00000000000E+00 -0.74505805969E-08  0.93827000000E+00  0.93827000000E+00 0. -1.
     999902    2    1    2    0    0 -0.15504305718E-01 -0.18713044193E-03  0.20877670869E-01  0.10179243150E+01  0.10175920672E+01 0.  0.
     999903    2    3    3    0    0  0.66192423050E-02 -0.64395689777E-03 -0.12433245010E+00  0.12574964635E+00  0.17612108364E-01 0.  0.
         14    1    1    2    0    0  0.15504305718E-01  0.18713044193E-03 -0.20877670869E-01  0.26005685042E-01  0.00000000000E+00 0.  1.
     999901    1    3    3    0    0 -0.22123548023E-01  0.45682645584E-03  0.14521012097E+00  0.89217466860E+00  0.88000000000E+00 0.  1.
        -11    1    4    4    0    0  0.96320512886E-04  0.77231174952E-02 -0.66593576142E-01  0.67041937069E-01  0.51100000000E-03 0. -1.
         11    1    4    4    0    0  0.65229217921E-02 -0.83670743930E-02 -0.57738873957E-01  0.58707709285E-01  0.51100000000E-03 0.  1.
</event>
<event>
 8    1  0.1088270E+005  0.1043930E+01  0.7957747E-01            NaN
         13   -1    0    0    0    0  0.00000000000E+00  0.00000000000E+00  0.74505805969E-08  0.10566000000E+00  0.10566000000E+00 0.  1.
     999900   -1    0    0    0    0 -0.00000000000E+00 -0.00000000000E+00 -0.74505805969E-08  0.93827000000E+00  0.93827000000E+00 0. -1.
     999902    2    1    2    0    0  0.70324610485E-02 -0.22284904978E-01 -0.16648093148E-02  0.10205025783E+01  0.10202336341E+01 0.  0.
     999903    2    3    3    0    0  0.99398278374E-01  0.23773864495E-01 -0.79510662084E-01  0.13105734037E+00  0.20220452582E-01 0.  0.
         14    1    1    2    0    0 -0.70324610485E-02  0.22284904978E-01  0.16648093148E-02  0.23427421718E-01  0.00000000000E+00 0. -1.
     999901    1    3    3    0    0 -0.92365817325E-01 -0.46058769473E-01  0.77845852769E-01  0.88944523791E+00  0.88000000000E+00 0.  1.
        -11    1    4    4    0    0  0.70111234176E-01  0.18890938356E-01 -0.67111396374E-01  0.98876960683E-01  0.51100000000E-03 0.  1.
         11    1    4    4    0    0  0.29287044198E-01  0.48829261392E-02 -0.12399265710E-01  0.32180379685E-01  0.51100000000E-03 0. -1.
</event>
<event>
 8    1  0.1088270E+005  0.1043930E+01  0.7957747E-01            NaN
         13   -1    0    0    0    0  0.00000000000E+00  0.00000000000E+00  0.74505805969E-08  0.10566000000E+00  0.10566000000E+00 0. -1.
     999900   -1    0    0    0    0 -0.00000000000E+00 -0.00000000000E+00 -0.74505805969E-08  0.93827000000E+00  0.93827000000E+00 0. -1.
     999902    2    1    2    0    0 -0.83376290426E-02 -0.21193827566E-01 -0.10815684824E-01  0.10187174352E+01  0.10184053905E+01 0.  0.
     999903    2    3    3    0    0  0.11504214739E+00  0.37737599460E-01  0.34532362761E-01  0.12700451743E+00  0.16698541250E-01 0.  0.
         14    1    1    2    0    0  0.83376290426E-02  0.21193827566E-01  0.10815684824E-01  0.25212564787E-01  0.00000000000E+00 0.  1.
     999901    1    3    3    0    0 -0.12337977643E+00 -0.58931427025E-01 -0.45348047586E-01  0.89171291778E+00  0.88000000000E+00 0.  1.
        -11    1    4    4    0    0  0.56765707417E-01  0.10035007247E-01  0.17991567052E-01  0.60390433969E-01  0.51100000000E-03 0. -1.
         11    1    4    4    0    0  0.58276439974E-01  0.27702592212E-01  0.16540795709E-01  0.66614083459E-01  0.51100000000E-03 0.  1.
</event>
<event>
 8    1  0.1088270E+005  0.1043930E+01  0.7957747E-01            NaN
         13   -1    0    0    0    0  0.00000000000E+00  0.00000000000E+00  0.74505805969E-08  0.10566000000E+00  0.10566000000E+00 0.  1.
     999900   -1    0    0    0    0 -0.00000000000E+00 -0.00000000000E+00 -0.74505805969E-08  0.93827000000E+00  0.93827000000E+00 0. -1.
     999902    2    1    2    0    0 -0.45787848683E-02  0.15319948558E-01 -0.16418044380E-01  0.10210123588E+01  0.10207551218E+01 0.  0.
     999903    2    3    3    0    0 -0.10316750837E-01 -0.23625602745E-01 -0.12899849464E+00  0.13296729355E+00  0.19367113387E-01 0.  0.
         14    1    1    2    0    0  0.45787848683E-02 -0.15319948558E-01  0.16418044380E-01  0.22917641151E-01  0.00000000000E+00 0.  1.
     999901    1    3    3    0    0  0.57379659690E-02  0.38945551303E-01  0.11258045026E+00  0.88804506530E+00  0.88000000000E+00 0.  1.
        -11    1    4    4    0    0 -0.92625269255E-02 -0.15064352995E-02 -0.26923374284E-01  0.28516538293E-01  0.51100000000E-03 0. -1.
         11    1    4    4    0    0 -0.10542239118E-02 -0.22119167446E-01 -0.10207512036E+00  0.10445075526E+00  0.51100000000E-03 0.  1.
</event>
<event>
 8    1  0.1088270E+005  0.1043930E+01  0.7957747E-01            NaN
         13   -1    0    0    0    0  0.00000000000E+00  0.00000000000E+00  0.74505805969E-08  0.10566000000E+00  0.10566000000E+00 0.  1.
     999900   -1    0    0    0    0 -0.00000000000E+00 -0.00000000000E+00 -0.74505805969E-08  0.93827000000E+00  0.93827000000E+00 0.  1.
     999902    2    1    2    0    0  0.44640181640E-02  0.22156431367E-01 -0.44538795307E-02  0.10208936819E+01  0.10206337432E+01 0.  0.
     999903    2    3    3    0    0  0.10898620152E+00  0.73671445212E-01 -0.35816532700E-02  0.13321161930E+00  0.20664784439E-01 0.  0.
         14    1    1    2    0    0 -0.44640181640E-02 -0.22156431367E-01  0.44538795307E-02  0.23036318108E-01  0.00000000000E+00 0.  1.
     999901    1    3    3    0    0 -0.10452218335E+00 -0.51515013844E-01 -0.87222626072E-03  0.88768206259E+00  0.88000000000E+00 0. -1.
        -11    1    4    4    0    0  0.78727194050E-01  0.46854849675E-01 -0.10402243703E-01  0.92205291692E-01  0.51100000000E-03 0. -1.
         11    1    4    4    0    0  0.30259007469E-01  0.26816595537E-01  0.68205904332E-02  0.41006327610E-01  0.51100000000E-03 0.  1.
</event>
<event>
 8    1  0.1088270E+005  0.1043930E+01  0.7957747E-01            NaN
         13   -1    0    0    0    0  0.00000000000E+00  0.00000000000E+00  0.74505805969E-08  0.10566000000E+00  0.10566000000E+00 0.  1.
     999900   -1    0    0    0    0 -0.00000000000E+00 -0.00000000000E+00 -0.74505805969E-08  0.93827000000E+00  0.93827000000E+00 0.  1.
     999902    2    1    2    0    0  0.71171706031E-02  0.13641945763E-01  0.18519831395E-01  0.10198521895E+01  0.10195679220E+01 0.  0.
     999903    2    3    3    0    0 -0.10365942903E+00  0.33832254773E-01  0.70030029335E-01  0.13118329502E+00  0.20370399932E-01 0.  0.
         14    1    1    2    0    0 -0.71171706031E-02 -0.13641945763E-01 -0.18519831395E-01  0.24077810459E-01  0.00000000000E+00 0. -1.
     999901    1    3    3    0    0  0.11077659963E+00 -0.20190309010E-01 -0.51510197940E-01  0.88866889452E+00  0.88000000000E+00 0.  1.
        -11    1    4    4    0    0 -0.29768095443E-01  0.14379830508E-01  0.31252608388E-01  0.45496216148E-01  0.51100000000E-03 0.  1.
         11    1    4    4    0    0 -0.73891333585E-01  0.19452424265E-01  0.38777420947E-01  0.85687078869E-01  0.51100000000E-03 0. -1.
</event>
<event>
 8    1  0.1088270E+005  0.1043930E+01  0.7957747E-01            NaN
         13   -1    0    0    0    0  0.00000000000E+00  0.00000000000E+00  0.74505805969E-08  0.10566000000E+00  0.10566000000E+00 0.  1.
     999900   -1    0    0    0    0 -0.00000000000E+00 -0.00000000000E+00 -0.74505805969E-08  0.93827000000E+00  0.93827000000E+00 0.  1.
     999902    2    1    2    0    0 -0.16923015873E-02 -0.16314006510E-01  0.17769818789E-01  0.10197478340E+01  0.10194610673E+01 0.  0.
     999903    2    3    3    0    0  0.74581391730E-01 -0.95273064987E-01  0.49747395424E-01  0.13235007953E+00  0.20059892748E-01 0.  0.
         14    1    1    2    0    0  0.16923015873E-02  0.16314006510E-01 -0.17769818789E-01  0.24182166008E-01  0.00000000000E+00 0. -1.
     999901    1    3    3    0    0 -0.76273693317E-01  0.78959058477E-01 -0.31977576635E-01  0.88739775446E+00  0.88000000000E+00 0.  1.
        -11    1    4    4    0    0  0.63392588958E-01 -0.68342863671E-01  0.34163343026E-01  0.99281229230E-01  0.51100000000E-03 0.  1.
         11    1    4    4    0    0  0.11188802771E-01 -0.26930201316E-01  0.15584052398E-01  0.33068850305E-01  0.51100000000E-03 0. -1.
</event>
<event>
 8    1  0.1088270E+005  0.1043930E+01  0.7957747E-01            NaN
         13   -1    0    0    0    0  0.00000000000E+00  0.00000000000E+00  0.74505805969E-08  0.10566000000E+00  0.10566000000E+00 0.  1.
     999900   -1    0    0    0    0 -0.00000000000E+00 -0.00000000000E+00 -0.74505805969E-08  0.93827000000E+00  0.93827000000E+00 0. -1.
     999902    2    1    2    0    0  0.19612097931E-01  0.47865634624E-02 -0.10907924602E-01  0.10209837935E+01  0.10207259074E+01 0.  0.
     999903    2    3    3    0    0  0.11172437720E+00  0.61407737629E-01  0.33110947624E-01  0.13327421795E+00  0.20308510912E-01 0.  0.
         14    1    1    2    0    0 -0.19612097931E-01 -0.47865634624E-02  0.10907924602E-01  0.22946206531E-01  0.00000000000E+00 0. -1.
     999901    1    3    3    0    0 -0.92112279271E-01 -0.56621174167E-01 -0.44018872227E-01  0.88770957552E+00  0.88000000000E+00 0. -1.
        -11    1    4    4    0    0  0.10253300161E+00  0.58243303312E-01  0.24860569123E-01  0.12051393205E+00  0.51100000000E-03 0.  1.
         11    1    4    4    0    0  0.91913755879E-02  0.31644343178E-02  0.82503785014E-02  0.12760285897E-01  0.51100000000E-03 0. -1.
</event>
<event>
 8    1  0.1088270E+005  0.1043930E+01  0.7957747E-01            NaN
         13   -1    0    0    0    0  0.00000000000E+00  0.00000000000E+00  0.74505805969E-08  0.10566000000E+00  0.10566000000E+00 0. -1.
     999900   -1    0    0    0    0 -0.00000000000E+00 -0.00000000000E+00 -0.74505805969E-08  0.93827000000E+00  0.93827000000E+00 0. -1.
     999902    2    1    2    0    0 -0.19484436157E-01  0.12748306416E-01 -0.58806409756E-02  0.10199144944E+01  0.10196317136E+01 0.  0.
     999903    2    3    3    0    0 -0.47761313168E-01  0.58818382983E-01  0.10573407884E+00  0.13121888885E+00  0.17261406380E-01 0.  0.
         14    1    1    2    0    0  0.19484436157E-01 -0.12748306416E-01  0.58806409756E-02  0.24015505557E-01  0.00000000000E+00 0.  1.
     999901    1    3    3    0    0  0.28276877011E-01 -0.46070076566E-01 -0.11161471981E+00  0.88869560560E+00  0.88000000000E+00 0. -1.
        -11    1    4    4    0    0 -0.33349579593E-01  0.50678131055E-01  0.88686875773E-01  0.10745273604E+00  0.51100000000E-03 0.  1.
         11    1    4    4    0    0 -0.14411733575E-01  0.81402519283E-02  0.17047203064E-01  0.23766152810E-01  0.51100000000E-03 0. -1.
</event>
<event>
 8    1  0.1088270E+005  0.1043930E+01  0.7957747E-01            NaN
         13   -1    0    0    0    0  0.00000000000E+00  0.00000000000E+00  0.74505805969E-08  0.10566000000E+00  0.10566000000E+00 0. -1.
     999900   -1    0    0    0    0 -0.00000000000E+00 -0.00000000000E+00 -0.74505805969E-08  0.93827000000E+00  0.93827000000E+00 0.  1.
     999902    2    1    2    0    0  0.10606928101E-01 -0.14645383385E-02  0.23270478499E-01  0.10183142438E+01  0.10179920099E+01 0.  0.
     999903    2    3    3    0    0  0.11126645931E+00  0.38266901037E-01  0.54178614099E-01  0.13114670531E+00  0.20483051646E-01 0.  0.
         14    1    1    2    0    0 -0.10606928101E-01  0.14645383385E-02 -0.23270478499E-01  0.25615756203E-01  0.00000000000E+00 0.  1.
     999901    1    3    3    0    0 -0.10065953121E+00 -0.39731439376E-01 -0.30908135600E-01  0.88716753849E+00  0.88000000000E+00 0.  1.
        -11    1    4    4    0    0  0.83575153668E-01  0.27052395937E-01  0.30392316371E-01  0.92954787138E-01  0.51100000000E-03 0.  1.
         11    1    4    4    0    0  0.27691305646E-01  0.11214505101E-01  0.23786297728E-01  0.38191918172E-01  0.51100000000E-03 0. -1.
</event>
<event>
 8    1  0.1088270E+005  0.1043930E+01  0.7957747E-01            NaN
         13   -1    0    0    0    0  0.00000000000E+00  0.00000000000E+00  0.74505805969E-08  0.10566000000E+00  0.10566000000E+00 0.  1.
     999900   -1    0    0    0    0 -0.00000000000E+00 -0.00000000000E+00 -0.74505805969E-08  0.93827000000E+00  0.93827000000E+00 0. -1.
     999902    2    1    2    0    0  0.17330168089E-01 -0.13766510003E-01 -0.76222487324E-02  0.10205216639E+01  0.10202531628E+01 0.  0.
     999903    2    3    3    0    0 -0.51390939049E-01  0.57831137145E-01 -0.10224622090E+00  0.12990249177E+00  0.20854223533E-01 0.  0.
         14    1    1    2    0    0 -0.17330168089E-01  0.13766510003E-01  0.76222487324E-02  0.23408336109E-01  0.00000000000E+00 0.  1.
     999901    1    3    3    0    0  0.68721107138E-01 -0.71597647148E-01  0.94623972169E-01  0.89061917212E+00  0.88000000000E+00 0.  1.
        -11    1    4    4    0    0 -0.23608839426E-02  0.14128093614E-01 -0.21039811338E-01  0.25458035750E-01  0.51100000000E-03 0. -1.
         11    1    4    4    0    0 -0.49030055106E-01  0.43703043531E-01 -0.81206409564E-01  0.10444445602E+00  0.51100000000E-03 0.  1.
</event>
<event>
 8    1  0.1088270E+005  0.1043930E+01  0.7957747E-01            NaN
         13   -1    0    0    0    0  0.00000000000E+00  0.00000000000E+00  0.74505805969E-08  0.10566000000E+00  0.10566000000E+00 0.  1.
     999900   -1    0    0    0    0 -0.00000000000E+00 -0.00000000000E+00 -0.74505805969E-08  0.93827000000E+00  0.93827000000E+00 0.  1.
     999902    2    1    2    0    0  0.20424426412E-01 -0.97775169121E-02  0.58365665127E-02  0.10205457630E+01  0.10202778209E+01 0.  0.
     999903    2    3    3    0    0  0.11414535281E+00 -0.24217305203E-02  0.66424152425E-01  0.13346708825E+00  0.19138162760E-01 0.  0.
         14    1    1    2    0    0 -0.20424426412E-01  0.97775169121E-02 -0.58365665127E-02  0.23384236996E-01  0.00000000000E+00 0. -1.
     999901    1    3    3    0    0 -0.93720926397E-01 -0.73557863918E-02 -0.60587585913E-01  0.88707867475E+00  0.88000000000E+00 0.  1.
        -11    1    4    4    0    0  0.49091252055E-01  0.65821249783E-02  0.35063309231E-01  0.60687496016E-01  0.51100000000E-03 0. -1.
         11    1    4    4    0    0  0.65054100754E-01 -0.90038554986E-02  0.31360843195E-01  0.72779592233E-01  0.51100000000E-03 0.  1.
</event>
<event>
 8    1  0.1088270E+005  0.1043930E+01  0.7957747E-01            NaN
         13   -1    0    0    0    0  0.00000000000E+00  0.00000000000E+00  0.74505805969E-08  0.10566000000E+00  0.10566000000E+00 0. -1.
     999900   -1    0    0    0    0 -0.00000000000E+00 -0.00000000000E+00 -0.74505805969E-08  0.93827000000E+00  0.93827000000E+00 0.  1.
     999902    2    1    2    0    0  0.19514878871E-01 -0.11798189643E-01 -0.62863392489E-02  0.10202752788E+01  0.10200010287E+01 0.  0.
     999903    2    3    3    0    0  0.65378415120E-02 -0.12857568893E+00  0.20294852271E-01  0.13206812522E+00  0.21346135878E-01 0.  0.
         14    1    1    2    0    0 -0.19514878871E-01  0.11798189643E-01  0.62863392489E-02  0.23654721249E-01  0.00000000000E+00 0. -1.
     999901    1    3    3    0    0  0.12977037359E-01  0.11677749928E+00 -0.26581191520E-01  0.88820715353E+00  0.88000000000E+00 0.  1.
        -11    1    4    4    0    0  0.11161974671E-01 -0.97790177699E-01  0.85711043155E-02  0.98798954869E-01  0.51100000000E-03 0.  1.
         11    1    4    4    0    0 -0.46241331587E-02 -0.30785511226E-01  0.11723747955E-01  0.33269170354E-01  0.51100000000E-03 0. -1.
</event>
<event>
 8    1  0.1088270E+005  0.1043930E+01  0.7957747E-01            NaN
         13   -1    0    0    0    0  0.00000000000E+00  0.00000000000E+00  0.74505805969E-08  0.10566000000E+00  0.10566000000E+00 0.  1.
     999900   -1    0    0    0    0 -0.00000000000E+00 -0.00000000000E+00 -0.74505805969E-08  0.93827000000E+00  0.93827000000E+00 0.  1.
     999902    2    1    2    0    0 -0.10486004538E-01  0.19340261535E-01 -0.11672502877E-02  0.10218990109E+01  0.10216615017E+01 0.  0.
     999903    2    3    3    0    0  0.91423918992E-01 -0.21573063429E-01  0.88348864440E-01  0.13056704835E+00  0.20457327219E-01 0.  0.
         14    1    1    2    0    0  0.10486004538E-01 -0.19340261535E-01  0.11672502877E-02  0.22030989099E-01  0.00000000000E+00 0.  1.
     999901    1    3    3    0    0 -0.10190992353E+00  0.40913324965E-01 -0.89516114728E-01  0.89133196255E+00  0.88000000000E+00 0.  1.
        -11    1    4    4    0    0  0.79774653844E-01 -0.23933918656E-01  0.70522403312E-01  0.10913522964E+00  0.51100000000E-03 0. -1.
         11    1    4    4    0    0  0.11649265147E-01  0.23608552269E-02  0.17826461128E-01  0.21431818710E-01  0.51100000000E-03 0.  1.
</event>
<event>
 8    1  0.1088270E+005  0.1043930E+01  0.7957747E-01            NaN
         13   -1    0    0    0    0  0.00000000000E+00  0.00000000000E+00  0.74505805969E-08  0.10566000000E+00  0.10566000000E+00 0. -1.
     999900   -1    0    0    0    0 -0.00000000000E+00 -0.00000000000E+00 -0.74505805969E-08  0.93827000000E+00  0.93827000000E+00 0. -1.
     999902    2    1    2    0    0 -0.15721795214E-01  0.15847160226E-01 -0.66624050996E-02  0.10206341855E+01  0.10203682892E+01 0.  0.
     999903    2    3    3    0    0 -0.11428232544E+00 -0.36949013125E-01  0.50568559180E-01  0.13171518057E+00  0.19131914051E-01 0.  0.
         14    1    1    2    0    0  0.15721795214E-01 -0.15847160226E-01  0.66624050996E-02  0.23295814510E-01  0.00000000000E+00 0.  1.
     999901    1    3    3    0    0  0.98560530228E-01  0.52796173351E-01 -0.57230964280E-01  0.88891900492E+00  0.88000000000E+00 0.  1.
        -11    1    4    4    0    0 -0.90967108085E-01 -0.21021310625E-01  0.37965464930E-01  0.10078962200E+00  0.51100000000E-03 0. -1.
         11    1    4    4    0    0 -0.23315217356E-01 -0.15927702500E-01  0.12603094251E-01  0.30925558572E-01  0.51100000000E-03 0.  1.
</event>
<event>
 8    1  0.1088270E+005  0.1043930E+01  0.7957747E-01            NaN
         13   -1    0    0    0    0  0.00000000000E+00  0.00000000000E+00  0.74505805969E-08  0.10566000000E+00  0.10566000000E+00 0.  1.
     999900   -1    0    0    0    0 -0.00000000000E+00 -0.00000000000E+00 -0.74505805969E-08  0.93827000000E+00  0.93827000000E+00 0.  1.
     999902    2    1    2    0    0  0.16240233235E-01  0.10714623342E-01  0.13277042520E-01  0.10203752088E+01  0.10201032980E+01 0.  0.
     999903    2    3    3    0    0  0.44006231222E-01  0.12270214564E+00 -0.12364219639E-01  0.13247339550E+00  0.20098797359E-01 0.  0.
         14    1    1    2    0    0 -0.16240233235E-01 -0.10714623342E-01 -0.13277042520E-01  0.23554791168E-01  0.00000000000E+00 0.  1.
     999901    1    3    3    0    0 -0.27765997987E-01 -0.11198752230E+00  0.25641262159E-01  0.88790181333E+00  0.88000000000E+00 0. -1.
        -11    1    4    4    0    0  0.27617882997E-01  0.96976087211E-01 -0.43299181361E-02  0.10092630115E+00  0.51100000000E-03 0. -1.
         11    1    4    4    0    0  0.16388348226E-01  0.25726058434E-01 -0.80343015026E-02  0.31547094347E-01  0.51100000000E-03 0.  1.
</event>
<event>
 8    1  0.1088270E+005  0.1043930E+01  0.7957747E-01            NaN
         13   -1    0    0    0    0  0.00000000000E+00  0.00000000000E+00  0.74505805969E-08  0.10566000000E+00  0.10566000000E+00 0. -1.
     999900   -1    0    0    0    0 -0.00000000000E+00 -0.00000000000E+00 -0.74505805969E-08  0.93827000000E+00  0.93827000000E+00 0.  1.
     999902    2    1    2    0    0 -0.16099526930E-01  0.12714265876E-01  0.13539347872E-01  0.10193503079E+01  0.10190539185E+01 0.  0.
     999903    2    3    3    0    0 -0.99082189513E-01 -0.68846613724E-01 -0.44212127941E-01  0.12981473673E+00  0.18439553033E-01 0.  0.
         14    1    1    2    0    0  0.16099526930E-01 -0.12714265876E-01 -0.13539347872E-01  0.24579692124E-01  0.00000000000E+00 0. -1.
     999901    1    3    3    0    0  0.82982662583E-01  0.81560879600E-01  0.57751475813E-01  0.88953557114E+00  0.88000000000E+00 0. -1.
        -11    1    4    4    0    0 -0.96699598690E-01 -0.69524637204E-01 -0.44749055658E-01  0.12722903233E+00  0.51100000000E-03 0.  1.
         11    1    4    4    0    0 -0.23825908231E-02  0.67802348048E-03  0.53692771667E-03  0.25857043998E-02  0.51100000000E-03 0. -1.
</event>
<event>
 8    1  0.1088270E+005  0.1043930E+01  0.7957747E-01            NaN
         13   -1    0    0    0    0  0.00000000000E+00  0.00000000000E+00  0.74505805969E-08  0.10566000000E+00  0.10566000000E+00 0.  1.
     999900   -1    0    0    0    0 -0.00000000000E+00 -0.00000000000E+00 -0.74505805969E-08  0.93827000000E+00  0.93827000000E+00 0.  1.
     999902    2    1    2    0    0 -0.23702135837E-01  0.76341087813E-02  0.31936502622E-02  0.10188248160E+01  0.10185154567E+01 0.  0.
     999903    2    3    3    0    0  0.11639486392E+00  0.10113817912E-01  0.46233921453E-01  0.12670050673E+00  0.16290772041E-01 0.  0.
         14    1    1    2    0    0  0.23702135837E-01 -0.76341087813E-02 -0.31936502622E-02  0.25105183969E-01  0.00000000000E+00 0. -1.
     999901    1    3    3    0    0 -0.14009699976E+00 -0.24797091306E-02 -0.43040271191E-01  0.89212430930E+00  0.88000000000E+00 0.  1.
        -11    1    4    4    0    0  0.64103389638E-01  0.12949163397E-01  0.22068241094E-01  0.69023139466E-01  0.51100000000E-03 0.  1.
         11    1    4    4    0    0  0.52291474281E-01 -0.28353454848E-02  0.24165680359E-01  0.57677367266E-01  0.51100000000E-03 0. -1.
</event>
<event>
 8    1  0.1088270E+005  0.1043930E+01  0.7957747E-01            NaN
         13   -1    0    0    0    0  0.00000000000E+00  0.00000000000E+00  0.74505805969E-08  0.10566000000E+00  0.10566000000E+00 0.  1.
     999900   -1    0    0    0    0 -0.00000000000E+00 -0.00000000000E+00 -0.74505805969E-08  0.93827000000E+00  0.93827000000E+00 0.  1.
     999902    2    1    2    0    0  0.19515175019E-01  0.12057265776E-01 -0.23526817654E-02  0.10208701903E+01  0.10206097151E+01 0.  0.
     999903    2    3    3    0    0  0.15533812255E-01  0.11014783293E-01  0.12830965047E+00  0.13121318720E+00  0.19771426769E-01 0.  0.
         14    1    1    2    0    0 -0.19515175019E-01 -0.12057265776E-01  0.23526817654E-02  0.23059809746E-01  0.00000000000E+00 0. -1.
     999901    1    3    3    0    0  0.39813627645E-02  0.10424824836E-02 -0.13066233224E+00  0.88965700306E+00  0.88000000000E+00 0.  1.
        -11    1    4    4    0    0  0.38299495564E-02  0.22633388178E-03  0.84668940603E-01  0.84757361713E-01  0.51100000000E-03 0.  1.
         11    1    4    4    0    0  0.11703862698E-01  0.10788449411E-01  0.43640709869E-01  0.46455825486E-01  0.51100000000E-03 0. -1.
</event>
<event>
 8    1  0.1088270E+005  0.1043930E+01  0.7957747E-01            NaN
         13   -1    0    0    0    0  0.00000000000E+00  0.00000000000E+00  0.74505805969E-08  0.10566000000E+00  0.10566000000E+00 0.  1.
     999900   -1    0    0    0    0 -0.00000000000E+00 -0.00000000000E+00 -0.74505805969E-08  0.93827000000E+00  0.93827000000E+00 0.  1.
     999902    2    1    2    0    0  0.20343292996E-01  0.78750880902E-02  0.10516142872E-01  0.10197131496E+01  0.10194255498E+01 0.  0.
     999903    2    3    3    0    0  0.83469455162E-01 -0.82479796504E-01  0.58638792417E-01  0.13153258974E+00  0.96045515481E-02 0.  0.
         14    1    1    2    0    0 -0.20343292996E-01 -0.78750880902E-02 -0.10516142872E-01  0.24216850399E-01  0.00000000000E+00 0. -1.
     999901    1    3    3    0    0 -0.63126162167E-01  0.90354884595E-01 -0.48122649545E-01  0.88818055986E+00  0.88000000000E+00 0.  1.
        -11    1    4    4    0    0  0.50133214444E-01 -0.54080258185E-01  0.40447664910E-01  0.84108788087E-01  0.51100000000E-03 0. -1.
         11    1    4    4    0    0  0.33336240719E-01 -0.28399538320E-01  0.18191127507E-01  0.47423801651E-01  0.51100000000E-03 0.  1.
</event>
<event>
 8    1  0.1088270E+005  0.1043930E+01  0.7957747E-01            NaN
         13   -1    0    0    0    0  0.00000000000E+00  0.00000000000E+00  0.74505805969E-08  0.10566000000E+00  0.10566000000E+00 0. -1.
     999900   -1    0    0    0    0 -0.00000000000E+00 -0.00000000000E+00 -0.74505805969E-08  0.93827000000E+00  0.93827000000E+00 0.  1.
     999902    2    1    2    0    0 -0.66649966746E-02  0.22368971613E-01  0.48771134757E-02  0.10200850989E+01  0.10198063687E+01 0.  0.
     999903    2    3    3    0    0  0.13973239363E-01 -0.74035289573E-01 -0.10186232203E+00  0.12816972992E+00  0.19366762704E-01 0.  0.
         14    1    1    2    0    0  0.66649966746E-02 -0.22368971613E-01 -0.48771134757E-02  0.23844901080E-01  0.00000000000E+00 0.  1.
     999901    1    3    3    0    0 -0.20638236038E-01  0.96404261186E-01  0.10673943551E+00  0.89191536900E+00  0.88000000000E+00 0. -1.
        -11    1    4    4    0    0  0.15507221256E-01 -0.49132040362E-01 -0.79048791914E-01  0.94357850364E-01  0.51100000000E-03 0. -1.
         11    1    4    4    0    0 -0.15339818929E-02 -0.24903249211E-01 -0.22813530120E-01  0.33811879558E-01  0.51100000000E-03 0.  1.
</event>
<event>
 8    1  0.1088270E+005  0.1043930E+01  0.7957747E-01            NaN
         13   -1    0    0    0    0  0.00000000000E+00  0.00000000000E+00  0.74505805969E-08  0.10566000000E+00  0.10566000000E+00 0.  1.
     999900   -1    0    0    0    0 -0.00000000000E+00 -0.00000000000E+00 -0.74505805969E-08  0.93827000000E+00  0.93827000000E+00 0. -1.
     999902    2    1    2    0    0  0.16140235574E-02 -0.23848105084E-01 -0.28122095132E-02  0.10198624760E+01  0.10195784542E+01 0.  0.
     999903    2    3    3    0    0  0.31781358401E-02  0.11261542333E+00  0.56196764878E-01  0.12739017948E+00  0.19438295362E-01 0.  0.
         14    1    1    2    0    0 -0.16140235574E-02  0.23848105084E-01  0.28122095132E-02  0.24067523980E-01  0.00000000000E+00 0.  1.
     999901    1    3    3    0    0 -0.15641122827E-02 -0.13646352841E+00 -0.59008974391E-01  0.89247229654E+00  0.88000000000E+00 0. -1.
        -11    1    4    4    0    0  0.30607827035E-02  0.90386908840E-01  0.53273274903E-01  0.10496411111E+00  0.51100000000E-03 0. -1.
         11    1    4    4    0    0  0.11735313655E-03  0.22228514487E-01  0.29234899750E-02  0.22426068374E-01  0.51100000000E-03 0.  1.
</event>
<event>
 8    1  0.1088270E+005  0.1043930E+01  0.7957747E-01            NaN
         13   -1    0    0    0    0  0.00000000000E+00  0.00000000000E+00  0.74505805969E-08  0.10566000000E+00  0.10566000000E+00 0. -1.
     999900   -1    0    0    0    0 -0.00000000000E+00 -0.00000000000E+00 -0.74505805969E-08  0.93827000000E+00  0.93827000000E+00 0.  1.
     999902    2    1    2    0    0  0.11321486482E-01  0.11443762108E-01 -0.18685198086E-01  0.10192668215E+01  0.10189683906E+01 0.  0.
     999903    2    3    3    0    0  0.87578445919E-01  0.82035472946E-01  0.47889048181E-01  0.13065529569E+00  0.19433022002E-01 0.  0.
         14    1    1    2    0    0 -0.11321486482E-01 -0.11443762108E-01  0.18685198086E-01  0.24663178523E-01  0.00000000000E+00 0. -1.
     999901    1    3    3    0    0 -0.76256959437E-01 -0.70591710838E-01 -0.66574246267E-01  0.88861152579E+00  0.88000000000E+00 0. -1.
        -11    1    4    4    0    0  0.45355674891E-01  0.32537742841E-01  0.29007637032E-01  0.62909030204E-01  0.51100000000E-03 0.  1.
         11    1    4    4    0    0  0.42222771028E-01  0.49497730105E-01  0.18881411149E-01  0.67746265482E-01  0.51100000000E-03 0. -1.
</event>
<event>
 8    1  0.1088270E+005  0.1043930E+01  0.7957747E-01            NaN
         13   -1    0    0    0    0  0.00000000000E+00  0.00000000000E+00  0.74505805969E-08  0.10566000000E+00  0.10566000000E+00 0. -1.
     999900   -1    0    0    0    0 -0.00000000000E+00 -0.00000000000E+00 -0.74505805969E-08  0.93827000000E+00  0.93827000000E+00 0.  1.
     999902    2    1    2    0    0  0.14784123945E-01  0.16075314138E-01 -0.71067906161E-02  0.10209627947E+01  0.10207044311E+01 0.  0.
     999903    2    3    3    0    0  0.12828084567E-01 -0.11703795131E+00 -0.51813489323E-01  0.12982775645E+00  0.17554682200E-01 0.  0.
         14    1    1    2    0    0 -0.14784123945E-01 -0.16075314138E-01  0.71067906161E-02  0.22967205279E-01  0.00000000000E+00 0. -1.
     999901    1    3    3    0    0  0.19560393777E-02  0.13311326545E+00  0.44706698706E-01  0.89113503827E+00  0.88000000000E+00 0.  1.
        -11    1    4    4    0    0  0.37494033353E-02 -0.40082046042E-01 -0.88434793741E-02  0.41220100542E-01  0.51100000000E-03 0. -1.
         11    1    4    4    0    0  0.90786812315E-02 -0.76955905272E-01 -0.42970009948E-01  0.88607655906E-01  0.51100000000E-03 0.  1.
</event>
<event>
 8    1  0.1088270E+005  0.1043930E+01  0.7957747E-01            NaN
         13   -1    0    0    0    0  0.00000000000E+00  0.00000000000E+00  0.74505805969E-08  0.10566000000E+00  0.10566000000E+00 0. -1.
     999900   -1    0    0    0    0 -0.00000000000E+00 -0.00000000000E+00 -0.74505805969E-08  0.93827000000E+00  0.93827000000E+00 0.  1.
     999902    2    1    2    0    0  0.90027788397E-02 -0.21249364599E-01  0.49509127418E-02  0.10203270964E+01  0.10200540606E+01 0.  0.
     999903    2    3    3    0    0  0.10051676031E+00 -0.84731330285E-01  0.86011300630E-02  0.13329942326E+00  0.20291361911E-01 0.  0.
         14    1    1    2    0    0 -0.90027788397E-02  0.21249364599E-01 -0.49509127418E-02  0.23602903628E-01  0.00000000000E+00 0.  1.
     999901    1    3    3    0    0 -0.91513981474E-01  0.63481965686E-01 -0.36502173213E-02  0.88702767311E+00  0.88000000000E+00 0.  1.
        -11    1    4    4    0    0  0.34547032941E-01 -0.27364214895E-01 -0.65878721482E-02  0.44564099029E-01  0.51100000000E-03 0.  1.
         11    1    4    4    0    0  0.65969727373E-01 -0.57367115391E-01  0.15189002211E-01  0.88735324235E-01  0.51100000000E-03 0. -1.
</event>
<event>
 8    1  0.1088270E+005  0.1043930E+01  0.7957747E-01            NaN
         13   -1    0    0    0    0  0.00000000000E+00  0.00000000000E+00  0.74505805969E-08  0.10566000000E+00  0.10566000000E+00 0. -1.
     999900   -1    0    0    0    0 -0.00000000000E+00 -0.00000000000E+00 -0.74505805969E-08  0.93827000000E+00  0.93827000000E+00 0. -1.
     999902    2    1    2    0    0  0.31407507948E-02  0.19828279435E-01 -0.11326266686E-01  0.10208798525E+01  0.10206195981E+01 0.  0.
     999903    2    3    3    0    0 -0.23266216334E-01 -0.17783901884E-04 -0.12896001452E+00  0.13243801833E+00  0.19178795955E-01 0.  0.
         14    1    1    2    0    0 -0.31407507948E-02 -0.19828279435E-01  0.11326266686E-01  0.23050147460E-01  0.00000000000E+00 0.  1.
     999901    1    3    3    0    0  0.26406967129E-01  0.19846063337E-01  0.11763374784E+00  0.88844183421E+00  0.88000000000E+00 0.  1.
        -11    1    4    4    0    0 -0.78083647151E-02 -0.83378773385E-02 -0.69652937149E-01  0.70585292608E-01  0.51100000000E-03 0.  1.
         11    1    4    4    0    0 -0.15457851619E-01  0.83200934366E-02 -0.59307077376E-01  0.61852725723E-01  0.51100000000E-03 0. -1.
</event>
<event>
 8    1  0.1088270E+005  0.1043930E+01  0.7957747E-01            NaN
         13   -1    0    0    0    0  0.00000000000E+00  0.00000000000E+00  0.74505805969E-08  0.10566000000E+00  0.10566000000E+00 0. -1.
     999900   -1    0    0    0    0 -0.00000000000E+00 -0.00000000000E+00 -0.74505805969E-08  0.93827000000E+00  0.93827000000E+00 0.  1.
     999902    2    1    2    0    0 -0.54349330189E-02  0.18517250731E-01  0.12993792131E-01  0.10206648822E+01  0.10203996943E+01 0.  0.
     999903    2    3    3    0    0 -0.77481947031E-01  0.96980808527E-01  0.45358614921E-01  0.13365034802E+00  0.19906838994E-01 0.  0.
         14    1    1    2    0    0  0.54349330189E-02 -0.18517250731E-01 -0.12993792131E-01  0.23265117783E-01  0.00000000000E+00 0.  1.
     999901    1    3    3    0    0  0.72047014012E-01 -0.78463557797E-01 -0.32364822790E-01  0.88701453420E+00  0.88000000000E+00 0. -1.
        -11    1    4    4    0    0 -0.36148750058E-01  0.44269445518E-01  0.31443194947E-01  0.65233822260E-01  0.51100000000E-03 0.  1.
         11    1    4    4    0    0 -0.41333196974E-01  0.52711363009E-01  0.13915419974E-01  0.68416525755E-01  0.51100000000E-03 0. -1.
</event>
<event>
 8    1  0.1088270E+005  0.1043930E+01  0.7957747E-01            NaN
         13   -1    0    0    0    0  0.00000000000E+00  0.00000000000E+00  0.74505805969E-08  0.10566000000E+00  0.10566000000E+00 0.  1.
     999900   -1    0    0    0    0 -0.00000000000E+00 -0.00000000000E+00 -0.74505805969E-08  0.93827000000E+00  0.93827000000E+00 0. -1.
     999902    2    1    2    0    0 -0.16112581844E-01  0.16188003750E-01  0.80355849360E-02  0.10197176605E+01  0.10194301691E+01 0.  0.
     999903    2    3    3    0    0 -0.69905338418E-01 -0.67405612480E-01 -0.82357971662E-01  0.12951962162E+00  0.23711262220E-01 0.  0.
         14    1    1    2    0    0  0.16112581844E-01 -0.16188003750E-01 -0.80355849360E-02  0.24212339506E-01  0.00000000000E+00 0. -1.
     999901    1    3    3    0    0  0.53792756575E-01  0.83593616230E-01  0.90393556598E-01  0.89019803887E+00  0.88000000000E+00 0.  1.
        -11    1    4    4    0    0 -0.43582945184E-01 -0.27157421543E-01 -0.49070883011E-01  0.71029651106E-01  0.51100000000E-03 0.  1.
         11    1    4    4    0    0 -0.26322393234E-01 -0.40248190937E-01 -0.33287088651E-01  0.58489970517E-01  0.51100000000E-03 0. -1.
</event>
<event>
 8    1  0.1088270E+005  0.1043930E+01  0.7957747E-01            NaN
         13   -1    0    0    0    0  0.00000000000E+00  0.00000000000E+00  0.74505805969E-08  0.10566000000E+00  0.10566000000E+00 0. -1.
     999900   -1    0    0    0    0 -0.00000000000E+00 -0.00000000000E+00 -0.74505805969E-08  0.93827000000E+00  0.93827000000E+00 0.  1.
     999902    2    1    2    0    0  0.16057757818E-01  0.12984203463E-01 -0.65411220382E-02  0.10222683426E+01  0.10220388137E+01 0.  0.
     999903    2    3    3    0    0  0.78944111497E-01 -0.10032506208E+00  0.27723080228E-01  0.13211795150E+00  0.19730512182E-01 0.  0.
         14    1    1    2    0    0 -0.16057757818E-01 -0.12984203463E-01  0.65411220382E-02  0.21661657444E-01  0.00000000000E+00 0.  1.
     999901    1    3    3    0    0 -0.62886353679E-01  0.11330926554E+00 -0.34264202266E-01  0.89015039105E+00  0.88000000000E+00 0.  1.
        -11    1    4    4    0    0  0.41724132673E-01 -0.66525561219E-01  0.12019994370E-01  0.79443658831E-01  0.51100000000E-03 0.  1.
         11    1    4    4    0    0  0.37219978825E-01 -0.33799500858E-01  0.15703085858E-01  0.52674292671E-01  0.51100000000E-03 0. -1.
</event>
<event>
 8    1  0.1088270E+005  0.1043930E+01  0.7957747E-01            NaN
         13   -1    0    0    0    0  0.00000000000E+00  0.00000000000E+00  0.74505805969E-08  0.10566000000E+00  0.10566000000E+00 0.  1.
     999900   -1    0    0    0    0 -0.00000000000E+00 -0.00000000000E+00 -0.74505805969E-08  0.93827000000E+00  0.93827000000E+00 0.  1.
     999902    2    1    2    0    0 -0.25004320593E-02 -0.16929984596E-01  0.16987693977E-01  0.10198165538E+01  0.10195314341E+01 0.  0.
     999903    2    3    3    0    0  0.80282703865E-01  0.59961291827E-01 -0.76578982313E-01  0.12767304583E+00  0.19884593059E-01 0.  0.
         14    1    1    2    0    0  0.25004320593E-02  0.16929984596E-01 -0.16987693977E-01  0.24113446157E-01  0.00000000000E+00 0. -1.
     999901    1    3    3    0    0 -0.82783135924E-01 -0.76891276423E-01  0.93566676290E-01  0.89214350802E+00  0.88000000000E+00 0. -1.
        -11    1    4    4    0    0  0.32472432423E-01  0.36465787145E-01 -0.34591093053E-01  0.59841602078E-01  0.51100000000E-03 0.  1.
         11    1    4    4    0    0  0.47810271442E-01  0.23495504682E-01 -0.41987889260E-01  0.67831443749E-01  0.51100000000E-03 0. -1.
</event>
<event>
 8    1  0.1088270E+005  0.1043930E+01  0.7957747E-01            NaN
         13   -1    0    0    0    0  0.00000000000E+00  0.00000000000E+00  0.74505805969E-08  0.10566000000E+00  0.10566000000E+00 0. -1.
     999900   -1    0    0    0    0 -0.00000000000E+00 -0.00000000000E+00 -0.74505805969E-08  0.93827000000E+00  0.93827000000E+00 0. -1.
     999902    2    1    2    0    0  0.19106874896E-01  0.11740932626E-01 -0.65491915630E-02  0.10205673358E+01  0.10202998936E+01 0.  0.
     999903    2    3    3    0    0 -0.20264091502E-02 -0.44150919804E-01  0.12003864845E+00  0.12950336724E+00  0.20209773657E-01 0.  0.
         14    1    1    2    0    0 -0.19106874896E-01 -0.11740932626E-01  0.65491915630E-02  0.23362664175E-01  0.00000000000E+00 0. -1.
     999901    1    3    3    0    0  0.21133284046E-01  0.55891852430E-01 -0.12658784002E+00  0.89106396858E+00  0.88000000000E+00 0. -1.
        -11    1    4    4    0    0 -0.62991756182E-02 -0.30578961992E-01  0.58205841478E-01  0.66052506638E-01  0.51100000000E-03 0. -1.
         11    1    4    4    0    0  0.42727664680E-02 -0.13571957812E-01  0.61832806976E-01  0.63450860607E-01  0.51100000000E-03 0.  1.
</event>
<event>
 8    1  0.1088270E+005  0.1043930E+01  0.7957747E-01            NaN
         13   -1    0    0    0    0  0.00000000000E+00  0.00000000000E+00  0.74505805969E-08  0.10566000000E+00  0.10566000000E+00 0.  1.
     999900   -1    0    0    0    0 -0.00000000000E+00 -0.00000000000E+00 -0.74505805969E-08  0.93827000000E+00  0.93827000000E+00 0.  1.
     999902    2    1    2    0    0 -0.60800529289E-02 -0.17498844034E-01  0.17057094448E-01  0.10187482396E+01  0.10184369664E+01 0.  0.
     999903    2    3    3    0    0 -0.25922718323E-01 -0.12084523758E+00  0.42283788878E-01  0.13211945902E+00  0.19800855537E-01 0.  0.
         14    1    1    2    0    0  0.60800529289E-02  0.17498844034E-01 -0.17057094448E-01  0.25181760406E-01  0.00000000000E+00 0. -1.
     999901    1    3    3    0    0  0.19842665394E-01  0.10334639354E+00 -0.25226694429E-01  0.88662878057E+00  0.88000000000E+00 0. -1.
        -11    1    4    4    0    0 -0.19599377315E-01 -0.92345653789E-01  0.40918510488E-01  0.10289043195E+00  0.51100000000E-03 0.  1.
         11    1    4    4    0    0 -0.63233410083E-02 -0.28499583788E-01  0.13652783897E-02  0.29229027074E-01  0.51100000000E-03 0. -1.
</event>
<event>
 8    1  0.1088270E+005  0.1043930E+01  0.7957747E-01            NaN
         13   -1    0    0    0    0  0.00000000000E+00  0.00000000000E+00  0.74505805969E-08  0.10566000000E+00  0.10566000000E+00 0.  1.
     999900   -1    0    0    0    0 -0.00000000000E+00 -0.00000000000E+00 -0.74505805969E-08  0.93827000000E+00  0.93827000000E+00 0. -1.
     999902    2    1    2    0    0  0.22288469417E-01  0.13023385880E-02  0.80698524083E-02  0.10201898553E+01  0.10199135975E+01 0.  0.
     999903    2    3    3    0    0  0.67989184865E-01  0.11702277598E-01  0.11233407569E+00  0.13279606308E+00  0.16011784722E-01 0.  0.
         14    1    1    2    0    0 -0.22288469417E-01 -0.13023385880E-02 -0.80698524083E-02  0.23740144748E-01  0.00000000000E+00 0. -1.
     999901    1    3    3    0    0 -0.45700715448E-01 -0.10399939010E-01 -0.10426422328E+00  0.88739379217E+00  0.88000000000E+00 0. -1.
        -11    1    4    4    0    0  0.37504571544E-02  0.26647647888E-02  0.15989117294E-01  0.16645716959E-01  0.51100000000E-03 0.  1.
         11    1    4    4    0    0  0.64238727710E-01  0.90375128096E-02  0.96344958395E-01  0.11615034612E+00  0.51100000000E-03 0. -1.
</event>
<event>
 8    1  0.1088270E+005  0.1043930E+01  0.7957747E-01            NaN
         13   -1    0    0    0    0  0.00000000000E+00  0.00000000000E+00  0.74505805969E-08  0.10566000000E+00  0.10566000000E+00 0. -1.
     999900   -1    0    0    0    0 -0.00000000000E+00 -0.00000000000E+00 -0.74505805969E-08  0.93827000000E+00  0.93827000000E+00 0. -1.
     999902    2    1    2    0    0  0.19171000158E-01 -0.11259695320E-01  0.90130145014E-02  0.10199395349E+01  0.10196573505E+01 0.  0.
     999903    2    3    3    0    0 -0.11509261910E+00  0.41519863857E-01  0.32236543359E-01  0.12789035821E+00  0.18615556152E-01 0.  0.
         14    1    1    2    0    0 -0.19171000158E-01  0.11259695320E-01 -0.90130145014E-02  0.23990465109E-01  0.00000000000E+00 0.  1.
     999901    1    3    3    0    0  0.13426361925E+00 -0.52779559177E-01 -0.23223528858E-01  0.89204917668E+00  0.88000000000E+00 0. -1.
        -11    1    4    4    0    0 -0.49152452204E-01  0.99759287707E-02  0.74708357208E-02  0.50710523759E-01  0.51100000000E-03 0.  1.
         11    1    4    4    0    0 -0.65940166891E-01  0.31543935086E-01  0.24765707638E-01  0.77179834452E-01  0.51100000000E-03 0. -1.
</event>
<event>
 7    1  0.1088270E+005  0.1043930E+01  0.7957747E-01            NaN
         13   -1    0    0    0    0  0.00000000000E+00  0.00000000000E+00  0.74505805969E-08  0.10566000000E+00  0.10566000000E+00 0.  1.
     999900   -1    0    0    0    0 -0.00000000000E+00 -0.00000000000E+00 -0.74505805969E-08  0.93827000000E+00  0.93827000000E+00 0.  1.
     999903    2    1    2    0    0  0.12857503170E-01  0.85981204174E-01 -0.47059564880E-01  0.10088069808E+00  0.20105465415E-01 0.  0.
         14    1    1    2    0    0  0.35359060089E-01  0.32246413331E-01 -0.18763077978E-01  0.51401822909E-01  0.00000000000E+00 0. -1.
     999901    1    1    2    0    0 -0.48216563259E-01 -0.11822761751E+00  0.65822642858E-01  0.89164747901E+00  0.88000000000E+00 0.  1.
        -11    1    3    3    0    0  0.82952029089E-02  0.62499722438E-01 -0.23456579860E-01  0.67271821410E-01  0.51100000000E-03 0.  1.
         11    1    3    3    0    0  0.45623002608E-02  0.23481481736E-01 -0.23602985020E-01  0.33608876670E-01  0.51100000000E-03 0. -1.
</event>
<event>
 8    1  0.1088270E+005  0.1043930E+01  0.7957747E-01            NaN
         13   -1    0    0    0    0  0.00000000000E+00  0.00000000000E+00  0.74505805969E-08  0.10566000000E+00  0.10566000000E+00 0.  1.
     999900   -1    0    0    0    0 -0.00000000000E+00 -0.00000000000E+00 -0.74505805969E-08  0.93827000000E+00  0.93827000000E+00 0.  1.
     999902    2    1    2    0    0  0.14757753708E-01 -0.22045333102E-02  0.18317736747E-01  0.10203039394E+01  0.10200303613E+01 0.  0.
     999903    2    3    3    0    0 -0.46064894569E-01 -0.26645659604E-01  0.11909274964E+00  0.13213032659E+00  0.21056459859E-01 0.  0.
         14    1    1    2    0    0 -0.14757753708E-01  0.22045333102E-02 -0.18317736747E-01  0.23626060635E-01  0.00000000000E+00 0. -1.
     999901    1    3    3    0    0  0.60822648277E-01  0.24441126294E-01 -0.10077501289E+00  0.88817361277E+00  0.88000000000E+00 0.  1.
        -11    1    4    4    0    0 -0.17513720574E-02 -0.92604792979E-02  0.15983832156E-01  0.18562537335E-01  0.51100000000E-03 0. -1.
         11    1    4    4    0    0 -0.44313522512E-01 -0.17385180306E-01  0.10310891748E+00  0.11356778926E+00  0.51100000000E-03 0.  1.
</event>
<event>
 8    1  0.1088270E+005  0.1043930E+01  0.7957747E-01            NaN
         13   -1    0    0    0    0  0.00000000000E+00  0.00000000000E+00  0.74505805969E-08  0.10566000000E+00  0.10566000000E+00 0. -1.
     999900   -1    0    0    0    0 -0.00000000000E+00 -0.00000000000E+00 -0.74505805969E-08  0.93827000000E+00  0.93827000000E+00 0. -1.
     999902    2    1    2    0    0  0.34429913059E-02 -0.20128920044E-01  0.11433901789E-01  0.10205256901E+01  0.10202572825E+01 0.  0.
     999903    2    3    3    0    0 -0.10474598992E+00  0.72479955140E-01  0.55319017921E-02  0.12905718645E+00  0.20002228232E-01 0.  0.
         14    1    1    2    0    0 -0.34429913059E-02  0.20128920044E-01 -0.11433901789E-01  0.23404309889E-01  0.00000000000E+00 0.  1.
     999901    1    3    3    0    0  0.10818898123E+00 -0.92608875184E-01  0.59019999966E-02  0.89146850366E+00  0.88000000000E+00 0. -1.
        -11    1    4    4    0    0 -0.69231576356E-01  0.40510490495E-01 -0.40599357103E-02  0.80317216112E-01  0.51100000000E-03 0.  1.
         11    1    4    4    0    0 -0.35514413565E-01  0.31969464645E-01  0.95918375025E-02  0.48739970335E-01  0.51100000000E-03 0. -1.
</event>
<event>
 8    1  0.1088270E+005  0.1043930E+01  0.7957747E-01            NaN
         13   -1    0    0    0    0  0.00000000000E+00  0.00000000000E+00  0.74505805969E-08  0.10566000000E+00  0.10566000000E+00 0.  1.
     999900   -1    0    0    0    0 -0.00000000000E+00 -0.00000000000E+00 -0.74505805969E-08  0.93827000000E+00  0.93827000000E+00 0. -1.
     999902    2    1    2    0    0  0.20372617156E-01  0.53774792815E-03  0.10866436477E-01  0.10208342830E+01  0.10205729867E+01 0.  0.
     999903    2    3    3    0    0 -0.79268517610E-01  0.10013140620E+00 -0.15817879737E-01  0.12922937876E+00  0.11841901214E-01 0.  0.
         14    1    1    2    0    0 -0.20372617156E-01 -0.53774792815E-03 -0.10866436477E-01  0.23095717013E-01  0.00000000000E+00 0. -1.
     999901    1    3    3    0    0  0.99641134766E-01 -0.99593658272E-01  0.26684316213E-01  0.89160490422E+00  0.88000000000E+00 0. -1.
        -11    1    4    4    0    0 -0.16820402664E-01  0.26914949119E-01 -0.23596925172E-03  0.31743617222E-01  0.51100000000E-03 0.  1.
         11    1    4    4    0    0 -0.62448114946E-01  0.73216457081E-01 -0.15581910485E-01  0.97485761541E-01  0.51100000000E-03 0. -1.
</event>
<event>
 8    1  0.1088270E+005  0.1043930E+01  0.7957747E-01            NaN
         13   -1    0    0    0    0  0.00000000000E+00  0.00000000000E+00  0.74505805969E-08  0.10566000000E+00  0.10566000000E+00 0.  1.
     999900   -1    0    0    0    0 -0.00000000000E+00 -0.00000000000E+00 -0.74505805969E-08  0.93827000000E+00  0.93827000000E+00 0.  1.
     999902    2    1    2    0    0 -0.76940732462E-03  0.22937515857E-01 -0.82830792162E-02  0.10195305938E+01  0.10192385887E+01 0.  0.
     999903    2    3    3    0    0  0.61181296026E-01 -0.10892412738E+00 -0.16192962420E-01  0.12751716966E+00  0.19768662508E-01 0.  0.
         14    1    1    2    0    0  0.76940732462E-03 -0.22937515857E-01  0.82830792162E-02  0.24399406194E-01  0.00000000000E+00 0.  1.
     999901    1    3    3    0    0 -0.61950703350E-01  0.13186164324E+00  0.79098832041E-02  0.89201342415E+00  0.88000000000E+00 0. -1.
        -11    1    4    4    0    0  0.30604179083E-02 -0.20009337377E-01 -0.20187151827E-02  0.20348859231E-01  0.51100000000E-03 0. -1.
         11    1    4    4    0    0  0.58120878117E-01 -0.88914790004E-01 -0.14174247238E-01  0.10716831043E+00  0.51100000000E-03 0.  1.
</event>
<event>
 8    1  0.1088270E+005  0.1043930E+01  0.7957747E-01            NaN
         13   -1    0    0    0    0  0.00000000000E+00  0.00000000000E+00  0.74505805969E-08  0.10566000000E+00  0.10566000000E+00 0.  1.
     999900   -1    0    0    0    0 -0.00000000000E+00 -0.00000000000E+00 -0.74505805969E-08  0.93827000000E+00  0.93827000000E+00 0.  1.
     999902    2    1    2    0    0 -0.28627124225E-02 -0.12329522903E-01 -0.20693396246E-01  0.10196724464E+01  0.10193838674E+01 0.  0.
     999903    2    3    3    0    0 -0.23592512349E-01 -0.12590849984E+00 -0.25638133720E-01  0.13211717545E+00  0.19699674550E-01 0.  0.
         14    1    1    2    0    0  0.28627124225E-02  0.12329522903E-01  0.20693396246E-01  0.24257553579E-01  0.00000000000E+00 0.  1.
     999901    1    3    3    0    0  0.20729799927E-01  0.11357897693E+00  0.49447374737E-02  0.88755527097E+00  0.88000000000E+00 0.  1.
        -11    1    4    4    0    0 -0.12545607245E-01 -0.23881384642E-01 -0.53254533252E-02  0.27501533915E-01  0.51100000000E-03 0. -1.
         11    1    4    4    0    0 -0.11046905104E-01 -0.10202711519E+00 -0.20312680395E-01  0.10461564153E+00  0.51100000000E-03 0.  1.
</event>
<event>
 8    1  0.1088270E+005  0.1043930E+01  0.7957747E-01            NaN
         13   -1    0    0    0    0  0.00000000000E+00  0.00000000000E+00  0.74505805969E-08  0.10566000000E+00  0.10566000000E+00 0.  1.
     999900   -1    0    0    0    0 -0.00000000000E+00 -0.00000000000E+00 -0.74505805969E-08  0.93827000000E+00  0.93827000000E+00 0.  1.
     999902    2    1    2    0    0  0.86974930701E-02 -0.14227388208E-01 -0.19355326384E-01  0.10183821308E+01  0.10180616242E+01 0.  0.
     999903    2    3    3    0    0 -0.25516861857E-01  0.36277815462E-01  0.11613555383E+00  0.12592531039E+00  0.20063070557E-01 0.  0.
         14    1    1    2    0    0 -0.86974930701E-02  0.14227388208E-01  0.19355326384E-01  0.25547869194E-01  0.00000000000E+00 0. -1.
     999901    1    3    3    0    0  0.34214354927E-01 -0.50505203670E-01 -0.13549088021E+00  0.89245682041E+00  0.88000000000E+00 0.  1.
        -11    1    4    4    0    0 -0.28488187996E-02  0.20592913587E-02  0.99867154165E-03  0.36898394682E-02  0.51100000000E-03 0. -1.
         11    1    4    4    0    0 -0.22668043057E-01  0.34218524104E-01  0.11513688229E+00  0.12223547092E+00  0.51100000000E-03 0.  1.
</event>
<event>
 8    1  0.1088270E+005  0.1043930E+01  0.7957747E-01            NaN
         13   -1    0    0    0    0  0.00000000000E+00  0.00000000000E+00  0.74505805969E-08  0.10566000000E+00  0.10566000000E+00 0.  1.
     999900   -1    0    0    0    0 -0.00000000000E+00 -0.00000000000E+00 -0.74505805969E-08  0.93827000000E+00  0.93827000000E+00 0.  1.
     999902    2    1    2    0    0 -0.17398962196E-01 -0.20722347824E-02 -0.15932456970E-01  0.10202474911E+01  0.10199725888E+01 0.  0.
     999903    2    3    3    0    0  0.13866746280E-01  0.12466492153E+00  0.25707245516E-01  0.12964448407E+00  0.20327332954E-01 0.  0.
         14    1    1    2    0    0  0.17398962196E-01  0.20722347824E-02  0.15932456970E-01  0.23682508895E-01  0.00000000000E+00 0.  1.
     999901    1    3    3    0    0 -0.31265708476E-01 -0.12673715631E+00 -0.41639702486E-01  0.89060300704E+00  0.88000000000E+00 0.  1.
        -11    1    4    4    0    0  0.13013148131E-01  0.92088914360E-01  0.10233679225E-01  0.93566551094E-01  0.51100000000E-03 0.  1.
         11    1    4    4    0    0  0.85359814853E-03  0.32576007171E-01  0.15473566290E-01  0.36077932975E-01  0.51100000000E-03 0. -1.
</event>
<event>
 8    1  0.1088270E+005  0.1043930E+01  0.7957747E-01            NaN
         13   -1    0    0    0    0  0.00000000000E+00  0.00000000000E+00  0.74505805969E-08  0.10566000000E+00  0.10566000000E+00 0. -1.
     999900   -1    0    0    0    0 -0.00000000000E+00 -0.00000000000E+00 -0.74505805969E-08  0.93827000000E+00  0.93827000000E+00 0.  1.
     999902    2    1    2    0    0 -0.44137936145E-02 -0.14535616163E-01 -0.18103384020E-01  0.10202974330E+01  0.10200237024E+01 0.  0.
     999903    2    3    3    0    0  0.21991905891E-01 -0.33285457511E-01 -0.12582568313E+00  0.13313740725E+00  0.17375300534E-01 0.  0.
         14    1    1    2    0    0  0.44137936145E-02  0.14535616163E-01  0.18103384020E-01  0.23632567027E-01  0.00000000000E+00 0. -1.
     999901    1    3    3    0    0 -0.26405699505E-01  0.18749841348E-01  0.10772229911E+00  0.88716002572E+00  0.88000000000E+00 0. -1.
        -11    1    4    4    0    0  0.16401617669E-01 -0.10175500313E-01 -0.65724566918E-01  0.68502070672E-01  0.51100000000E-03 0.  1.
         11    1    4    4    0    0  0.55902882221E-02 -0.23109957198E-01 -0.60101116208E-01  0.64635336578E-01  0.51100000000E-03 0. -1.
</event>
<event>
 8    1  0.1088270E+005  0.1043930E+01  0.7957747E-01            NaN
         13   -1    0    0    0    0  0.00000000000E+00  0.00000000000E+00  0.74505805969E-08  0.10566000000E+00  0.10566000000E+00 0.  1.
     999900   -1    0    0    0    0 -0.00000000000E+00 -0.00000000000E+00 -0.74505805969E-08  0.93827000000E+00  0.93827000000E+00 0. -1.
     999902    2    1    2    0    0 -0.68383116630E-02  0.22500091692E-01 -0.33117027165E-02  0.10201816525E+01  0.10199052016E+01 0.  0.
     999903    2    3    3    0    0  0.40009899596E-01 -0.10488216041E-01 -0.12207275893E+00  0.13035741606E+00  0.19506478625E-01 0.  0.
         14    1    1    2    0    0  0.68383116630E-02 -0.22500091692E-01  0.33117027165E-02  0.23748347468E-01  0.00000000000E+00 0.  1.
     999901    1    3    3    0    0 -0.46848211259E-01  0.32988307734E-01  0.11876105621E+00  0.88982423647E+00  0.88000000000E+00 0.  1.
        -11    1    4    4    0    0  0.15478541019E-01  0.46873676544E-02 -0.55296885985E-01  0.57615652112E-01  0.51100000000E-03 0. -1.
         11    1    4    4    0    0  0.24531358577E-01 -0.15175583696E-01 -0.66775872940E-01  0.72741763946E-01  0.51100000000E-03 0.  1.
</event>
<event>
 8    1  0.1088270E+005  0.1043930E+01  0.7957747E-01            NaN
         13   -1    0    0    0    0  0.00000000000E+00  0.00000000000E+00  0.74505805969E-08  0.10566000000E+00  0.10566000000E+00 0.  1.
     999900   -1    0    0    0    0 -0.00000000000E+00 -0.00000000000E+00 -0.74505805969E-08  0.93827000000E+00  0.93827000000E+00 0. -1.
     999902    2    1    2    0    0 -0.18945851590E-01 -0.80617337603E-02  0.92029511777E-02  0.10213771475E+01  0.10211281244E+01 0.  0.
     999903    2    3    3    0    0 -0.66078669187E-02  0.10094323751E+00 -0.80357819676E-01  0.13005484820E+00  0.14956044046E-01 0.  0.
         14    1    1    2    0    0  0.18945851590E-01  0.80617337603E-02 -0.92029511777E-02  0.22552852459E-01  0.00000000000E+00 0. -1.
     999901    1    3    3    0    0 -0.12337984671E-01 -0.10900497127E+00  0.89560770854E-01  0.89132229934E+00  0.88000000000E+00 0.  1.
        -11    1    4    4    0    0 -0.27267710173E-02  0.86505816068E-01 -0.73714871452E-01  0.11368744384E+00  0.51100000000E-03 0. -1.
         11    1    4    4    0    0 -0.38810959014E-02  0.14437421439E-01 -0.66429482241E-02  0.16367404355E-01  0.51100000000E-03 0.  1.
</event>
<event>
 8    1  0.1088270E+005  0.1043930E+01  0.7957747E-01            NaN
         13   -1    0    0    0    0  0.00000000000E+00  0.00000000000E+00  0.74505805969E-08  0.10566000000E+00  0.10566000000E+00 0.  1.
     999900   -1    0    0    0    0 -0.00000000000E+00 -0.00000000000E+00 -0.74505805969E-08  0.93827000000E+00  0.93827000000E+00 0. -1.
     999902    2    1    2    0    0 -0.68837800332E-02 -0.14817041097E-01 -0.18053338888E-01  0.10195814029E+01  0.10192906274E+01 0.  0.
     999903    2    3    3    0    0  0.11673112123E+00  0.33357763359E-01 -0.39385841791E-01  0.12938112699E+00  0.21197557556E-01 0.  0.
         14    1    1    2    0    0  0.68837800332E-02  0.14817041097E-01  0.18053338888E-01  0.24348597073E-01  0.00000000000E+00 0.  1.
     999901    1    3    3    0    0 -0.12361490127E+00 -0.48174804456E-01  0.21332502903E-01  0.89020027594E+00  0.88000000000E+00 0.  1.
        -11    1    4    4    0    0  0.91462428157E-01  0.16869719394E-01 -0.31426673215E-01  0.98172603649E-01  0.51100000000E-03 0. -1.
         11    1    4    4    0    0  0.25268693078E-01  0.16488043966E-01 -0.79591685764E-02  0.31208523341E-01  0.51100000000E-03 0.  1.
</event>
<event>
 8    1  0.1088270E+005  0.1043930E+01  0.7957747E-01            NaN
         13   -1    0    0    0    0  0.00000000000E+00  0.00000000000E+00  0.74505805969E-08  0.10566000000E+00  0.10566000000E+00 0.  1.
     999900   -1    0    0    0    0 -0.00000000000E+00 -0.00000000000E+00 -0.74505805969E-08  0.93827000000E+00  0.93827000000E+00 0.  1.
     999902    2    1    2    0    0  0.23418726187E-01  0.56254744020E-02  0.19402800294E-02  0.10197670659E+01  0.10194807606E+01 0.  0.
     999903    2    3    3    0    0  0.48488313222E-01 -0.75458038926E-01 -0.92842933795E-01  0.13061754080E+00  0.19902247417E-01 0.  0.
         14    1    1    2    0    0 -0.23418726187E-01 -0.56254744020E-02 -0.19402800294E-02  0.24162934116E-01  0.00000000000E+00 0.  1.
     999901    1    3    3    0    0 -0.25069587034E-01  0.81083513328E-01  0.94783213825E-01  0.88914952508E+00  0.88000000000E+00 0. -1.
        -11    1    4    4    0    0  0.17240431730E-01 -0.11626654705E-01 -0.20545724923E-01  0.29236954688E-01  0.51100000000E-03 0.  1.
         11    1    4    4    0    0  0.31247881492E-01 -0.63831384221E-01 -0.72297208873E-01  0.10138058612E+00  0.51100000000E-03 0. -1.
</event>
<event>
 8    1  0.1088270E+005  0.1043930E+01  0.7957747E-01            NaN
         13   -1    0    0    0    0  0.00000000000E+00  0.00000000000E+00  0.74505805969E-08  0.10566000000E+00  0.10566000000E+00 0. -1.
     999900   -1    0    0    0    0 -0.00000000000E+00 -0.00000000000E+00 -0.74505805969E-08  0.93827000000E+00  0.93827000000E+00 0.  1.
     999902    2    1    2    0    0 -0.12189937032E-01 -0.19390407936E-01 -0.42282326440E-02  0.10206392199E+01  0.10203734399E+01 0.  0.
     999903    2    3    3    0    0 -0.64520745334E-01  0.10939043125E+00  0.16473615036E-01  0.12948738970E+00  0.19141866958E-01 0.  0.
         14    1    1    2    0    0  0.12189937032E-01  0.19390407936E-01  0.42282326440E-02  0.23290780065E-01  0.00000000000E+00 0. -1.
     999901    1    3    3    0    0  0.52330808301E-01 -0.12878083919E+00 -0.20701847680E-01  0.89115183024E+00  0.88000000000E+00 0.  1.
        -11    1    4    4    0    0 -0.33080537241E-01  0.68049511100E-01  0.16965663243E-01  0.77544521118E-01  0.51100000000E-03 0. -1.
         11    1    4    4    0    0 -0.31440208093E-01  0.41340920150E-01 -0.49204820748E-03  0.51942868579E-01  0.51100000000E-03 0.  1.
</event>
<event>
 8    1  0.1088270E+005  0.1043930E+01  0.7957747E-01            NaN
         13   -1    0    0    0    0  0.00000000000E+00  0.00000000000E+00  0.74505805969E-08  0.10566000000E+00  0.10566000000E+00 0.  1.
     999900   -1    0    0    0    0 -0.00000000000E+00 -0.00000000000E+00 -0.74505805969E-08  0.93827000000E+00  0.93827000000E+00 0.  1.
     999902    2    1    2    0    0  0.72476882769E-02 -0.18533680502E-01 -0.11504855702E-01  0.10209433081E+01  0.10206845009E+01 0.  0.
     999903    2    3    3    0    0  0.99445161077E-01 -0.86465255397E-01 -0.78689703042E-02  0.13351539978E+00  0.19971500504E-01 0.  0.
         14    1    1    2    0    0 -0.72476882769E-02  0.18533680502E-01  0.11504855702E-01  0.22986691868E-01  0.00000000000E+00 0.  1.
     999901    1    3    3    0    0 -0.92197472801E-01  0.67931574894E-01 -0.36358853976E-02  0.88742790835E+00  0.88000000000E+00 0. -1.
        -11    1    4    4    0    0  0.20149551698E-01 -0.26488458524E-01  0.33800015415E-02  0.33456365614E-01  0.51100000000E-03 0.  1.
         11    1    4    4    0    0  0.79295609379E-01 -0.59976796872E-01 -0.11248971846E-01  0.10005903417E+00  0.51100000000E-03 0. -1.
</event>
<event>
 8    1  0.1088270E+005  0.1043930E+01  0.7957747E-01            NaN
         13   -1    0    0    0    0  0.00000000000E+00  0.00000000000E+00  0.74505805969E-08  0.10566000000E+00  0.10566000000E+00 0. -1.
     999900   -1    0    0    0    0 -0.00000000000E+00 -0.00000000000E+00 -0.74505805969E-08  0.93827000000E+00  0.93827000000E+00 0.  1.
     999902    2    1    2    0    0  0.14669632630E-01 -0.10407124891E-01 -0.15388160300E-01  0.10202593040E+01  0.10199846791E+01 0.  0.
     999903    2    3    3    0    0  0.76565549963E-01  0.72334154147E-01 -0.76991179788E-01  0.13207455082E+00  0.20531242329E-01 0.  0.
         14    1    1    2    0    0 -0.14669632630E-01  0.10407124891E-01  0.15388160300E-01  0.23670695964E-01  0.00000000000E+00 0. -1.
     999901    1    3    3    0    0 -0.61895917332E-01 -0.82741279037E-01  0.61603019488E-01  0.88818475322E+00  0.88000000000E+00 0.  1.
        -11    1    4    4    0    0  0.29986582834E-01  0.26875133494E-01 -0.17548936690E-01  0.43928285310E-01  0.51100000000E-03 0.  1.
         11    1    4    4    0    0  0.46578967129E-01  0.45459020653E-01 -0.59442243098E-01  0.88146265508E-01  0.51100000000E-03 0. -1.
</event>
<event>
 8    1  0.1088270E+005  0.1043930E+01  0.7957747E-01            NaN
         13   -1    0    0    0    0  0.00000000000E+00  0.00000000000E+00  0.74505805969E-08  0.10566000000E+00  0.10566000000E+00 0.  1.
     999900   -1    0    0    0    0 -0.00000000000E+00 -0.00000000000E+00 -0.74505805969E-08  0.93827000000E+00  0.93827000000E+00 0.  1.
     999902    2    1    2    0    0  0.28923376086E-03 -0.19742944911E-01  0.16177728870E-01  0.10184038087E+01  0.10180838527E+01 0.  0.
     999903    2    3    3    0    0 -0.31008002453E-01  0.11912811947E-01  0.12480151411E+00  0.13060837583E+00  0.19486369796E-01 0.  0.
         14    1    1    2    0    0 -0.28923376086E-03  0.19742944911E-01 -0.16177728870E-01  0.25526191281E-01  0.00000000000E+00 0. -1.
     999901    1    3    3    0    0  0.31297236214E-01 -0.31655756858E-01 -0.10862378524E+00  0.88779543289E+00  0.88000000000E+00 0.  1.
        -11    1    4    4    0    0 -0.26820998305E-01  0.91736768037E-02  0.69237550767E-01  0.74817256388E-01  0.51100000000E-03 0.  1.
         11    1    4    4    0    0 -0.41870041479E-02  0.27391351433E-02  0.55563963346E-01  0.55791119443E-01  0.51100000000E-03 0. -1.
</event>
<event>
 7    1  0.1088270E+005  0.1043930E+01  0.7957747E-01            NaN
         13   -1    0    0    0    0  0.00000000000E+00  0.00000000000E+00  0.74505805969E-08  0.10566000000E+00  0.10566000000E+00 0. -1.
     999900   -1    0    0    0    0 -0.00000000000E+00 -0.00000000000E+00 -0.74505805969E-08  0.93827000000E+00  0.93827000000E+00 0. -1.
     999903    2    1    2    0    0 -0.48221274970E-01  0.76633621630E-01  0.69660739326E-01  0.11598212065E+00  0.20030735948E-01 0.  0.
         14    1    1    2    0    0  0.33126638723E-01  0.71192283891E-02  0.19938052056E-01  0.39313910079E-01  0.00000000000E+00 0.  1.
     999901    1    1    2    0    0  0.15094636247E-01 -0.83752850019E-01 -0.89598791381E-01  0.88863396927E+00  0.88000000000E+00 0. -1.
        -11    1    3    3    0    0 -0.21336230585E-01  0.50223796871E-01  0.46881627370E-01  0.71943120682E-01  0.51100000000E-03 0. -1.
         11    1    3    3    0    0 -0.26885044386E-01  0.26409824759E-01  0.22779111956E-01  0.44038999965E-01  0.51100000000E-03 0.  1.
</event>
<event>
 8    1  0.1088270E+005  0.1043930E+01  0.7957747E-01            NaN
         13   -1    0    0    0    0  0.00000000000E+00  0.00000000000E+00  0.74505805969E-08  0.10566000000E+00  0.10566000000E+00 0.  1.
     999900   -1    0    0    0    0 -0.00000000000E+00 -0.00000000000E+00 -0.74505805969E-08  0.93827000000E+00  0.93827000000E+00 0.  1.
     999902    2    1    2    0    0 -0.11964599886E-01  0.93052548954E-02 -0.18129586054E-01  0.10202990603E+01  0.10200253679E+01 0.  0.
     999903    2    3    3    0    0 -0.51828469621E-01  0.89413110738E-01 -0.82521751437E-01  0.13342096970E+00  0.17618770121E-01 0.  0.
         14    1    1    2    0    0  0.11964599886E-01 -0.93052548954E-02  0.18129586054E-01  0.23630939668E-01  0.00000000000E+00 0.  1.
     999901    1    3    3    0    0  0.39863869735E-01 -0.80107855843E-01  0.64392165383E-01  0.88687809063E+00  0.88000000000E+00 0. -1.
        -11    1    4    4    0    0 -0.51172964468E-01  0.78840029937E-01 -0.71264825726E-01  0.11795490291E+00  0.51100000000E-03 0.  1.
         11    1    4    4    0    0 -0.65550515346E-03  0.10573080801E-01 -0.11256925711E-01  0.15466066795E-01  0.51100000000E-03 0. -1.
</event>
<event>
 8    1  0.1088270E+005  0.1043930E+01  0.7957747E-01            NaN
         13   -1    0    0    0    0  0.00000000000E+00  0.00000000000E+00  0.74505805969E-08  0.10566000000E+00  0.10566000000E+00 0. -1.
     999900   -1    0    0    0    0 -0.00000000000E+00 -0.00000000000E+00 -0.74505805969E-08  0.93827000000E+00  0.93827000000E+00 0.  1.
     999902    2    1    2    0    0 -0.48551458002E-02 -0.23331511674E-01 -0.35656416798E-02  0.10198334094E+01  0.10195486929E+01 0.  0.
     999903    2    3    3    0    0  0.73670818490E-01  0.64630942932E-01 -0.80927391921E-01  0.12860472894E+00  0.19631231757E-01 0.  0.
         14    1    1    2    0    0  0.48551458002E-02  0.23331511674E-01  0.35656416798E-02  0.24096590596E-01  0.00000000000E+00 0.  1.
     999901    1    3    3    0    0 -0.78525964290E-01 -0.87962454607E-01  0.77361750241E-01  0.89122868047E+00  0.88000000000E+00 0. -1.
        -11    1    4    4    0    0  0.42816397851E-01  0.33194681075E-01 -0.56307996371E-01  0.78140785464E-01  0.51100000000E-03 0.  1.
         11    1    4    4    0    0  0.30854420639E-01  0.31436261857E-01 -0.24619395550E-01  0.50463943472E-01  0.51100000000E-03 0. -1.
</event>
<event>
 8    1  0.1088270E+005  0.1043930E+01  0.7957747E-01            NaN
         13   -1    0    0    0    0  0.00000000000E+00  0.00000000000E+00  0.74505805969E-08  0.10566000000E+00  0.10566000000E+00 0. -1.
     999900   -1    0    0    0    0 -0.00000000000E+00 -0.00000000000E+00 -0.74505805969E-08  0.93827000000E+00  0.93827000000E+00 0.  1.
     999902    2    1    2    0    0  0.10817056047E-01  0.24664847093E-02 -0.17620588521E-01  0.10231074788E+01  0.10228955645E+01 0.  0.
     999903    2    3    3    0    0  0.91417853834E-02 -0.22731037194E-01 -0.13202788050E+00  0.13534244792E+00  0.16909899080E-01 0.  0.
         14    1    1    2    0    0 -0.10817056047E-01 -0.24664847093E-02  0.17620588521E-01  0.20822521177E-01  0.00000000000E+00 0. -1.
     999901    1    3    3    0    0  0.16752706633E-02  0.25197521904E-01  0.11440729198E+00  0.88776503091E+00  0.88000000000E+00 0. -1.
        -11    1    4    4    0    0 -0.46349602936E-02 -0.98554501332E-02 -0.49245409891E-01  0.50437924923E-01  0.51100000000E-03 0.  1.
         11    1    4    4    0    0  0.13776745677E-01 -0.12875587061E-01 -0.82782470609E-01  0.84904522994E-01  0.51100000000E-03 0. -1.
</event>
<event>
 8    1  0.1088270E+005  0.1043930E+01  0.7957747E-01            NaN
         13   -1    0    0    0    0  0.00000000000E+00  0.00000000000E+00  0.74505805969E-08  0.10566000000E+00  0.10566000000E+00 0.  1.
     999900   -1    0    0    0    0 -0.00000000000E+00 -0.00000000000E+00 -0.74505805969E-08  0.93827000000E+00  0.93827000000E+00 0.  1.
     999902    2    1    2    0    0  0.86564301228E-02 -0.81450306608E-02 -0.20752302684E-01  0.10200148714E+01  0.10197344775E+01 0.  0.
     999903    2    3    3    0    0 -0.20398954677E-01  0.12416495062E+00 -0.24577107519E-01  0.12964148030E+00  0.19230883661E-01 0.  0.
         14    1    1    2    0    0 -0.86564301228E-02  0.81450306608E-02  0.20752302684E-01  0.23915128551E-01  0.00000000000E+00 0.  1.
     999901    1    3    3    0    0  0.29055384800E-01 -0.13230998128E+00  0.38248048352E-02  0.89037339115E+00  0.88000000000E+00 0. -1.
        -11    1    4    4    0    0 -0.54730764155E-02  0.43904044071E-01 -0.17899703917E-01  0.47730285695E-01  0.51100000000E-03 0. -1.
         11    1    4    4    0    0 -0.14925878262E-01  0.80260906548E-01 -0.66774036016E-02  0.81911194606E-01  0.51100000000E-03 0.  1.
</event>
<event>
 8    1  0.1088270E+005  0.1043930E+01  0.7957747E-01            NaN
         13   -1    0    0    0    0  0.00000000000E+00  0.00000000000E+00  0.74505805969E-08  0.10566000000E+00  0.10566000000E+00 0.  1.
     999900   -1    0    0    0    0 -0.00000000000E+00 -0.00000000000E+00 -0.74505805969E-08  0.93827000000E+00  0.93827000000E+00 0.  1.
     999902    2    1    2    0    0  0.12348366807E-01 -0.14421545922E-01  0.11873159152E-01  0.10215372543E+01  0.10212917933E+01 0.  0.
     999903    2    3    3    0    0 -0.12089861080E+00  0.22231651201E-01  0.39203283928E-01  0.13033292894E+00  0.18413432246E-01 0.  0.
         14    1    1    2    0    0 -0.12348366807E-01  0.14421545922E-01 -0.11873159152E-01  0.22392745652E-01  0.00000000000E+00 0. -1.
     999901    1    3    3    0    0  0.13324697761E+00 -0.36653197123E-01 -0.27330124776E-01  0.89120432541E+00  0.88000000000E+00 0.  1.
        -11    1    4    4    0    0 -0.69860132975E-01  0.10278209010E-01  0.13282020586E-01  0.71852299557E-01  0.51100000000E-03 0.  1.
         11    1    4    4    0    0 -0.51038477826E-01  0.11953442191E-01  0.25921263343E-01  0.58480629386E-01  0.51100000000E-03 0. -1.
</event>
<event>
 8    1  0.1088270E+005  0.1043930E+01  0.7957747E-01            NaN
         13   -1    0    0    0    0  0.00000000000E+00  0.00000000000E+00  0.74505805969E-08  0.10566000000E+00  0.10566000000E+00 0. -1.
     999900   -1    0    0    0    0 -0.00000000000E+00 -0.00000000000E+00 -0.74505805969E-08  0.93827000000E+00  0.93827000000E+00 0. -1.
     999902    2    1    2    0    0  0.19895574881E-01 -0.67660655848E-02 -0.10659336084E-01  0.10203665752E+01  0.10200944627E+01 0.  0.
     999903    2    3    3    0    0 -0.63606740347E-01 -0.19857481375E-02  0.10942449443E+00  0.12828159356E+00  0.20801121403E-01 0.  0.
         14    1    1    2    0    0 -0.19895574881E-01  0.67660655848E-02  0.10659336084E-01  0.23563424817E-01  0.00000000000E+00 0. -1.
     999901    1    3    3    0    0  0.83502315228E-01 -0.47803174474E-02 -0.12008383052E+00  0.89208498162E+00  0.88000000000E+00 0. -1.
        -11    1    4    4    0    0 -0.24654297276E-01  0.55261546108E-02  0.58515504351E-01  0.63739298156E-01  0.51100000000E-03 0.  1.
         11    1    4    4    0    0 -0.38952443071E-01 -0.75119027483E-02  0.50908990081E-01  0.64542295406E-01  0.51100000000E-03 0. -1.
</event>
<event>
 8    1  0.1088270E+005  0.1043930E+01  0.7957747E-01            NaN
         13   -1    0    0    0    0  0.00000000000E+00  0.00000000000E+00  0.74505805969E-08  0.10566000000E+00  0.10566000000E+00 0.  1.
     999900   -1    0    0    0    0 -0.00000000000E+00 -0.00000000000E+00 -0.74505805969E-08  0.93827000000E+00  0.93827000000E+00 0.  1.
     999902    2    1    2    0    0  0.11764020405E-01  0.43437805203E-02  0.20263988082E-01  0.10200995611E+01  0.10198211729E+01 0.  0.
     999903    2    3    3    0    0  0.29396480066E-01 -0.10494986538E+00 -0.66831015618E-01  0.12889725840E+00  0.16416189918E-01 0.  0.
         14    1    1    2    0    0 -0.11764020405E-01 -0.43437805203E-02 -0.20263988082E-01  0.23830438902E-01  0.00000000000E+00 0. -1.
     999901    1    3    3    0    0 -0.17632459661E-01  0.10929364590E+00  0.87095003700E-01  0.89120230270E+00  0.88000000000E+00 0. -1.
        -11    1    4    4    0    0  0.21619245526E-01 -0.88243585693E-01 -0.48892227803E-01  0.10317477043E+00  0.51100000000E-03 0.  1.
         11    1    4    4    0    0  0.77772345400E-02 -0.16706279682E-01 -0.17938787815E-01  0.25722487967E-01  0.51100000000E-03 0. -1.
</event>
<event>
 8    1  0.1088270E+005  0.1043930E+01  0.7957747E-01            NaN
         13   -1    0    0    0    0  0.00000000000E+00  0.00000000000E+00  0.74505805969E-08  0.10566000000E+00  0.10566000000E+00 0. -1.
     999900   -1    0    0    0    0 -0.00000000000E+00 -0.00000000000E+00 -0.74505805969E-08  0.93827000000E+00  0.93827000000E+00 0.  1.
     999902    2    1    2    0    0 -0.16681544872E-01  0.13786848771E-03 -0.26877479242E-01  0.10122962864E+01  0.10118018974E+01 0.  0.
     999903    2    3    3    0    0 -0.12215455728E+00  0.56942589891E-03 -0.23535913321E-01  0.12599164990E+00  0.19947343601E-01 0.  0.
         14    1    1    2    0    0  0.16681544872E-01 -0.13786848771E-03  0.26877479242E-01  0.31633713621E-01  0.00000000000E+00 0. -1.
     999901    1    3    3    0    0  0.10547301241E+00 -0.43155741120E-03 -0.33415659212E-02  0.88630463648E+00  0.88000000000E+00 0. -1.
        -11    1    4    4    0    0 -0.52109613369E-01 -0.69147044040E-02 -0.16973468599E-01  0.55241150420E-01  0.51100000000E-03 0.  1.
         11    1    4    4    0    0 -0.70044943914E-01  0.74841303029E-02 -0.65624447216E-02  0.70750499476E-01  0.51100000000E-03 0. -1.
</event>
<event>
 8    1  0.1088270E+005  0.1043930E+01  0.7957747E-01            NaN
         13   -1    0    0    0    0  0.00000000000E+00  0.00000000000E+00  0.74505805969E-08  0.10566000000E+00  0.10566000000E+00 0. -1.
     999900   -1    0    0    0    0 -0.00000000000E+00 -0.00000000000E+00 -0.74505805969E-08  0.93827000000E+00  0.93827000000E+00 0.  1.
     999902    2    1    2    0    0 -0.97853534654E-02 -0.98992095153E-02 -0.14241547001E-01  0.10240159559E+01  0.10238223033E+01 0.  0.
     999903    2    3    3    0    0 -0.28177858292E-01  0.12099243910E-01  0.12705130965E+00  0.13228399644E+00  0.20411688520E-01 0.  0.
         14    1    1    2    0    0  0.97853534654E-02  0.98992095153E-02  0.14241547001E-01  0.19914044101E-01  0.00000000000E+00 0. -1.
     999901    1    3    3    0    0  0.18392504826E-01 -0.21998453425E-01 -0.14129285665E+00  0.89173195946E+00  0.88000000000E+00 0.  1.
        -11    1    4    4    0    0 -0.19844710543E-01  0.89296236411E-02  0.47701379304E-01  0.52433132878E-01  0.51100000000E-03 0. -1.
         11    1    4    4    0    0 -0.83331477484E-02  0.31696202689E-02  0.79349930346E-01  0.79850863558E-01  0.51100000000E-03 0.  1.
</event>
<event>
 8    1  0.1088270E+005  0.1043930E+01  0.7957747E-01            NaN
         13   -1    0    0    0    0  0.00000000000E+00  0.00000000000E+00  0.74505805969E-08  0.10566000000E+00  0.10566000000E+00 0. -1.
     999900   -1    0    0    0    0 -0.00000000000E+00 -0.00000000000E+00 -0.74505805969E-08  0.93827000000E+00  0.93827000000E+00 0. -1.
     999902    2    1    2    0    0 -0.17800023272E-01  0.22240334486E-02 -0.15889273044E-01  0.10199663577E+01  0.10196848115E+01 0.  0.
     999903    2    3    3    0    0  0.79739232799E-01 -0.67191848408E-01  0.70435986880E-01  0.12767463321E+00  0.21598471671E-01 0.  0.
         14    1    1    2    0    0  0.17800023272E-01 -0.22240334486E-02  0.15889273044E-01  0.23963642277E-01  0.00000000000E+00 0. -1.
     999901    1    3    3    0    0 -0.97539256071E-01  0.69415881857E-01 -0.86325259925E-01  0.89229172451E+00  0.88000000000E+00 0. -1.
        -11    1    4    4    0    0  0.55979179573E-01 -0.49737913192E-01  0.38479744575E-01  0.84193113839E-01  0.51100000000E-03 0.  1.
         11    1    4    4    0    0  0.23760053226E-01 -0.17453935216E-01  0.31956242305E-01  0.43481519374E-01  0.51100000000E-03 0. -1.
</event>
<event>
 8    1  0.1088270E+005  0.1043930E+01  0.7957747E-01            NaN
         13   -1    0    0    0    0  0.00000000000E+00  0.00000000000E+00  0.74505805969E-08  0.10566000000E+00  0.10566000000E+00 0.  1.
     999900   -1    0    0    0    0 -0.00000000000E+00 -0.00000000000E+00 -0.74505805969E-08  0.93827000000E+00  0.93827000000E+00 0. -1.
     999902    2    1    2    0    0 -0.16612728129E-01 -0.45474653907E-02  0.16809851249E-01  0.10198627343E+01  0.10195787187E+01 0.  0.
     999903    2    3    3    0    0 -0.10158029574E+00  0.58762819208E-01  0.58339909039E-01  0.13253391965E+00  0.19750176369E-01 0.  0.
         14    1    1    2    0    0  0.16612728129E-01  0.45474653907E-02 -0.16809851249E-01  0.24067265661E-01  0.00000000000E+00 0. -1.
     999901    1    3    3    0    0  0.84967567611E-01 -0.63310284599E-01 -0.41530057789E-01  0.88732881469E+00  0.88000000000E+00 0. -1.
        -11    1    4    4    0    0 -0.71132232454E-01  0.48933894883E-01  0.48633521922E-01  0.99094909748E-01  0.51100000000E-03 0. -1.
         11    1    4    4    0    0 -0.30448063286E-01  0.98289243253E-02  0.97063871169E-02  0.33439009900E-01  0.51100000000E-03 0.  1.
</event>
<event>
 8    1  0.1088270E+005  0.1043930E+01  0.7957747E-01            NaN
         13   -1    0    0    0    0  0.00000000000E+00  0.00000000000E+00  0.74505805969E-08  0.10566000000E+00  0.10566000000E+00 0. -1.
     999900   -1    0    0    0    0 -0.00000000000E+00 -0.00000000000E+00 -0.74505805969E-08  0.93827000000E+00  0.93827000000E+00 0. -1.
     999902    2    1    2    0    0 -0.14645455295E-01 -0.11242732591E-01 -0.18715472754E-01  0.10176401290E+01  0.10173004840E+01 0.  0.
     999903    2    3    3    0    0  0.61946401067E-01 -0.10945918206E+00  0.15896654995E-01  0.12819604262E+00  0.19048689186E-01 0.  0.
         14    1    1    2    0    0  0.14645455295E-01  0.11242732591E-01  0.18715472754E-01  0.26289871002E-01  0.00000000000E+00 0. -1.
     999901    1    3    3    0    0 -0.76591856362E-01  0.98216449473E-01 -0.34612127750E-01  0.88944408638E+00  0.88000000000E+00 0. -1.
        -11    1    4    4    0    0  0.35527991622E-01 -0.80564126108E-01  0.11004394381E-01  0.88736545014E-01  0.51100000000E-03 0.  1.
         11    1    4    4    0    0  0.26418409445E-01 -0.28895055955E-01  0.48922606143E-02  0.39459497604E-01  0.51100000000E-03 0. -1.
</event>
<event>
 8    1  0.1088270E+005  0.1043930E+01  0.7957747E-01            NaN
         13   -1    0    0    0    0  0.00000000000E+00  0.00000000000E+00  0.74505805969E-08  0.10566000000E+00  0.10566000000E+00 0.  1.
     999900   -1    0    0    0    0 -0.00000000000E+00 -0.00000000000E+00 -0.74505805969E-08  0.93827000000E+00  0.93827000000E+00 0.  1.
     999902    2    1    2    0    0  0.14082609875E-01 -0.85043907231E-02  0.17165025816E-01  0.10201543260E+01  0.10198772309E+01 0.  0.
     999903    2    3    3    0    0 -0.80554272448E-01  0.92757353206E-01  0.34335930647E-01  0.12914090285E+00  0.20137012482E-01 0.  0.
         14    1    1    2    0    0 -0.14082609875E-01  0.85043907231E-02 -0.17165025816E-01  0.23775673991E-01  0.00000000000E+00 0. -1.
     999901    1    3    3    0    0  0.94636882323E-01 -0.10126174393E+00 -0.17170904830E-01  0.89101342316E+00  0.88000000000E+00 0.  1.
        -11    1    4    4    0    0 -0.31303075622E-01  0.23197722314E-01  0.66741663418E-02  0.39532549643E-01  0.51100000000E-03 0.  1.
         11    1    4    4    0    0 -0.49251196826E-01  0.69559630892E-01  0.27661764305E-01  0.89608353205E-01  0.51100000000E-03 0. -1.
</event>
<event>
 8    1  0.1088270E+005  0.1043930E+01  0.7957747E-01            NaN
         13   -1    0    0    0    0  0.00000000000E+00  0.00000000000E+00  0.74505805969E-08  0.10566000000E+00  0.10566000000E+00 0.  1.
     999900   -1    0    0    0    0 -0.00000000000E+00 -0.00000000000E+00 -0.74505805969E-08  0.93827000000E+00  0.93827000000E+00 0. -1.
     999902    2    1    2    0    0  0.20304856349E-02  0.23665712920E-01  0.18559618447E-02  0.10201049410E+01  0.10198266800E+01 0.  0.
     999903    2    3    3    0    0 -0.10192632165E+00  0.60265744711E-01  0.54589511830E-01  0.13166394278E+00  0.18287810023E-01 0.  0.
         14    1    1    2    0    0 -0.20304856349E-02 -0.23665712920E-01 -0.18559618447E-02  0.23825058957E-01  0.00000000000E+00 0.  1.
     999901    1    3    3    0    0  0.10395680728E+00 -0.36600031790E-01 -0.52733549985E-01  0.88844099827E+00  0.88000000000E+00 0. -1.
        -11    1    4    4    0    0 -0.75407627794E-01  0.40905433938E-01  0.47528954084E-01  0.98075621091E-01  0.51100000000E-03 0.  1.
         11    1    4    4    0    0 -0.26518693854E-01  0.19360310773E-01  0.70605577460E-02  0.33588321685E-01  0.51100000000E-03 0. -1.
</event>
<event>
 8    1  0.1088270E+005  0.1043930E+01  0.7957747E-01            NaN
         13   -1    0    0    0    0  0.00000000000E+00  0.00000000000E+00  0.74505805969E-08  0.10566000000E+00  0.10566000000E+00 0. -1.
     999900   -1    0    0    0    0 -0.00000000000E+00 -0.00000000000E+00 -0.74505805969E-08  0.93827000000E+00  0.93827000000E+00 0.  1.
     999902    2    1    2    0    0 -0.13063834082E-01  0.68502737573E-02 -0.20465449456E-01  0.10187025421E+01  0.10183901240E+01 0.  0.
     999903    2    3    3    0    0 -0.44408585595E-01 -0.11808984683E+00  0.15141893652E-01  0.12861242863E+00  0.19863168334E-01 0.  0.
         14    1    1    2    0    0  0.13063834082E-01 -0.68502737573E-02  0.20465449456E-01  0.25227457916E-01  0.00000000000E+00 0. -1.
     999901    1    3    3    0    0  0.31344751514E-01  0.12494012059E+00 -0.35607343108E-01  0.89009011345E+00  0.88000000000E+00 0.  1.
        -11    1    4    4    0    0 -0.32721154653E-01 -0.63365685832E-01  0.13773518695E-01  0.72635081338E-01  0.51100000000E-03 0.  1.
         11    1    4    4    0    0 -0.11687430943E-01 -0.54724161000E-01  0.13683749566E-02  0.55977347295E-01  0.51100000000E-03 0. -1.
</event>
<event>
 8    1  0.1088270E+005  0.1043930E+01  0.7957747E-01            NaN
         13   -1    0    0    0    0  0.00000000000E+00  0.00000000000E+00  0.74505805969E-08  0.10566000000E+00  0.10566000000E+00 0. -1.
     999900   -1    0    0    0    0 -0.00000000000E+00 -0.00000000000E+00 -0.74505805969E-08  0.93827000000E+00  0.93827000000E+00 0.  1.
     999902    2    1    2    0    0 -0.17361970954E-01  0.18285442094E-01 -0.75297929148E-02  0.10176147343E+01  0.10172744243E+01 0.  0.
     999903    2    3    3    0    0 -0.77726250304E-01 -0.54330649899E-01  0.83552571504E-01  0.12788840550E+00  0.19524921290E-01 0.  0.
         14    1    1    2    0    0  0.17361970954E-01 -0.18285442094E-01  0.75297929148E-02  0.26315265709E-01  0.00000000000E+00 0. -1.
     999901    1    3    3    0    0  0.60364279350E-01  0.72616091993E-01 -0.91082364419E-01  0.88972632879E+00  0.88000000000E+00 0.  1.
        -11    1    4    4    0    0 -0.63515349279E-01 -0.47137474825E-01  0.59254202504E-01  0.98830474866E-01  0.51100000000E-03 0.  1.
         11    1    4    4    0    0 -0.14210901025E-01 -0.71931750745E-02  0.24298369001E-01  0.29057930633E-01  0.51100000000E-03 0. -1.
</event>
<event>
 8    1  0.1088270E+005  0.1043930E+01  0.7957747E-01            NaN
         13   -1    0    0    0    0  0.00000000000E+00  0.00000000000E+00  0.74505805969E-08  0.10566000000E+00  0.10566000000E+00 0. -1.
     999900   -1    0    0    0    0 -0.00000000000E+00 -0.00000000000E+00 -0.74505805969E-08  0.93827000000E+00  0.93827000000E+00 0. -1.
     999902    2    1    2    0    0 -0.15432396125E-01  0.21749910374E-02  0.17990059208E-01  0.10201280743E+01  0.10198503598E+01 0.  0.
     999903    2    3    3    0    0 -0.11012887019E-01 -0.10769211689E+00 -0.66991969492E-01  0.12922277145E+00  0.22174872386E-01 0.  0.
         14    1    1    2    0    0  0.15432396125E-01 -0.21749910374E-02 -0.17990059208E-01  0.23801925688E-01  0.00000000000E+00 0. -1.
     999901    1    3    3    0    0 -0.44195091057E-02  0.10986710792E+00  0.84982028699E-01  0.89090530286E+00  0.88000000000E+00 0.  1.
        -11    1    4    4    0    0 -0.17527405058E-01 -0.84611277654E-01 -0.54716911496E-01  0.10227648683E+00  0.51100000000E-03 0.  1.
         11    1    4    4    0    0  0.65145180387E-02 -0.23080839231E-01 -0.12275057996E-01  0.26946284617E-01  0.51100000000E-03 0. -1.
</event>
<event>
 8    1  0.1088270E+005  0.1043930E+01  0.7957747E-01            NaN
         13   -1    0    0    0    0  0.00000000000E+00  0.00000000000E+00  0.74505805969E-08  0.10566000000E+00  0.10566000000E+00 0. -1.
     999900   -1    0    0    0    0 -0.00000000000E+00 -0.00000000000E+00 -0.74505805969E-08  0.93827000000E+00  0.93827000000E+00 0.  1.
     999902    2    1    2    0    0 -0.17584303724E-01  0.54720397945E-02 -0.15082966593E-01  0.10201256551E+01  0.10198478834E+01 0.  0.
     999903    2    3    3    0    0  0.12279140426E+00 -0.15186709192E-01 -0.29309146173E-01  0.12864682329E+00  0.19560521410E-01 0.  0.
         14    1    1    2    0    0  0.17584303724E-01 -0.54720397945E-02  0.15082966593E-01  0.23804344944E-01  0.00000000000E+00 0. -1.
     999901    1    3    3    0    0 -0.14037570798E+00  0.20658748986E-01  0.14226179580E-01  0.89147883177E+00  0.88000000000E+00 0. -1.
        -11    1    4    4    0    0  0.28730793021E-01 -0.66455666657E-02 -0.15101685699E-01  0.33135238883E-01  0.51100000000E-03 0.  1.
         11    1    4    4    0    0  0.94060611236E-01 -0.85411425260E-02 -0.14207460473E-01  0.95511584407E-01  0.51100000000E-03 0. -1.
</event>
<event>
 8    1  0.1088270E+005  0.1043930E+01  0.7957747E-01            NaN
         13   -1    0    0    0    0  0.00000000000E+00  0.00000000000E+00  0.74505805969E-08  0.10566000000E+00  0.10566000000E+00 0.  1.
     999900   -1    0    0    0    0 -0.00000000000E+00 -0.00000000000E+00 -0.74505805969E-08  0.93827000000E+00  0.93827000000E+00 0.  1.
     999902    2    1    2    0    0 -0.50215336906E-02  0.45075386836E-02 -0.23583784020E-01  0.10193998436E+01  0.10191046622E+01 0.  0.
     999903    2    3    3    0    0  0.83868027811E-01 -0.24412449263E-01 -0.96365019789E-01  0.13146131635E+00  0.19132351913E-01 0.  0.
         14    1    1    2    0    0  0.50215336906E-02 -0.45075386836E-02  0.23583784020E-01  0.24530156426E-01  0.00000000000E+00 0.  1.
     999901    1    3    3    0    0 -0.88889561502E-01  0.28919987947E-01  0.72781235769E-01  0.88793852722E+00  0.88000000000E+00 0. -1.
        -11    1    4    4    0    0  0.50955528977E-02 -0.17089339209E-02 -0.65142770619E-03  0.54378850241E-02  0.51100000000E-03 0. -1.
         11    1    4    4    0    0  0.78772474914E-01 -0.22703515343E-01 -0.95713592083E-01  0.12602343133E+00  0.51100000000E-03 0.  1.
</event>
<event>
 8    1  0.1088270E+005  0.1043930E+01  0.7957747E-01            NaN
         13   -1    0    0    0    0  0.00000000000E+00  0.00000000000E+00  0.74505805969E-08  0.10566000000E+00  0.10566000000E+00 0. -1.
     999900   -1    0    0    0    0 -0.00000000000E+00 -0.00000000000E+00 -0.74505805969E-08  0.93827000000E+00  0.93827000000E+00 0. -1.
     999902    2    1    2    0    0 -0.77040890972E-02  0.20061832384E-01  0.95638880280E-02  0.10204077114E+01  0.10201365592E+01 0.  0.
     999903    2    3    3    0    0  0.42042166325E-01 -0.10496691809E-01 -0.11987023245E+00  0.12902580397E+00  0.20026511739E-01 0.  0.
         14    1    1    2    0    0  0.77040890972E-02 -0.20061832384E-01 -0.95638880280E-02  0.23522288614E-01  0.00000000000E+00 0. -1.
     999901    1    3    3    0    0 -0.49746255422E-01  0.30558524193E-01  0.12943412048E+00  0.89138190742E+00  0.88000000000E+00 0.  1.
        -11    1    4    4    0    0  0.37383466971E-01 -0.14891738529E-01 -0.91868496645E-01  0.10029640709E+00  0.51100000000E-03 0.  1.
         11    1    4    4    0    0  0.46586993539E-02  0.43950467199E-02 -0.28001735810E-01  0.28729396873E-01  0.51100000000E-03 0. -1.
</event>
<event>
 7    1  0.1088270E+005  0.1043930E+01  0.7957747E-01            NaN
         13   -1    0    0    0    0  0.00000000000E+00  0.00000000000E+00  0.74505805969E-08  0.10566000000E+00  0.10566000000E+00 0. -1.
     999900   -1    0    0    0    0 -0.00000000000E+00 -0.00000000000E+00 -0.74505805969E-08  0.93827000000E+00  0.93827000000E+00 0.  1.
     999903    2    1    2    0    0  0.43712655536E-01 -0.61533691430E-01 -0.34242043371E-01  0.85230565575E-01  0.19863039521E-01 0.  0.
         14    1    1    2    0    0 -0.33056389416E-01  0.64960813326E-01 -0.23909392258E-01  0.76709133663E-01  0.00000000000E+00 0. -1.
     999901    1    1    2    0    0 -0.10656266120E-01 -0.34271218958E-02  0.58151435629E-01  0.88199030076E+00  0.88000000000E+00 0. -1.
        -11    1    3    3    0    0  0.77098765740E-02 -0.22210333291E-01 -0.37608141045E-02  0.23814826168E-01  0.51100000000E-03 0. -1.
         11    1    3    3    0    0  0.36002778962E-01 -0.39323358139E-01 -0.30481229266E-01  0.61415739407E-01  0.51100000000E-03 0.  1.
</event>
<event>
 8    1  0.1088270E+005  0.1043930E+01  0.7957747E-01            NaN
         13   -1    0    0    0    0  0.00000000000E+00  0.00000000000E+00  0.74505805969E-08  0.10566000000E+00  0.10566000000E+00 0.  1.
     999900   -1    0    0    0    0 -0.00000000000E+00 -0.00000000000E+00 -0.74505805969E-08  0.93827000000E+00  0.93827000000E+00 0. -1.
     999902    2    1    2    0    0  0.17712198212E-01 -0.13456634895E-01  0.66662626514E-02  0.10207084142E+01  0.10204442292E+01 0.  0.
     999903    2    3    3    0    0 -0.23877767577E-01  0.24279399199E-01  0.12487136941E+00  0.13103084297E+00  0.20410436092E-01 0.  0.
         14    1    1    2    0    0 -0.17712198212E-01  0.13456634895E-01 -0.66662626514E-02  0.23221585776E-01  0.00000000000E+00 0.  1.
     999901    1    3    3    0    0  0.41589965789E-01 -0.37736034093E-01 -0.11820510676E+00  0.88967757125E+00  0.88000000000E+00 0. -1.
        -11    1    4    4    0    0 -0.12254700654E-01  0.24860804789E-01  0.79781449693E-01  0.84460512306E-01  0.51100000000E-03 0. -1.
         11    1    4    4    0    0 -0.11623066922E-01 -0.58140559056E-03  0.45089919719E-01  0.46570330666E-01  0.51100000000E-03 0.  1.
</event>
<event>
 8    1  0.1088270E+005  0.1043930E+01  0.7957747E-01            NaN
         13   -1    0    0    0    0  0.00000000000E+00  0.00000000000E+00  0.74505805969E-08  0.10566000000E+00  0.10566000000E+00 0.  1.
     999900   -1    0    0    0    0 -0.00000000000E+00 -0.00000000000E+00 -0.74505805969E-08  0.93827000000E+00  0.93827000000E+00 0.  1.
     999902    2    1    2    0    0  0.10277923380E-01 -0.30606909186E-02  0.21065329786E-01  0.10202920716E+01  0.10200182154E+01 0.  0.
     999903    2    3    3    0    0 -0.35631636998E-01 -0.47884618631E-01  0.11683260604E+00  0.13277404736E+00  0.20409300837E-01 0.  0.
         14    1    1    2    0    0 -0.10277923380E-01  0.30606909186E-02 -0.21065329786E-01  0.23637928354E-01  0.00000000000E+00 0. -1.
     999901    1    3    3    0    0  0.45909560379E-01  0.44823927712E-01 -0.95767276259E-01  0.88751802429E+00  0.88000000000E+00 0. -1.
        -11    1    4    4    0    0 -0.12607510751E-01 -0.14762324594E-01  0.20015233968E-01  0.27888102599E-01  0.51100000000E-03 0. -1.
         11    1    4    4    0    0 -0.23024126247E-01 -0.33122294036E-01  0.96817372076E-01  0.10488594476E+00  0.51100000000E-03 0.  1.
</event>
<event>
 8    1  0.1088270E+005  0.1043930E+01  0.7957747E-01            NaN
         13   -1    0    0    0    0  0.00000000000E+00  0.00000000000E+00  0.74505805969E-08  0.10566000000E+00  0.10566000000E+00 0.  1.
     999900   -1    0    0    0    0 -0.00000000000E+00 -0.00000000000E+00 -0.74505805969E-08  0.93827000000E+00  0.93827000000E+00 0.  1.
     999902    2    1    2    0    0 -0.98489730818E-02  0.15018576884E-01  0.13039542065E-01  0.10217356408E+01  0.10214945571E+01 0.  0.
     999903    2    3    3    0    0 -0.29977987798E-02  0.12305065830E+00 -0.46377522855E-01  0.13311409212E+00  0.20445918609E-01 0.  0.
         14    1    1    2    0    0  0.98489730818E-02 -0.15018576884E-01 -0.13039542065E-01  0.22194359186E-01  0.00000000000E+00 0. -1.
     999901    1    3    3    0    0 -0.68511743021E-02 -0.10803208142E+00  0.59417064920E-01  0.88862154870E+00  0.88000000000E+00 0. -1.
        -11    1    4    4    0    0  0.21743826241E-02  0.81563071109E-01 -0.39817519874E-01  0.90790740268E-01  0.51100000000E-03 0.  1.
         11    1    4    4    0    0 -0.51721814039E-02  0.41487587194E-01 -0.65600029813E-02  0.42323351849E-01  0.51100000000E-03 0. -1.
</event>
<event>
 8    1  0.1088270E+005  0.1043930E+01  0.7957747E-01            NaN
         13   -1    0    0    0    0  0.00000000000E+00  0.00000000000E+00  0.74505805969E-08  0.10566000000E+00  0.10566000000E+00 0. -1.
     999900   -1    0    0    0    0 -0.00000000000E+00 -0.00000000000E+00 -0.74505805969E-08  0.93827000000E+00  0.93827000000E+00 0.  1.
     999902    2    1    2    0    0  0.15465743676E-01  0.13055717369E-01  0.10908688059E-01  0.10209378174E+01  0.10206788852E+01 0.  0.
     999903    2    3    3    0    0 -0.86745239100E-01 -0.39407790982E-01 -0.83624296119E-01  0.12844916777E+00  0.20699161864E-01 0.  0.
         14    1    1    2    0    0 -0.15465743676E-01 -0.13055717369E-01 -0.10908688059E-01  0.22992182555E-01  0.00000000000E+00 0. -1.
     999901    1    3    3    0    0  0.10221098278E+00  0.52463508351E-01  0.94532984178E-01  0.89248864968E+00  0.88000000000E+00 0. -1.
        -11    1    4    4    0    0 -0.73164616668E-01 -0.39481751645E-01 -0.65756896018E-01  0.10600047330E+00  0.51100000000E-03 0.  1.
         11    1    4    4    0    0 -0.13580622432E-01  0.73960663468E-04 -0.17867400100E-01  0.22448694465E-01  0.51100000000E-03 0. -1.
</event>
<event>
 8    1  0.1088270E+005  0.1043930E+01  0.7957747E-01            NaN
         13   -1    0    0    0    0  0.00000000000E+00  0.00000000000E+00  0.74505805969E-08  0.10566000000E+00  0.10566000000E+00 0. -1.
     999900   -1    0    0    0    0 -0.00000000000E+00 -0.00000000000E+00 -0.74505805969E-08  0.93827000000E+00  0.93827000000E+00 0.  1.
     999902    2    1    2    0    0  0.60807494351E-02 -0.15280182150E-01 -0.12019671569E-01  0.10235601206E+01  0.10233574100E+01 0.  0.
     999903    2    3    3    0    0  0.76298464301E-02  0.12428451767E+00 -0.38836009144E-01  0.13215683307E+00  0.21268216497E-01 0.  0.
         14    1    1    2    0    0 -0.60807494351E-02  0.15280182150E-01  0.12019671569E-01  0.20369879353E-01  0.00000000000E+00 0. -1.
     999901    1    3    3    0    0 -0.15490969950E-02 -0.13956469982E+00  0.26816337575E-01  0.89140328757E+00  0.88000000000E+00 0. -1.
        -11    1    4    4    0    0  0.23255635780E-03  0.84728627865E-01 -0.17177750239E-01  0.86454211503E-01  0.51100000000E-03 0. -1.
         11    1    4    4    0    0  0.73972900723E-02  0.39555889804E-01 -0.21658258905E-01  0.45702621570E-01  0.51100000000E-03 0.  1.
</event>
<event>
 8    1  0.1088270E+005  0.1043930E+01  0.7957747E-01            NaN
         13   -1    0    0    0    0  0.00000000000E+00  0.00000000000E+00  0.74505805969E-08  0.10566000000E+00  0.10566000000E+00 0. -1.
     999900   -1    0    0    0    0 -0.00000000000E+00 -0.00000000000E+00 -0.74505805969E-08  0.93827000000E+00  0.93827000000E+00 0.  1.
     999902    2    1    2    0    0 -0.48803030820E-02 -0.23448376042E-01 -0.47386844727E-02  0.10195148648E+01  0.10192224785E+01 0.  0.
     999903    2    3    3    0    0  0.10608561890E+00  0.67301814187E-01  0.10116160261E-01  0.12779198222E+00  0.21089364442E-01 0.  0.
         14    1    1    2    0    0  0.48803030820E-02  0.23448376042E-01  0.47386844727E-02  0.24415135218E-01  0.00000000000E+00 0. -1.
     999901    1    3    3    0    0 -0.11096592198E+00 -0.90750190229E-01 -0.14854844733E-01  0.89172288256E+00  0.88000000000E+00 0. -1.
        -11    1    4    4    0    0  0.44362217672E-01  0.31471216158E-01 -0.56917181161E-02  0.54690955188E-01  0.51100000000E-03 0. -1.
         11    1    4    4    0    0  0.61723401224E-01  0.35830598029E-01  0.15807878377E-01  0.73101027035E-01  0.51100000000E-03 0.  1.
</event>
<event>
 8    1  0.1088270E+005  0.1043930E+01  0.7957747E-01            NaN
         13   -1    0    0    0    0  0.00000000000E+00  0.00000000000E+00  0.74505805969E-08  0.10566000000E+00  0.10566000000E+00 0.  1.
     999900   -1    0    0    0    0 -0.00000000000E+00 -0.00000000000E+00 -0.74505805969E-08  0.93827000000E+00  0.93827000000E+00 0. -1.
     999902    2    1    2    0    0  0.45845090484E-02 -0.82361264405E-02  0.21173987608E-01  0.10207526565E+01  0.10204894886E+01 0.  0.
     999903    2    3    3    0    0  0.14785222397E-01 -0.78633205183E-01  0.10544972228E+00  0.13386923532E+00  0.19988608690E-01 0.  0.
         14    1    1    2    0    0 -0.45845090484E-02  0.82361264405E-02 -0.21173987608E-01  0.23177343532E-01  0.00000000000E+00 0. -1.
     999901    1    3    3    0    0 -0.10200713348E-01  0.70397078743E-01 -0.84275734675E-01  0.88688342115E+00  0.88000000000E+00 0. -1.
        -11    1    4    4    0    0  0.16788150311E-01 -0.35348364802E-01  0.49891023356E-01  0.63409180861E-01  0.51100000000E-03 0. -1.
         11    1    4    4    0    0 -0.20029279143E-02 -0.43284840381E-01  0.55558698928E-01  0.70460054461E-01  0.51100000000E-03 0.  1.
</event>
<event>
 8    1  0.1088270E+005  0.1043930E+01  0.7957747E-01            NaN
         13   -1    0    0    0    0  0.00000000000E+00  0.00000000000E+00  0.74505805969E-08  0.10566000000E+00  0.10566000000E+00 0.  1.
     999900   -1    0    0    0    0 -0.00000000000E+00 -0.00000000000E+00 -0.74505805969E-08  0.93827000000E+00  0.93827000000E+00 0. -1.
     999902    2    1    2    0    0 -0.75993652897E-02 -0.12017343795E-01 -0.19215675806E-01  0.10200258351E+01  0.10197457012E+01 0.  0.
     999903    2    3    3    0    0  0.10349422913E+00  0.89347449325E-02 -0.77208201170E-01  0.13090047284E+00  0.19568912397E-01 0.  0.
         14    1    1    2    0    0  0.75993652897E-02  0.12017343795E-01  0.19215675806E-01  0.23904164938E-01  0.00000000000E+00 0.  1.
     999901    1    3    3    0    0 -0.11109359442E+00 -0.20952088727E-01  0.57992525363E-01  0.88912536222E+00  0.88000000000E+00 0.  1.
        -11    1    4    4    0    0  0.81320625283E-01  0.14953806011E-01 -0.58934165371E-01  0.10153894514E+00  0.51100000000E-03 0.  1.
         11    1    4    4    0    0  0.22173603847E-01 -0.60190610786E-02 -0.18274035798E-01  0.29361527705E-01  0.51100000000E-03 0. -1.
</event>
<event>
 8    1  0.1088270E+005  0.1043930E+01  0.7957747E-01            NaN
         13   -1    0    0    0    0  0.00000000000E+00  0.00000000000E+00  0.74505805969E-08  0.10566000000E+00  0.10566000000E+00 0.  1.
     999900   -1    0    0    0    0 -0.00000000000E+00 -0.00000000000E+00 -0.74505805969E-08  0.93827000000E+00  0.93827000000E+00 0.  1.
     999902    2    1    2    0    0  0.21090513671E-02 -0.43903986282E-02 -0.22282346412E-01  0.10211215222E+01  0.10208667574E+01 0.  0.
     999903    2    3    3    0    0  0.70827756719E-01 -0.64111650695E-01  0.85596897173E-01  0.12987137796E+00  0.20319230585E-01 0.  0.
         14    1    1    2    0    0 -0.21090513671E-02  0.43903986282E-02  0.22282346412E-01  0.22808477797E-01  0.00000000000E+00 0.  1.
     999901    1    3    3    0    0 -0.68718705352E-01  0.59721252067E-01 -0.10787924358E+00  0.89125014424E+00  0.88000000000E+00 0.  1.
        -11    1    4    4    0    0  0.48553895167E-01 -0.44220000455E-01  0.45599507268E-01  0.79952894633E-01  0.51100000000E-03 0. -1.
         11    1    4    4    0    0  0.22273861551E-01 -0.19891650240E-01  0.39997389904E-01  0.49918483329E-01  0.51100000000E-03 0.  1.
</event>
<event>
 8    1  0.1088270E+005  0.1043930E+01  0.7957747E-01            NaN
         13   -1    0    0    0    0  0.00000000000E+00  0.00000000000E+00  0.74505805969E-08  0.10566000000E+00  0.10566000000E+00 0.  1.
     999900   -1    0    0    0    0 -0.00000000000E+00 -0.00000000000E+00 -0.74505805969E-08  0.93827000000E+00  0.93827000000E+00 0.  1.
     999902    2    1    2    0    0 -0.87381725096E-02 -0.15863430742E-01 -0.15478457235E-01  0.10201059212E+01  0.10198276833E+01 0.  0.
     999903    2    3    3    0    0  0.15114036988E-01  0.27908958830E-01 -0.12593143375E+00  0.13180146322E+00  0.22484563697E-01 0.  0.
         14    1    1    2    0    0  0.87381725096E-02  0.15863430742E-01  0.15478457235E-01  0.23824078830E-01  0.00000000000E+00 0.  1.
     999901    1    3    3    0    0 -0.23852209498E-01 -0.43772389572E-01  0.11045297652E+00  0.88830445795E+00  0.88000000000E+00 0. -1.
        -11    1    4    4    0    0  0.12542568858E-01  0.30237810326E-02 -0.57680139621E-01  0.59107689119E-01  0.51100000000E-03 0.  1.
         11    1    4    4    0    0  0.25714681300E-02  0.24885177798E-01 -0.68251294129E-01  0.72693774105E-01  0.51100000000E-03 0. -1.
</event>
<event>
 8    1  0.1088270E+005  0.1043930E+01  0.7957747E-01            NaN
         13   -1    0    0    0    0  0.00000000000E+00  0.00000000000E+00  0.74505805969E-08  0.10566000000E+00  0.10566000000E+00 0.  1.
     999900   -1    0    0    0    0 -0.00000000000E+00 -0.00000000000E+00 -0.74505805969E-08  0.93827000000E+00  0.93827000000E+00 0. -1.
     999902    2    1    2    0    0  0.70773069504E-02 -0.97733175773E-02  0.20262166171E-01  0.10203469258E+01  0.10200743540E+01 0.  0.
     999903    2    3    3    0    0 -0.57746115698E-01  0.97740660057E-01 -0.56117876514E-01  0.12816127113E+00  0.19703929703E-01 0.  0.
         14    1    1    2    0    0 -0.70773069504E-02  0.97733175773E-02 -0.20262166171E-01  0.23583074186E-01  0.00000000000E+00 0.  1.
     999901    1    3    3    0    0  0.64823422648E-01 -0.10751397763E+00  0.76380042685E-01  0.89218565469E+00  0.88000000000E+00 0.  1.
        -11    1    4    4    0    0 -0.12801981850E-01  0.33508043932E-01 -0.25425887123E-01  0.43970633432E-01  0.51100000000E-03 0. -1.
         11    1    4    4    0    0 -0.44944133847E-01  0.64232616125E-01 -0.30691989390E-01  0.84190637694E-01  0.51100000000E-03 0.  1.
</event>
<event>
 8    1  0.1088270E+005  0.1043930E+01  0.7957747E-01            NaN
         13   -1    0    0    0    0  0.00000000000E+00  0.00000000000E+00  0.74505805969E-08  0.10566000000E+00  0.10566000000E+00 0. -1.
     999900   -1    0    0    0    0 -0.00000000000E+00 -0.00000000000E+00 -0.74505805969E-08  0.93827000000E+00  0.93827000000E+00 0. -1.
     999902    2    1    2    0    0 -0.22410130221E-01  0.47413171735E-02 -0.83678002782E-02  0.10195432391E+01  0.10192515403E+01 0.  0.
     999903    2    3    3    0    0 -0.58399327005E-01  0.11326789184E+00 -0.27681419372E-01  0.13193620017E+00  0.20020070423E-01 0.  0.
         14    1    1    2    0    0  0.22410130221E-01 -0.47413171735E-02  0.83678002782E-02  0.24386760887E-01  0.00000000000E+00 0. -1.
     999901    1    3    3    0    0  0.35989196784E-01 -0.10852657467E+00  0.19313619094E-01  0.88760703894E+00  0.88000000000E+00 0.  1.
        -11    1    4    4    0    0 -0.46503433967E-01  0.69413210781E-01 -0.17388899825E-01  0.85342827231E-01  0.51100000000E-03 0.  1.
         11    1    4    4    0    0 -0.11895893038E-01  0.43854681064E-01 -0.10292519547E-01  0.46593372941E-01  0.51100000000E-03 0. -1.
</event>
<event>
 8    1  0.1088270E+005  0.1043930E+01  0.7957747E-01            NaN
         13   -1    0    0    0    0  0.00000000000E+00  0.00000000000E+00  0.74505805969E-08  0.10566000000E+00  0.10566000000E+00 0. -1.
     999900   -1    0    0    0    0 -0.00000000000E+00 -0.00000000000E+00 -0.74505805969E-08  0.93827000000E+00  0.93827000000E+00 0. -1.
     999902    2    1    2    0    0 -0.22985516019E-01 -0.18695214838E-02 -0.25398887532E-02  0.10207291360E+01  0.10204654276E+01 0.  0.
     999903    2    3    3    0    0 -0.10346429516E+00  0.81567812216E-01 -0.36648324299E-02  0.13312568394E+00  0.18730946674E-01 0.  0.
         14    1    1    2    0    0  0.22985516019E-01  0.18695214838E-02  0.25398887532E-02  0.23200864038E-01  0.00000000000E+00 0. -1.
     999901    1    3    3    0    0  0.80478779146E-01 -0.83437333700E-01  0.11249436767E-02  0.88760345202E+00  0.88000000000E+00 0.  1.
        -11    1    4    4    0    0 -0.76049592912E-01  0.49494345279E-01  0.34463792356E-03  0.90739245605E-01  0.51100000000E-03 0.  1.
         11    1    4    4    0    0 -0.27414702253E-01  0.32073466937E-01 -0.40094703535E-02  0.42386438332E-01  0.51100000000E-03 0. -1.
</event>
<event>
 8    1  0.1088270E+005  0.1043930E+01  0.7957747E-01            NaN
         13   -1    0    0    0    0  0.00000000000E+00  0.00000000000E+00  0.74505805969E-08  0.10566000000E+00  0.10566000000E+00 0.  1.
     999900   -1    0    0    0    0 -0.00000000000E+00 -0.00000000000E+00 -0.74505805969E-08  0.93827000000E+00  0.93827000000E+00 0. -1.
     999902    2    1    2    0    0 -0.16007731388E-01 -0.11871090151E-01  0.11961756360E-01  0.10206866384E+01  0.10204219519E+01 0.  0.
     999903    2    3    3    0    0  0.11086785749E+00 -0.35785522681E-01  0.54513997846E-01  0.13024853921E+00  0.20509035763E-01 0.  0.
         14    1    1    2    0    0  0.16007731388E-01  0.11871090151E-01 -0.11961756360E-01  0.23243361650E-01  0.00000000000E+00 0.  1.
     999901    1    3    3    0    0 -0.12687558888E+00  0.23914432530E-01 -0.42552241486E-01  0.89043809914E+00  0.88000000000E+00 0. -1.
        -11    1    4    4    0    0  0.78633184167E-01 -0.30494623774E-01  0.47631861564E-01  0.96861525326E-01  0.51100000000E-03 0.  1.
         11    1    4    4    0    0  0.32234673325E-01 -0.52908989065E-02  0.68821362825E-02  0.33387013889E-01  0.51100000000E-03 0. -1.
</event>
<event>
 8    1  0.1088270E+005  0.1043930E+01  0.7957747E-01            NaN
         13   -1    0    0    0    0  0.00000000000E+00  0.00000000000E+00  0.74505805969E-08  0.10566000000E+00  0.10566000000E+00 0.  1.
     999900   -1    0    0    0    0 -0.00000000000E+00 -0.00000000000E+00 -0.74505805969E-08  0.93827000000E+00  0.93827000000E+00 0. -1.
     999902    2    1    2    0    0 -0.18708797546E-01  0.10591051757E-01  0.97565722312E-02  0.10203210995E+01  0.10200479233E+01 0.  0.
     999903    2    3    3    0    0 -0.25697910862E-01  0.10332520931E+00  0.76870026425E-01  0.13287944650E+00  0.20284596045E-01 0.  0.
         14    1    1    2    0    0  0.18708797546E-01 -0.10591051757E-01 -0.97565722312E-02  0.23608900539E-01  0.00000000000E+00 0. -1.
     999901    1    3    3    0    0  0.69891133157E-02 -0.92734157555E-01 -0.67113454194E-01  0.88744165296E+00  0.88000000000E+00 0. -1.
        -11    1    4    4    0    0 -0.85106217555E-02  0.60540675229E-01  0.34192628075E-01  0.70049989119E-01  0.51100000000E-03 0. -1.
         11    1    4    4    0    0 -0.17187289106E-01  0.42784534083E-01  0.42677398350E-01  0.62829457378E-01  0.51100000000E-03 0.  1.
</event>
<event>
 8    1  0.1088270E+005  0.1043930E+01  0.7957747E-01            NaN
         13   -1    0    0    0    0  0.00000000000E+00  0.00000000000E+00  0.74505805969E-08  0.10566000000E+00  0.10566000000E+00 0. -1.
     999900   -1    0    0    0    0 -0.00000000000E+00 -0.00000000000E+00 -0.74505805969E-08  0.93827000000E+00  0.93827000000E+00 0. -1.
     999902    2    1    2    0    0 -0.17465601111E-01 -0.44054064856E-02  0.12775157646E-01  0.10218469866E+01  0.10216083420E+01 0.  0.
     999903    2    3    3    0    0 -0.35982995231E-01  0.80758725985E-01  0.97932932508E-01  0.13345086437E+00  0.20038117784E-01 0.  0.
         14    1    1    2    0    0  0.17465601111E-01  0.44054064856E-02 -0.12775157646E-01  0.22083013412E-01  0.00000000000E+00 0. -1.
     999901    1    3    3    0    0  0.18517394121E-01 -0.85164132470E-01 -0.85157774862E-01  0.88839612221E+00  0.88000000000E+00 0. -1.
        -11    1    4    4    0    0 -0.32187778048E-01  0.48836127837E-01  0.62175070128E-01  0.85364049249E-01  0.51100000000E-03 0.  1.
         11    1    4    4    0    0 -0.37952171831E-02  0.31922598147E-01  0.35757862380E-01  0.48086815126E-01  0.51100000000E-03 0. -1.
</event>
<event>
 7    1  0.1088270E+005  0.1043930E+01  0.7957747E-01            NaN
         13   -1    0    0    0    0  0.00000000000E+00  0.00000000000E+00  0.74505805969E-08  0.10566000000E+00  0.10566000000E+00 0. -1.
     999900   -1    0    0    0    0 -0.00000000000E+00 -0.00000000000E+00 -0.74505805969E-08  0.93827000000E+00  0.93827000000E+00 0. -1.
     999902    2    1    2    0    0 -0.39090442347E-02 -0.13901175506E-01  0.19154501198E-01  0.10199421234E+01  0.10196600006E+01 0.  0.
         14    1    1    2    0    0  0.39090442347E-02  0.13901175506E-01 -0.19154501198E-01  0.23987876592E-01  0.00000000000E+00 0.  1.
     999901    1    3    3    0    0  0.19241832831E-01  0.20343936424E-01  0.12838024553E+00  0.88975592795E+00  0.88000000000E+00 0. -1.
        -11    1    3    3    0    0 -0.66414039390E-02 -0.40434670613E-01 -0.34995321710E-01  0.53888816061E-01  0.51100000000E-03 0.  1.
         11    1    3    3    0    0 -0.16509473126E-01  0.61895586827E-02 -0.74230422619E-01  0.76297379397E-01  0.51100000000E-03 0. -1.
</event>
<event>
 8    1  0.1088270E+005  0.1043930E+01  0.7957747E-01            NaN
         13   -1    0    0    0    0  0.00000000000E+00  0.00000000000E+00  0.74505805969E-08  0.10566000000E+00  0.10566000000E+00 0.  1.
     999900   -1    0    0    0    0 -0.00000000000E+00 -0.00000000000E+00 -0.74505805969E-08  0.93827000000E+00  0.93827000000E+00 0.  1.
     999902    2    1    2    0    0  0.17410850735E-01 -0.72229899758E-02  0.14191085412E-01  0.10203355894E+01  0.10200627524E+01 0.  0.
     999903    2    3    3    0    0 -0.25865141570E-01  0.11491949213E+00 -0.47672195811E-01  0.12869739874E+00  0.20368774360E-01 0.  0.
         14    1    1    2    0    0 -0.17410850735E-01  0.72229899758E-02 -0.14191085412E-01  0.23594410624E-01  0.00000000000E+00 0. -1.
     999901    1    3    3    0    0  0.43275992306E-01 -0.12214248210E+00  0.61863281223E-01  0.89163819064E+00  0.88000000000E+00 0.  1.
        -11    1    4    4    0    0 -0.22271043761E-02  0.81949603564E-02 -0.98767125637E-02  0.13035641189E-01  0.51100000000E-03 0.  1.
         11    1    4    4    0    0 -0.23638037194E-01  0.10672453177E+00 -0.37795483247E-01  0.11566175755E+00  0.51100000000E-03 0. -1.
</event>
<event>
 8    1  0.1088270E+005  0.1043930E+01  0.7957747E-01            NaN
         13   -1    0    0    0    0  0.00000000000E+00  0.00000000000E+00  0.74505805969E-08  0.10566000000E+00  0.10566000000E+00 0.  1.
     999900   -1    0    0    0    0 -0.00000000000E+00 -0.00000000000E+00 -0.74505805969E-08  0.93827000000E+00  0.93827000000E+00 0. -1.
     999902    2    1    2    0    0 -0.35566606980E-02 -0.21722425932E-01  0.92055681153E-02  0.10200709114E+01  0.10197918455E+01 0.  0.
     999903    2    3    3    0    0 -0.10809545382E+00  0.73094169506E-02 -0.68517382049E-01  0.13000795625E+00  0.21665233284E-01 0.  0.
         14    1    1    2    0    0  0.35566606980E-02  0.21722425932E-01 -0.92055681153E-02  0.23859088583E-01  0.00000000000E+00 0. -1.
     999901    1    3    3    0    0  0.10453879313E+00 -0.29031842883E-01  0.77722950164E-01  0.89006295516E+00  0.88000000000E+00 0.  1.
        -11    1    4    4    0    0 -0.59497921749E-01 -0.30632395706E-02 -0.46859253418E-01  0.75798660153E-01  0.51100000000E-03 0.  1.
         11    1    4    4    0    0 -0.48597532075E-01  0.10372656521E-01 -0.21658128631E-01  0.54209296102E-01  0.51100000000E-03 0. -1.
</event>
<event>
 8    1  0.1088270E+005  0.1043930E+01  0.7957747E-01            NaN
         13   -1    0    0    0    0  0.00000000000E+00  0.00000000000E+00  0.74505805969E-08  0.10566000000E+00  0.10566000000E+00 0.  1.
     999900   -1    0    0    0    0 -0.00000000000E+00 -0.00000000000E+00 -0.74505805969E-08  0.93827000000E+00  0.93827000000E+00 0.  1.
     999902    2    1    2    0    0 -0.16984157955E-01  0.86228298582E-02  0.13056382694E-01  0.10208370585E+01  0.10205758258E+01 0.  0.
     999903    2    3    3    0    0 -0.78686727309E-01  0.83409541948E-01 -0.62761791026E-01  0.13227155458E+00  0.20198242357E-01 0.  0.
         14    1    1    2    0    0  0.16984157955E-01 -0.86228298582E-02 -0.13056382694E-01  0.23092941460E-01  0.00000000000E+00 0. -1.
     999901    1    3    3    0    0  0.61702569354E-01 -0.74786712090E-01  0.75818173720E-01  0.88856550396E+00  0.88000000000E+00 0. -1.
        -11    1    4    4    0    0 -0.44926554089E-02  0.11538214898E-03 -0.57246056258E-03  0.45591773117E-02  0.51100000000E-03 0.  1.
         11    1    4    4    0    0 -0.74194071900E-01  0.83294159799E-01 -0.62189330464E-01  0.12771237726E+00  0.51100000000E-03 0. -1.
</event>
<event>
 8    1  0.1088270E+005  0.1043930E+01  0.7957747E-01            NaN
         13   -1    0    0    0    0  0.00000000000E+00  0.00000000000E+00  0.74505805969E-08  0.10566000000E+00  0.10566000000E+00 0.  1.
     999900   -1    0    0    0    0 -0.00000000000E+00 -0.00000000000E+00 -0.74505805969E-08  0.93827000000E+00  0.93827000000E+00 0.  1.
     999902    2    1    2    0    0  0.16477092982E-01 -0.73256048117E-02  0.14045670749E-01  0.10210730548E+01  0.10208171938E+01 0.  0.
     999903    2    3    3    0    0  0.27197620309E-01  0.10970412028E+00 -0.61164678615E-01  0.13008064014E+00  0.20128349937E-01 0.  0.
         14    1    1    2    0    0 -0.16477092982E-01  0.73256048117E-02 -0.14045670749E-01  0.22856945242E-01  0.00000000000E+00 0. -1.
     999901    1    3    3    0    0 -0.10720527327E-01 -0.11702972509E+00  0.75210349364E-01  0.89099241462E+00  0.88000000000E+00 0. -1.
        -11    1    4    4    0    0  0.25341101527E-01  0.64995100717E-01 -0.41742540018E-01  0.81297203592E-01  0.51100000000E-03 0.  1.
         11    1    4    4    0    0  0.18565187820E-02  0.44709019564E-01 -0.19422138597E-01  0.48783436545E-01  0.51100000000E-03 0. -1.
</event>
<event>
 8    1  0.1088270E+005  0.1043930E+01  0.7957747E-01            NaN
         13   -1    0    0    0    0  0.00000000000E+00  0.00000000000E+00  0.74505805969E-08  0.10566000000E+00  0.10566000000E+00 0.  1.
     999900   -1    0    0    0    0 -0.00000000000E+00 -0.00000000000E+00 -0.74505805969E-08  0.93827000000E+00  0.93827000000E+00 0.  1.
     999902    2    1    2    0    0 -0.10519957904E-01 -0.20652487446E-01 -0.73964664455E-02  0.10196009542E+01  0.10193106511E+01 0.  0.
     999903    2    3    3    0    0 -0.99527782568E-01 -0.27443344877E-01  0.78301456978E-01  0.13094317833E+00  0.18870111428E-01 0.  0.
         14    1    1    2    0    0  0.10519957904E-01  0.20652487446E-01  0.73964664455E-02  0.24329045766E-01  0.00000000000E+00 0.  1.
     999901    1    3    3    0    0  0.89007824665E-01  0.67908574315E-02 -0.85697923423E-01  0.88865777590E+00  0.88000000000E+00 0.  1.
        -11    1    4    4    0    0 -0.37034682768E-01 -0.13064968319E-01  0.40906660702E-01  0.56708704232E-01  0.51100000000E-03 0.  1.
         11    1    4    4    0    0 -0.62493099800E-01 -0.14378376558E-01  0.37394796276E-01  0.74234474098E-01  0.51100000000E-03 0. -1.
</event>
<event>
 8    1  0.1088270E+005  0.1043930E+01  0.7957747E-01            NaN
         13   -1    0    0    0    0  0.00000000000E+00  0.00000000000E+00  0.74505805969E-08  0.10566000000E+00  0.10566000000E+00 0. -1.
     999900   -1    0    0    0    0 -0.00000000000E+00 -0.00000000000E+00 -0.74505805969E-08  0.93827000000E+00  0.93827000000E+00 0. -1.
     999902    2    1    2    0    0 -0.12371097236E-01  0.16895823419E-02 -0.19698930930E-01  0.10206073369E+01  0.10203408203E+01 0.  0.
     999903    2    3    3    0    0 -0.11640077356E+00 -0.58280503221E-01  0.79531287630E-02  0.13202238251E+00  0.20515849634E-01 0.  0.
         14    1    1    2    0    0  0.12371097236E-01 -0.16895823419E-02  0.19698930930E-01  0.23322663122E-01  0.00000000000E+00 0. -1.
     999901    1    3    3    0    0  0.10402967632E+00  0.59970085563E-01 -0.27652059693E-01  0.88858495437E+00  0.88000000000E+00 0.  1.
        -11    1    4    4    0    0 -0.27248738864E-01 -0.56640886280E-02  0.60343910634E-02  0.28482462432E-01  0.51100000000E-03 0.  1.
         11    1    4    4    0    0 -0.89152034696E-01 -0.52616414593E-01  0.19187376996E-02  0.10353992008E+00  0.51100000000E-03 0. -1.
</event>
<event>
 8    1  0.1088270E+005  0.1043930E+01  0.7957747E-01            NaN
         13   -1    0    0    0    0  0.00000000000E+00  0.00000000000E+00  0.74505805969E-08  0.10566000000E+00  0.10566000000E+00 0.  1.
     999900   -1    0    0    0    0 -0.00000000000E+00 -0.00000000000E+00 -0.74505805969E-08  0.93827000000E+00  0.93827000000E+00 0. -1.
     999902    2    1    2    0    0  0.16610482924E-02  0.14355994971E-01  0.21871968085E-01  0.10177148010E+01  0.10173771078E+01 0.  0.
     999903    2    3    3    0    0 -0.49599135442E-01 -0.92060909316E-01 -0.65439704871E-01  0.12554021480E+00  0.23296036078E-01 0.  0.
         14    1    1    2    0    0 -0.16610482924E-02 -0.14355994971E-01 -0.21871968085E-01  0.26215199045E-01  0.00000000000E+00 0. -1.
     999901    1    3    3    0    0  0.51260183734E-01  0.10641690429E+00  0.87311672955E-01  0.89217458616E+00  0.88000000000E+00 0.  1.
        -11    1    4    4    0    0 -0.25220594808E-01 -0.47558536467E-01 -0.20017059495E-01  0.57435499346E-01  0.51100000000E-03 0.  1.
         11    1    4    4    0    0 -0.24378540633E-01 -0.44502372849E-01 -0.45422645375E-01  0.68104715450E-01  0.51100000000E-03 0. -1.
</event>
<event>
 8    1  0.1088270E+005  0.1043930E+01  0.7957747E-01            NaN
         13   -1    0    0    0    0  0.00000000000E+00  0.00000000000E+00  0.74505805969E-08  0.10566000000E+00  0.10566000000E+00 0.  1.
     999900   -1    0    0    0    0 -0.00000000000E+00 -0.00000000000E+00 -0.74505805969E-08  0.93827000000E+00  0.93827000000E+00 0.  1.
     999902    2    1    2    0    0  0.77580410754E-02  0.21528358144E-01  0.63622937035E-02  0.10201784487E+01  0.10199019223E+01 0.  0.
     999903    2    3    3    0    0  0.16350489529E-01 -0.55545330730E-01 -0.11295377958E+00  0.12874673009E+00  0.21553234381E-01 0.  0.
         14    1    1    2    0    0 -0.77580410754E-02 -0.21528358144E-01 -0.63622937035E-02  0.23751551252E-01  0.00000000000E+00 0. -1.
     999901    1    3    3    0    0 -0.85924484536E-02  0.77073688874E-01  0.11931607329E+00  0.89143171866E+00  0.88000000000E+00 0. -1.
        -11    1    4    4    0    0  0.91723946998E-02 -0.17651219153E-01 -0.20498779469E-01  0.28568504386E-01  0.51100000000E-03 0. -1.
         11    1    4    4    0    0  0.71780948292E-02 -0.37894111577E-01 -0.92455000116E-01  0.10017822570E+00  0.51100000000E-03 0.  1.
</event>
<event>
 8    1  0.1088270E+005  0.1043930E+01  0.7957747E-01            NaN
         13   -1    0    0    0    0  0.00000000000E+00  0.00000000000E+00  0.74505805969E-08  0.10566000000E+00  0.10566000000E+00 0.  1.
     999900   -1    0    0    0    0 -0.00000000000E+00 -0.00000000000E+00 -0.74505805969E-08  0.93827000000E+00  0.93827000000E+00 0.  1.
     999902    2    1    2    0    0 -0.22273389521E-01  0.79926173450E-02  0.12706207535E-02  0.10202318927E+01  0.10199566239E+01 0.  0.
     999903    2    3    3    0    0  0.98679104896E-01 -0.52531193876E-01 -0.58831137442E-01  0.12787273912E+00  0.19830345532E-01 0.  0.
         14    1    1    2    0    0  0.22273389521E-01 -0.79926173450E-02 -0.12706207535E-02  0.23698107306E-01  0.00000000000E+00 0. -1.
     999901    1    3    3    0    0 -0.12095249442E+00  0.60523811221E-01  0.60101758195E-01  0.89235915357E+00  0.88000000000E+00 0. -1.
        -11    1    4    4    0    0  0.53485298776E-01 -0.29373390967E-01 -0.43098448594E-01  0.74707500790E-01  0.51100000000E-03 0.  1.
         11    1    4    4    0    0  0.45193806120E-01 -0.23157802909E-01 -0.15732688848E-01  0.53165238329E-01  0.51100000000E-03 0. -1.
</event>
<event>
 8    1  0.1088270E+005  0.1043930E+01  0.7957747E-01            NaN
         13   -1    0    0    0    0  0.00000000000E+00  0.00000000000E+00  0.74505805969E-08  0.10566000000E+00  0.10566000000E+00 0. -1.
     999900   -1    0    0    0    0 -0.00000000000E+00 -0.00000000000E+00 -0.74505805969E-08  0.93827000000E+00  0.93827000000E+00 0. -1.
     999902    2    1    2    0    0 -0.64184828484E-02  0.18928051394E-01 -0.12734729340E-01  0.10202310257E+01  0.10199557365E+01 0.  0.
     999903    2    3    3    0    0 -0.56051281096E-01 -0.18632498329E-01  0.11312625832E+00  0.12909961127E+00  0.19499825726E-01 0.  0.
         14    1    1    2    0    0  0.64184828484E-02 -0.18928051394E-01  0.12734729340E-01  0.23698974303E-01  0.00000000000E+00 0. -1.
     999901    1    3    3    0    0  0.49632798248E-01  0.37560549723E-01 -0.12586098766E+00  0.89113141442E+00  0.88000000000E+00 0. -1.
        -11    1    4    4    0    0 -0.39927370066E-01 -0.71906137395E-02  0.89644139797E-01  0.98398337015E-01  0.51100000000E-03 0. -1.
         11    1    4    4    0    0 -0.16123911030E-01 -0.11441884589E-01  0.23482118522E-01  0.30701274259E-01  0.51100000000E-03 0.  1.
</event>
<event>
 8    1  0.1088270E+005  0.1043930E+01  0.7957747E-01            NaN
         13   -1    0    0    0    0  0.00000000000E+00  0.00000000000E+00  0.74505805969E-08  0.10566000000E+00  0.10566000000E+00 0.  1.
     999900   -1    0    0    0    0 -0.00000000000E+00 -0.00000000000E+00 -0.74505805969E-08  0.93827000000E+00  0.93827000000E+00 0.  1.
     999902    2    1    2    0    0  0.11971164052E-01 -0.33411983852E-02  0.20101233008E-01  0.10202967196E+01  0.10200229723E+01 0.  0.
     999903    2    3    3    0    0  0.78833854417E-01 -0.15242126367E-01 -0.10017910350E+00  0.12952199451E+00  0.17117104517E-01 0.  0.
         14    1    1    2    0    0 -0.11971164052E-01  0.33411983852E-02 -0.20101233008E-01  0.23633280430E-01  0.00000000000E+00 0. -1.
     999901    1    3    3    0    0 -0.66862690366E-01  0.11900927982E-01  0.12028033650E+00  0.89077472506E+00  0.88000000000E+00 0. -1.
        -11    1    4    4    0    0  0.71853731169E-02 -0.52209697592E-02 -0.17690743713E-01  0.19801809165E-01  0.51100000000E-03 0.  1.
         11    1    4    4    0    0  0.71648481300E-01 -0.10021156608E-01 -0.82488359783E-01  0.10972018535E+00  0.51100000000E-03 0. -1.
</event>
<event>
 8    1  0.1088270E+005  0.1043930E+01  0.7957747E-01            NaN
         13   -1    0    0    0    0  0.00000000000E+00  0.00000000000E+00  0.74505805969E-08  0.10566000000E+00  0.10566000000E+00 0.  1.
     999900   -1    0    0    0    0 -0.00000000000E+00 -0.00000000000E+00 -0.74505805969E-08  0.93827000000E+00  0.93827000000E+00 0.  1.
     999902    2    1    2    0    0  0.36678613767E-02  0.19314926825E-01  0.14005954856E-01  0.10197911024E+01  0.10195053733E+01 0.  0.
     999903    2    3    3    0    0  0.63096478363E-01 -0.69463473963E-01  0.88115900330E-01  0.13023747897E+00  0.19774964987E-01 0.  0.
         14    1    1    2    0    0 -0.36678613767E-02 -0.19314926825E-01 -0.14005954856E-01  0.24138897589E-01  0.00000000000E+00 0. -1.
     999901    1    3    3    0    0 -0.59428616986E-01  0.88778400789E-01 -0.74109945473E-01  0.88955362344E+00  0.88000000000E+00 0.  1.
        -11    1    4    4    0    0  0.25202306354E-01 -0.14380521572E-01  0.27938875681E-01  0.40283961344E-01  0.51100000000E-03 0. -1.
         11    1    4    4    0    0  0.37894172008E-01 -0.55082952392E-01  0.60177024649E-01  0.89953517624E-01  0.51100000000E-03 0.  1.
</event>
<event>
 8    1  0.1088270E+005  0.1043930E+01  0.7957747E-01            NaN
         13   -1    0    0    0    0  0.00000000000E+00  0.00000000000E+00  0.74505805969E-08  0.10566000000E+00  0.10566000000E+00 0. -1.
     999900   -1    0    0    0    0 -0.00000000000E+00 -0.00000000000E+00 -0.74505805969E-08  0.93827000000E+00  0.93827000000E+00 0.  1.
     999902    2    1    2    0    0 -0.80358989352E-02 -0.21917821593E-01  0.43415254878E-02  0.10201852023E+01  0.10199088349E+01 0.  0.
     999903    2    3    3    0    0  0.72414758854E-01  0.84314844528E-01 -0.59820574149E-01  0.12784308027E+00  0.20309154914E-01 0.  0.
         14    1    1    2    0    0  0.80358989352E-02  0.21917821593E-01 -0.43415254878E-02  0.23744797718E-01  0.00000000000E+00 0. -1.
     999901    1    3    3    0    0 -0.80450657789E-01 -0.10623266612E+00  0.64162099637E-01  0.89234212201E+00  0.88000000000E+00 0. -1.
        -11    1    4    4    0    0  0.33571406379E-01  0.49273453938E-01 -0.40472897286E-01  0.72064062645E-01  0.51100000000E-03 0. -1.
         11    1    4    4    0    0  0.38843352475E-01  0.35041390591E-01 -0.19347676863E-01  0.55779017623E-01  0.51100000000E-03 0.  1.
</event>
<event>
 8    1  0.1088270E+005  0.1043930E+01  0.7957747E-01            NaN
         13   -1    0    0    0    0  0.00000000000E+00  0.00000000000E+00  0.74505805969E-08  0.10566000000E+00  0.10566000000E+00 0. -1.
     999900   -1    0    0    0    0 -0.00000000000E+00 -0.00000000000E+00 -0.74505805969E-08  0.93827000000E+00  0.93827000000E+00 0.  1.
     999902    2    1    2    0    0 -0.15584469196E-01 -0.12687045377E-01  0.11313658686E-01  0.10208684373E+01  0.10206079221E+01 0.  0.
     999903    2    3    3    0    0 -0.10919556360E+00  0.63928099241E-01  0.33178646169E-01  0.13232412494E+00  0.19959421228E-01 0.  0.
         14    1    1    2    0    0  0.15584469196E-01  0.12687045377E-01 -0.11313658686E-01  0.23061562683E-01  0.00000000000E+00 0. -1.
     999901    1    3    3    0    0  0.93611094409E-01 -0.76615144618E-01 -0.21864987482E-01  0.88854431238E+00  0.88000000000E+00 0.  1.
        -11    1    4    4    0    0 -0.98283795728E-02  0.12245827271E-01  0.79116080935E-03  0.15730365126E-01  0.51100000000E-03 0. -1.
         11    1    4    4    0    0 -0.99367184032E-01  0.51682271970E-01  0.32387485359E-01  0.11659375981E+00  0.51100000000E-03 0.  1.
</event>
<event>
 8    1  0.1088270E+005  0.1043930E+01  0.7957747E-01            NaN
         13   -1    0    0    0    0  0.00000000000E+00  0.00000000000E+00  0.74505805969E-08  0.10566000000E+00  0.10566000000E+00 0.  1.
     999900   -1    0    0    0    0 -0.00000000000E+00 -0.00000000000E+00 -0.74505805969E-08  0.93827000000E+00  0.93827000000E+00 0.  1.
     999902    2    1    2    0    0 -0.18994890487E-01  0.11604421296E-01 -0.76689299944E-02  0.10203868280E+01  0.10201151886E+01 0.  0.
     999903    2    3    3    0    0  0.89413396294E-02  0.58356805836E-01  0.11434136508E+00  0.13030102852E+00  0.20468168567E-01 0.  0.
         14    1    1    2    0    0  0.18994890487E-01 -0.11604421296E-01  0.76689299944E-02  0.23543171951E-01  0.00000000000E+00 0.  1.
     999901    1    3    3    0    0 -0.27936230117E-01 -0.46752384540E-01 -0.12201029507E+00  0.89008579953E+00  0.88000000000E+00 0.  1.
        -11    1    4    4    0    0 -0.41411589035E-02  0.24597188606E-01  0.33948406385E-01  0.42129874216E-01  0.51100000000E-03 0. -1.
         11    1    4    4    0    0  0.13082498533E-01  0.33759617231E-01  0.80392958694E-01  0.88171154308E-01  0.51100000000E-03 0.  1.
</event>
<event>
 8    1  0.1088270E+005  0.1043930E+01  0.7957747E-01            NaN
         13   -1    0    0    0    0  0.00000000000E+00  0.00000000000E+00  0.74505805969E-08  0.10566000000E+00  0.10566000000E+00 0.  1.
     999900   -1    0    0    0    0 -0.00000000000E+00 -0.00000000000E+00 -0.74505805969E-08  0.93827000000E+00  0.93827000000E+00 0. -1.
     999902    2    1    2    0    0 -0.15270958967E-01 -0.19623962547E-02 -0.17480143701E-01  0.10206360392E+01  0.10203701857E+01 0.  0.
     999903    2    3    3    0    0  0.79765026160E-01 -0.63331649083E-01  0.75902414103E-01  0.12849349129E+00  0.19391845260E-01 0.  0.
         14    1    1    2    0    0  0.15270958967E-01  0.19623962547E-02  0.17480143701E-01  0.23293960819E-01  0.00000000000E+00 0.  1.
     999901    1    3    3    0    0 -0.95035985126E-01  0.61369252828E-01 -0.93382557804E-01  0.89214254789E+00  0.88000000000E+00 0.  1.
        -11    1    4    4    0    0  0.12318050753E-01 -0.15517119054E-01  0.22901174288E-01  0.30285974690E-01  0.51100000000E-03 0.  1.
         11    1    4    4    0    0  0.67446975406E-01 -0.47814530029E-01  0.53001239815E-01  0.98207516597E-01  0.51100000000E-03 0. -1.
</event>
<event>
 8    1  0.1088270E+005  0.1043930E+01  0.7957747E-01            NaN
         13   -1    0    0    0    0  0.00000000000E+00  0.00000000000E+00  0.74505805969E-08  0.10566000000E+00  0.10566000000E+00 0. -1.
     999900   -1    0    0    0    0 -0.00000000000E+00 -0.00000000000E+00 -0.74505805969E-08  0.93827000000E+00  0.93827000000E+00 0.  1.
     999902    2    1    2    0    0 -0.13711091447E-01  0.15013313515E-01 -0.12059888533E-01  0.10202903189E+01  0.10200164216E+01 0.  0.
     999903    2    3    3    0    0 -0.86778826433E-01 -0.57524354230E-01 -0.78366040663E-01  0.13181009236E+00  0.19825439999E-01 0.  0.
         14    1    1    2    0    0  0.13711091447E-01 -0.15013313515E-01  0.12059888533E-01  0.23639681106E-01  0.00000000000E+00 0.  1.
     999901    1    3    3    0    0  0.73067734986E-01  0.72537667745E-01  0.66306152130E-01  0.88848022654E+00  0.88000000000E+00 0.  1.
        -11    1    4    4    0    0 -0.32663837944E-01 -0.16604212876E-01 -0.38342499069E-01  0.53038048139E-01  0.51100000000E-03 0. -1.
         11    1    4    4    0    0 -0.54114988488E-01 -0.40920141353E-01 -0.40023541594E-01  0.78772044218E-01  0.51100000000E-03 0.  1.
</event>
<event>
 8    1  0.1088270E+005  0.1043930E+01  0.7957747E-01            NaN
         13   -1    0    0    0    0  0.00000000000E+00  0.00000000000E+00  0.74505805969E-08  0.10566000000E+00  0.10566000000E+00 0.  1.
     999900   -1    0    0    0    0 -0.00000000000E+00 -0.00000000000E+00 -0.74505805969E-08  0.93827000000E+00  0.93827000000E+00 0.  1.
     999902    2    1    2    0    0  0.11561444356E-01 -0.52808568598E-02  0.27184499163E-01  0.10139208107E+01  0.10134766199E+01 0.  0.
     999903    2    3    3    0    0 -0.93011752225E-01  0.32583059511E-02  0.82536112044E-01  0.12596119917E+00  0.19804325171E-01 0.  0.
         14    1    1    2    0    0 -0.11561444356E-01  0.52808568598E-02 -0.27184499163E-01  0.30009189251E-01  0.00000000000E+00 0. -1.
     999901    1    3    3    0    0  0.10457319658E+00 -0.85391628109E-02 -0.55351612881E-01  0.88795961158E+00  0.88000000000E+00 0. -1.
        -11    1    4    4    0    0 -0.29437841451E-01 -0.75917424148E-02  0.22244788583E-01  0.37673768093E-01  0.51100000000E-03 0. -1.
         11    1    4    4    0    0 -0.63573910774E-01  0.10850048366E-01  0.60291323462E-01  0.88287431078E-01  0.51100000000E-03 0.  1.
</event>
<event>
 8    1  0.1088270E+005  0.1043930E+01  0.7957747E-01            NaN
         13   -1    0    0    0    0  0.00000000000E+00  0.00000000000E+00  0.74505805969E-08  0.10566000000E+00  0.10566000000E+00 0.  1.
     999900   -1    0    0    0    0 -0.00000000000E+00 -0.00000000000E+00 -0.74505805969E-08  0.93827000000E+00  0.93827000000E+00 0.  1.
     999902    2    1    2    0    0 -0.41754630630E-02  0.11869067347E-01 -0.23398536074E-01  0.10173630893E+01  0.10170161527E+01 0.  0.
     999903    2    3    3    0    0 -0.58759544587E-01  0.59263546899E-02  0.10917744721E+00  0.12574033889E+00  0.20077651376E-01 0.  0.
         14    1    1    2    0    0  0.41754630630E-02 -0.11869067347E-01  0.23398536074E-01  0.26566910657E-01  0.00000000000E+00 0.  1.
     999901    1    3    3    0    0  0.54584081524E-01  0.59427126568E-02 -0.13257598328E+00  0.89162275046E+00  0.88000000000E+00 0.  1.
        -11    1    4    4    0    0 -0.13238820127E-01  0.10075766465E-01  0.27745405727E-01  0.32355155512E-01  0.51100000000E-03 0.  1.
         11    1    4    4    0    0 -0.45520724460E-01 -0.41494117756E-02  0.81432041478E-01  0.93385183374E-01  0.51100000000E-03 0. -1.
</event>
<event>
 8    1  0.1088270E+005  0.1043930E+01  0.7957747E-01            NaN
         13   -1    0    0    0    0  0.00000000000E+00  0.00000000000E+00  0.74505805969E-08  0.10566000000E+00  0.10566000000E+00 0.  1.
     999900   -1    0    0    0    0 -0.00000000000E+00 -0.00000000000E+00 -0.74505805969E-08  0.93827000000E+00  0.93827000000E+00 0. -1.
     999902    2    1    2    0    0  0.14715130931E-01  0.15709319926E-01 -0.10155805343E-01  0.10201296178E+01  0.10198519397E+01 0.  0.
     999903    2    3    3    0    0  0.77145088537E-01  0.74251939989E-01 -0.77137530883E-01  0.13344405373E+00  0.19809127372E-01 0.  0.
         14    1    1    2    0    0 -0.14715130931E-01 -0.15709319926E-01  0.10155805343E-01  0.23800382203E-01  0.00000000000E+00 0.  1.
     999901    1    3    3    0    0 -0.62429957607E-01 -0.58542620063E-01  0.66981725540E-01  0.88668556407E+00  0.88000000000E+00 0.  1.
        -11    1    4    4    0    0  0.27078761406E-01  0.34570614353E-01 -0.22319867793E-01  0.49262808643E-01  0.51100000000E-03 0.  1.
         11    1    4    4    0    0  0.50066327131E-01  0.39681325636E-01 -0.54817663090E-01  0.84181245086E-01  0.51100000000E-03 0. -1.
</event>
<event>
 8    1  0.1088270E+005  0.1043930E+01  0.7957747E-01            NaN
         13   -1    0    0    0    0  0.00000000000E+00  0.00000000000E+00  0.74505805969E-08  0.10566000000E+00  0.10566000000E+00 0.  1.
     999900   -1    0    0    0    0 -0.00000000000E+00 -0.00000000000E+00 -0.74505805969E-08  0.93827000000E+00  0.93827000000E+00 0.  1.
     999902    2    1    2    0    0 -0.34979343272E-02  0.70772501514E-02 -0.21575049921E-01  0.10209559757E+01  0.10206974569E+01 0.  0.
     999903    2    3    3    0    0  0.20503523298E-01 -0.12698220534E+00 -0.69353440569E-02  0.13035936185E+00  0.20014726695E-01 0.  0.
         14    1    1    2    0    0  0.34979343272E-02 -0.70772501514E-02  0.21575049921E-01  0.22974024318E-01  0.00000000000E+00 0.  1.
     999901    1    3    3    0    0 -0.24001457625E-01  0.13405945549E+00 -0.14639705864E-01  0.89059661383E+00  0.88000000000E+00 0.  1.
        -11    1    4    4    0    0  0.20464204154E-01 -0.84628042602E-01  0.19046064638E-02  0.87089482104E-01  0.51100000000E-03 0.  1.
         11    1    4    4    0    0  0.39319143502E-04 -0.42354162739E-01 -0.88399505207E-02  0.43269879750E-01  0.51100000000E-03 0. -1.
</event>
<event>
 8    1  0.1088270E+005  0.1043930E+01  0.7957747E-01            NaN
         13   -1    0    0    0    0  0.00000000000E+00  0.00000000000E+00  0.74505805969E-08  0.10566000000E+00  0.10566000000E+00 0. -1.
     999900   -1    0    0    0    0 -0.00000000000E+00 -0.00000000000E+00 -0.74505805969E-08  0.93827000000E+00  0.93827000000E+00 0.  1.
     999902    2    1    2    0    0  0.17897552339E-01  0.13605226178E-01 -0.72409057788E-02  0.10203110399E+01  0.10200376282E+01 0.  0.
     999903    2    3    3    0    0 -0.26738671791E-01  0.50506236576E-01 -0.11695245899E+00  0.13160934531E+00  0.19424356057E-01 0.  0.
         14    1    1    2    0    0 -0.17897552339E-01 -0.13605226178E-01  0.72409057788E-02  0.23618960087E-01  0.00000000000E+00 0. -1.
     999901    1    3    3    0    0  0.44636224131E-01 -0.36901010398E-01  0.10971155321E+00  0.88870169460E+00  0.88000000000E+00 0. -1.
        -11    1    4    4    0    0 -0.13681833608E-01  0.15729027355E-01 -0.60825734962E-01  0.64301057745E-01  0.51100000000E-03 0. -1.
         11    1    4    4    0    0 -0.13056838183E-01  0.34777209221E-01 -0.56126724028E-01  0.67308287570E-01  0.51100000000E-03 0.  1.
</event>
<event>
 8    1  0.1088270E+005  0.1043930E+01  0.7957747E-01            NaN
         13   -1    0    0    0    0  0.00000000000E+00  0.00000000000E+00  0.74505805969E-08  0.10566000000E+00  0.10566000000E+00 0.  1.
     999900   -1    0    0    0    0 -0.00000000000E+00 -0.00000000000E+00 -0.74505805969E-08  0.93827000000E+00  0.93827000000E+00 0.  1.
     999902    2    1    2    0    0  0.71515127807E-02 -0.13240377409E-01 -0.17528133046E-01  0.10208283296E+01  0.10205668970E+01 0.  0.
     999903    2    3    3    0    0 -0.76174118361E-01  0.96202524875E-01 -0.37732257646E-01  0.12991356578E+00  0.19909525536E-01 0.  0.
         14    1    1    2    0    0 -0.71515127807E-02  0.13240377409E-01  0.17528133046E-01  0.23101670439E-01  0.00000000000E+00 0.  1.
     999901    1    3    3    0    0  0.83325631142E-01 -0.10944290228E+00  0.20204124600E-01  0.89091476378E+00  0.88000000000E+00 0.  1.
        -11    1    4    4    0    0 -0.67580866365E-02  0.15236532721E-01 -0.10956577429E-01  0.19953229671E-01  0.51100000000E-03 0.  1.
         11    1    4    4    0    0 -0.69416031724E-01  0.80965992154E-01 -0.26775680217E-01  0.10996033611E+00  0.51100000000E-03 0. -1.
</event>
<event>
 7    1  0.1088270E+005  0.1043930E+01  0.7957747E-01            NaN
         13   -1    0    0    0    0  0.00000000000E+00  0.00000000000E+00  0.74505805969E-08  0.10566000000E+00  0.10566000000E+00 0.  1.
     999900   -1    0    0    0    0 -0.00000000000E+00 -0.00000000000E+00 -0.74505805969E-08  0.93827000000E+00  0.93827000000E+00 0. -1.
     999902    2    1    2    0    0 -0.13992332270E-01  0.12361020022E-01  0.10564551544E-01  0.10224779622E+01  0.10222529008E+01 0.  0.
         14    1    1    2    0    0  0.13992332270E-01 -0.12361020022E-01 -0.10564551544E-01  0.21452037844E-01  0.00000000000E+00 0. -1.
     999901    1    3    3    0    0  0.42263733575E-01  0.45468394991E-01  0.11561729846E+00  0.88973083448E+00  0.88000000000E+00 0.  1.
        -11    1    3    3    0    0 -0.48676224047E-01 -0.25852617132E-02 -0.53687119318E-01  0.72516386198E-01  0.51100000000E-03 0.  1.
         11    1    3    3    0    0 -0.75798417979E-02 -0.30522113255E-01 -0.51365627601E-01  0.60230741479E-01  0.51100000000E-03 0. -1.
</event>
<event>
 8    1  0.1088270E+005  0.1043930E+01  0.7957747E-01            NaN
         13   -1    0    0    0    0  0.00000000000E+00  0.00000000000E+00  0.74505805969E-08  0.10566000000E+00  0.10566000000E+00 0.  1.
     999900   -1    0    0    0    0 -0.00000000000E+00 -0.00000000000E+00 -0.74505805969E-08  0.93827000000E+00  0.93827000000E+00 0. -1.
     999902    2    1    2    0    0  0.93529742390E-02  0.19827200276E-01 -0.10194465455E-01  0.10197530870E+01  0.10194664464E+01 0.  0.
     999903    2    3    3    0    0  0.30254959891E-01 -0.65073616338E-01  0.10324470993E+00  0.12817387670E+00  0.24882411432E-01 0.  0.
         14    1    1    2    0    0 -0.93529742390E-02 -0.19827200276E-01  0.10194465455E-01  0.24176913033E-01  0.00000000000E+00 0.  1.
     999901    1    3    3    0    0 -0.20901985652E-01  0.84900816614E-01 -0.11343917539E+00  0.89157921027E+00  0.88000000000E+00 0. -1.
        -11    1    4    4    0    0 -0.36595853040E-02 -0.11271907692E-01  0.11357396090E-01  0.16422546531E-01  0.51100000000E-03 0. -1.
         11    1    4    4    0    0  0.33914545195E-01 -0.53801708646E-01  0.91887313840E-01  0.11175133017E+00  0.51100000000E-03 0.  1.
</event>
<event>
 8    1  0.1088270E+005  0.1043930E+01  0.7957747E-01            NaN
         13   -1    0    0    0    0  0.00000000000E+00  0.00000000000E+00  0.74505805969E-08  0.10566000000E+00  0.10566000000E+00 0.  1.
     999900   -1    0    0    0    0 -0.00000000000E+00 -0.00000000000E+00 -0.74505805969E-08  0.93827000000E+00  0.93827000000E+00 0. -1.
     999902    2    1    2    0    0  0.23094179625E-02  0.14667623686E-01  0.22486934441E-01  0.10169831112E+01  0.10166260441E+01 0.  0.
     999903    2    3    3    0    0 -0.84939230902E-02  0.12422096833E+00 -0.26390193520E-01  0.12877839316E+00  0.19607053001E-01 0.  0.
         14    1    1    2    0    0 -0.23094179625E-02 -0.14667623686E-01 -0.22486934441E-01  0.26946888809E-01  0.00000000000E+00 0. -1.
     999901    1    3    3    0    0  0.10803341053E-01 -0.10955334465E+00  0.48877127961E-01  0.88820471803E+00  0.88000000000E+00 0. -1.
        -11    1    4    4    0    0  0.12891587692E-02  0.17391211049E-01  0.26324036064E-02  0.17643889079E-01  0.51100000000E-03 0. -1.
         11    1    4    4    0    0 -0.97830818594E-02  0.10682975728E+00 -0.29022597126E-01  0.11113450408E+00  0.51100000000E-03 0.  1.
</event>
<event>
 8    1  0.1088270E+005  0.1043930E+01  0.7957747E-01            NaN
         13   -1    0    0    0    0  0.00000000000E+00  0.00000000000E+00  0.74505805969E-08  0.10566000000E+00  0.10566000000E+00 0. -1.
     999900   -1    0    0    0    0 -0.00000000000E+00 -0.00000000000E+00 -0.74505805969E-08  0.93827000000E+00  0.93827000000E+00 0.  1.
     999902    2    1    2    0    0  0.10322098982E-01  0.16531278357E-01  0.14117459435E-01  0.10198648478E+01  0.10195808826E+01 0.  0.
     999903    2    3    3    0    0 -0.44956155187E-01 -0.21976288091E-01 -0.11597390681E+00  0.12775371027E+00  0.19158556842E-01 0.  0.
         14    1    1    2    0    0 -0.10322098982E-01 -0.16531278357E-01 -0.14117459435E-01  0.24065152242E-01  0.00000000000E+00 0.  1.
     999901    1    3    3    0    0  0.55278254169E-01  0.38507566448E-01  0.13009136624E+00  0.89211113749E+00  0.88000000000E+00 0. -1.
        -11    1    4    4    0    0 -0.10160077968E-01 -0.27645588376E-02 -0.98426813029E-02  0.14422533277E-01  0.51100000000E-03 0. -1.
         11    1    4    4    0    0 -0.34796077218E-01 -0.19211729253E-01 -0.10613122551E+00  0.11333117699E+00  0.51100000000E-03 0.  1.
</event>
<event>
 8    1  0.1088270E+005  0.1043930E+01  0.7957747E-01            NaN
         13   -1    0    0    0    0  0.00000000000E+00  0.00000000000E+00  0.74505805969E-08  0.10566000000E+00  0.10566000000E+00 0. -1.
     999900   -1    0    0    0    0 -0.00000000000E+00 -0.00000000000E+00 -0.74505805969E-08  0.93827000000E+00  0.93827000000E+00 0.  1.
     999902    2    1    2    0    0 -0.18968345352E-01 -0.38642091024E-02  0.12967385639E-01  0.10206301432E+01  0.10203641535E+01 0.  0.
     999903    2    3    3    0    0  0.80102835196E-02  0.10330347258E+00  0.78193061295E-01  0.13132302684E+00  0.19894985640E-01 0.  0.
         14    1    1    2    0    0  0.18968345352E-01  0.38642091024E-02 -0.12967385639E-01  0.23299856817E-01  0.00000000000E+00 0. -1.
     999901    1    3    3    0    0 -0.26978628871E-01 -0.10716768169E+00 -0.65225675656E-01  0.88930711634E+00  0.88000000000E+00 0.  1.
        -11    1    4    4    0    0 -0.43588303003E-02  0.26120709509E-01  0.27351975487E-01  0.38074696990E-01  0.51100000000E-03 0. -1.
         11    1    4    4    0    0  0.12369113820E-01  0.77182763076E-01  0.50841085808E-01  0.93248329851E-01  0.51100000000E-03 0.  1.
</event>
<event>
 8    1  0.1088270E+005  0.1043930E+01  0.7957747E-01            NaN
         13   -1    0    0    0    0  0.00000000000E+00  0.00000000000E+00  0.74505805969E-08  0.10566000000E+00  0.10566000000E+00 0. -1.
     999900   -1    0    0    0    0 -0.00000000000E+00 -0.00000000000E+00 -0.74505805969E-08  0.93827000000E+00  0.93827000000E+00 0. -1.
     999902    2    1    2    0    0 -0.42947525134E-02  0.10085001680E-01  0.19933702437E-01  0.10211812714E+01  0.10209278547E+01 0.  0.
     999903    2    3    3    0    0 -0.10428853433E-01  0.11273640810E+00  0.68326434156E-01  0.13387253435E+00  0.20858934646E-01 0.  0.
         14    1    1    2    0    0  0.42947525134E-02 -0.10085001680E-01 -0.19933702437E-01  0.22748728556E-01  0.00000000000E+00 0.  1.
     999901    1    3    3    0    0  0.61341009195E-02 -0.10265140642E+00 -0.48392731718E-01  0.88730873709E+00  0.88000000000E+00 0. -1.
        -11    1    4    4    0    0  0.53710970402E-02  0.54854469060E-01  0.33130023428E-01  0.64309571859E-01  0.51100000000E-03 0. -1.
         11    1    4    4    0    0 -0.15799950473E-01  0.57881939040E-01  0.35196410727E-01  0.69562962495E-01  0.51100000000E-03 0.  1.
</event>
<event>
 8    1  0.1088270E+005  0.1043930E+01  0.7957747E-01            NaN
         13   -1    0    0    0    0  0.00000000000E+00  0.00000000000E+00  0.74505805969E-08  0.10566000000E+00  0.10566000000E+00 0.  1.
     999900   -1    0    0    0    0 -0.00000000000E+00 -0.00000000000E+00 -0.74505805969E-08  0.93827000000E+00  0.93827000000E+00 0. -1.
     999902    2    1    2    0    0 -0.83053995137E-03  0.16332426953E-01  0.16498502347E-01  0.10206998785E+01  0.10204354969E+01 0.  0.
     999903    2    3    3    0    0  0.91999689538E-01 -0.15795283856E-01  0.91522783845E-01  0.13206143448E+00  0.18718136871E-01 0.  0.
         14    1    1    2    0    0  0.83053995137E-03 -0.16332426953E-01 -0.16498502347E-01  0.23230121534E-01  0.00000000000E+00 0. -1.
     999901    1    3    3    0    0 -0.92830229490E-01  0.32127710809E-01 -0.75024281499E-01  0.88863844398E+00  0.88000000000E+00 0. -1.
        -11    1    4    4    0    0  0.55756924984E-01 -0.69290614217E-02  0.42491956895E-01  0.70446249706E-01  0.51100000000E-03 0.  1.
         11    1    4    4    0    0  0.36242764554E-01 -0.88662224347E-02  0.49030826951E-01  0.61615184778E-01  0.51100000000E-03 0. -1.
</event>
<event>
 8    1  0.1088270E+005  0.1043930E+01  0.7957747E-01            NaN
         13   -1    0    0    0    0  0.00000000000E+00  0.00000000000E+00  0.74505805969E-08  0.10566000000E+00  0.10566000000E+00 0.  1.
     999900   -1    0    0    0    0 -0.00000000000E+00 -0.00000000000E+00 -0.74505805969E-08  0.93827000000E+00  0.93827000000E+00 0.  1.
     999902    2    1    2    0    0  0.10747707875E-01  0.21336020142E-01 -0.57390339390E-02  0.10193601915E+01  0.10190640434E+01 0.  0.
     999903    2    3    3    0    0 -0.73317113896E-01 -0.31644158680E-01  0.97691702311E-01  0.12774833041E+00  0.19980371687E-01 0.  0.
         14    1    1    2    0    0 -0.10747707875E-01 -0.21336020142E-01  0.57390339390E-02  0.24569808518E-01  0.00000000000E+00 0. -1.
     999901    1    3    3    0    0  0.84064821771E-01  0.52980178822E-01 -0.10343073625E+00  0.89161186107E+00  0.88000000000E+00 0.  1.
        -11    1    4    4    0    0 -0.48122421776E-01 -0.28450166188E-01  0.75985981560E-01  0.94336153984E-01  0.51100000000E-03 0.  1.
         11    1    4    4    0    0 -0.25194692120E-01 -0.31939924920E-02  0.21705720751E-01  0.33412176424E-01  0.51100000000E-03 0. -1.
</event>
<event>
 8    1  0.1088270E+005  0.1043930E+01  0.7957747E-01            NaN
         13   -1    0    0    0    0  0.00000000000E+00  0.00000000000E+00  0.74505805969E-08  0.10566000000E+00  0.10566000000E+00 0. -1.
     999900   -1    0    0    0    0 -0.00000000000E+00 -0.00000000000E+00 -0.74505805969E-08  0.93827000000E+00  0.93827000000E+00 0. -1.
     999902    2    1    2    0    0 -0.14748251392E-02 -0.13912202881E-01  0.19991339230E-01  0.10195296282E+01  0.10192375997E+01 0.  0.
     999903    2    3    3    0    0 -0.48142194865E-01 -0.93630391383E-01 -0.72961260880E-01  0.12982573432E+00  0.21143665380E-01 0.  0.
         14    1    1    2    0    0  0.14748251392E-02  0.13912202881E-01 -0.19991339230E-01  0.24400371768E-01  0.00000000000E+00 0.  1.
     999901    1    3    3    0    0  0.46667369725E-01  0.79718188502E-01  0.92952600110E-01  0.88970389391E+00  0.88000000000E+00 0.  1.
        -11    1    4    4    0    0 -0.19895552164E-01 -0.26483086005E-01 -0.32897999039E-01  0.46687539044E-01  0.51100000000E-03 0. -1.
         11    1    4    4    0    0 -0.28246642701E-01 -0.67147305378E-01 -0.40063261841E-01  0.83138195275E-01  0.51100000000E-03 0.  1.
</event>
<event>
 8    1  0.1088270E+005  0.1043930E+01  0.7957747E-01            NaN
         13   -1    0    0    0    0  0.00000000000E+00  0.00000000000E+00  0.74505805969E-08  0.10566000000E+00  0.10566000000E+00 0. -1.
     999900   -1    0    0    0    0 -0.00000000000E+00 -0.00000000000E+00 -0.74505805969E-08  0.93827000000E+00  0.93827000000E+00 0.  1.
     999902    2    1    2    0    0 -0.10322325923E-01 -0.82359360276E-02  0.19775843209E-01  0.10201504914E+01  0.10198733059E+01 0.  0.
     999903    2    3    3    0    0 -0.80460470420E-01 -0.10286849674E+00 -0.74370929103E-03  0.13206506032E+00  0.19616628962E-01 0.  0.
         14    1    1    2    0    0  0.10322325923E-01  0.82359360276E-02 -0.19775843209E-01  0.23779508602E-01  0.00000000000E+00 0.  1.
     999901    1    3    3    0    0  0.70138144496E-01  0.94632560712E-01  0.20519552500E-01  0.88808543108E+00  0.88000000000E+00 0. -1.
        -11    1    4    4    0    0 -0.15245791840E-01 -0.92183838133E-02  0.18148973248E-02  0.17915572619E-01  0.51100000000E-03 0.  1.
         11    1    4    4    0    0 -0.65214678580E-01 -0.93650112926E-01 -0.25586066158E-02  0.11414948770E+00  0.51100000000E-03 0. -1.
</event>
<event>
 8    1  0.1088270E+005  0.1043930E+01  0.7957747E-01            NaN
         13   -1    0    0    0    0  0.00000000000E+00  0.00000000000E+00  0.74505805969E-08  0.10566000000E+00  0.10566000000E+00 0.  1.
     999900   -1    0    0    0    0 -0.00000000000E+00 -0.00000000000E+00 -0.74505805969E-08  0.93827000000E+00  0.93827000000E+00 0.  1.
     999902    2    1    2    0    0 -0.17675885385E-01 -0.43238538245E-02 -0.13086384599E-01  0.10215160290E+01  0.10212700971E+01 0.  0.
     999903    2    3    3    0    0  0.65351611649E-01 -0.10990447896E+00 -0.26039122280E-01  0.13123034049E+00  0.13911820039E-01 0.  0.
         14    1    1    2    0    0  0.17675885385E-01  0.43238538245E-02  0.13086384599E-01  0.22413971043E-01  0.00000000000E+00 0.  1.
     999901    1    3    3    0    0 -0.83027497034E-01  0.10558062513E+00  0.12952737681E-01  0.89028568846E+00  0.88000000000E+00 0. -1.
        -11    1    4    4    0    0  0.64107724739E-02 -0.66281402975E-02 -0.48943558881E-02  0.10452085346E-01  0.51100000000E-03 0.  1.
         11    1    4    4    0    0  0.58940839175E-01 -0.10327633866E+00 -0.21144766391E-01  0.12077825515E+00  0.51100000000E-03 0. -1.
</event>
<event>
 8    1  0.1088270E+005  0.1043930E+01  0.7957747E-01            NaN
         13   -1    0    0    0    0  0.00000000000E+00  0.00000000000E+00  0.74505805969E-08  0.10566000000E+00  0.10566000000E+00 0.  1.
     999900   -1    0    0    0    0 -0.00000000000E+00 -0.00000000000E+00 -0.74505805969E-08  0.93827000000E+00  0.93827000000E+00 0.  1.
     999902    2    1    2    0    0  0.11853896855E-01 -0.20415302824E-01  0.99194487194E-03  0.10203019782E+01  0.10200283542E+01 0.  0.
     999903    2    3    3    0    0  0.10448061784E+00  0.22168770330E-01  0.73938411399E-01  0.13141824018E+00  0.19905056881E-01 0.  0.
         14    1    1    2    0    0 -0.11853896855E-01  0.20415302824E-01 -0.99194487194E-03  0.23628021811E-01  0.00000000000E+00 0.  1.
     999901    1    3    3    0    0 -0.92626720981E-01 -0.42584073154E-01 -0.72946466527E-01  0.88888373801E+00  0.88000000000E+00 0.  1.
        -11    1    4    4    0    0  0.32870080855E-01  0.12983439343E-01  0.33335619357E-01  0.48585353261E-01  0.51100000000E-03 0. -1.
         11    1    4    4    0    0  0.71610536981E-01  0.91853309866E-02  0.40602792042E-01  0.82832886915E-01  0.51100000000E-03 0.  1.
</event>
<event>
 8    1  0.1088270E+005  0.1043930E+01  0.7957747E-01            NaN
         13   -1    0    0    0    0  0.00000000000E+00  0.00000000000E+00  0.74505805969E-08  0.10566000000E+00  0.10566000000E+00 0.  1.
     999900   -1    0    0    0    0 -0.00000000000E+00 -0.00000000000E+00 -0.74505805969E-08  0.93827000000E+00  0.93827000000E+00 0.  1.
     999902    2    1    2    0    0 -0.17866256380E-01 -0.58716199749E-02  0.50155688553E-02  0.10244663167E+01  0.10242814062E+01 0.  0.
     999903    2    3    3    0    0  0.75653680993E-01 -0.10721627588E+00 -0.14265209546E-01  0.13351824501E+00  0.20120046857E-01 0.  0.
         14    1    1    2    0    0  0.17866256380E-01  0.58716199749E-02 -0.50155688553E-02  0.19463683339E-01  0.00000000000E+00 0.  1.
     999901    1    3    3    0    0 -0.93519937374E-01  0.10134465590E+00  0.19280778401E-01  0.89094807165E+00  0.88000000000E+00 0. -1.
        -11    1    4    4    0    0  0.40840348136E-01 -0.69428060660E-01 -0.14606649753E-02  0.80564162666E-01  0.51100000000E-03 0. -1.
         11    1    4    4    0    0  0.34813332858E-01 -0.37788215218E-01 -0.12804544570E-01  0.52954082342E-01  0.51100000000E-03 0.  1.
</event>
<event>
 8    1  0.1088270E+005  0.1043930E+01  0.7957747E-01            NaN
         13   -1    0    0    0    0  0.00000000000E+00  0.00000000000E+00  0.74505805969E-08  0.10566000000E+00  0.10566000000E+00 0.  1.
     999900   -1    0    0    0    0 -0.00000000000E+00 -0.00000000000E+00 -0.74505805969E-08  0.93827000000E+00  0.93827000000E+00 0.  1.
     999902    2    1    2    0    0 -0.28213894314E-02  0.24515800548E-02  0.22627252744E-01  0.10209961157E+01  0.10207385097E+01 0.  0.
     999903    2    3    3    0    0  0.93652156201E-01 -0.86892581674E-01  0.22466871213E-01  0.13122673547E+00  0.19865766764E-01 0.  0.
         14    1    1    2    0    0  0.28213894314E-02 -0.24515800548E-02 -0.22627252744E-01  0.22933884316E-01  0.00000000000E+00 0. -1.
     999901    1    3    3    0    0 -0.96473545632E-01  0.89344161729E-01  0.16038153120E-03  0.88976938021E+00  0.88000000000E+00 0.  1.
        -11    1    4    4    0    0  0.56954293063E-01 -0.41031081460E-01  0.17054491022E-01  0.72238894849E-01  0.51100000000E-03 0.  1.
         11    1    4    4    0    0  0.36697863138E-01 -0.45861500215E-01  0.54123801905E-02  0.58987840622E-01  0.51100000000E-03 0. -1.
</event>
<event>
 8    1  0.1088270E+005  0.1043930E+01  0.7957747E-01            NaN
         13   -1    0    0    0    0  0.00000000000E+00  0.00000000000E+00  0.74505805969E-08  0.10566000000E+00  0.10566000000E+00 0. -1.
     999900   -1    0    0    0    0 -0.00000000000E+00 -0.00000000000E+00 -0.74505805969E-08  0.93827000000E+00  0.93827000000E+00 0. -1.
     999902    2    1    2    0    0 -0.23137321331E-01 -0.22473311136E-02  0.29041718362E-02  0.10205030849E+01  0.10202341525E+01 0.  0.
     999903    2    3    3    0    0  0.57109323223E-01 -0.11156632464E+00 -0.22129201024E-01  0.12976359661E+00  0.25305530501E-01 0.  0.
         14    1    1    2    0    0  0.23137321331E-01  0.22473311136E-02 -0.29041718362E-02  0.23426915067E-01  0.00000000000E+00 0. -1.
     999901    1    3    3    0    0 -0.80246644554E-01  0.10931899352E+00  0.25033372860E-01  0.89073948833E+00  0.88000000000E+00 0.  1.
        -11    1    4    4    0    0  0.12915501372E-01 -0.52637116608E-01 -0.92112348466E-02  0.54978033695E-01  0.51100000000E-03 0.  1.
         11    1    4    4    0    0  0.44193821851E-01 -0.58929208029E-01 -0.12917966178E-01  0.74785562911E-01  0.51100000000E-03 0. -1.
</event>
<event>
 8    1  0.1088270E+005  0.1043930E+01  0.7957747E-01            NaN
         13   -1    0    0    0    0  0.00000000000E+00  0.00000000000E+00  0.74505805969E-08  0.10566000000E+00  0.10566000000E+00 0. -1.
     999900   -1    0    0    0    0 -0.00000000000E+00 -0.00000000000E+00 -0.74505805969E-08  0.93827000000E+00  0.93827000000E+00 0. -1.
     999902    2    1    2    0    0 -0.32676493961E-02  0.17928414894E-01 -0.14692617866E-01  0.10205210570E+01  0.10202525418E+01 0.  0.
     999903    2    3    3    0    0  0.77872796319E-01  0.42102423902E-01 -0.96918078894E-01  0.13264202182E+00  0.19078926388E-01 0.  0.
         14    1    1    2    0    0  0.32676493961E-02 -0.17928414894E-01  0.14692617866E-01  0.23408943012E-01  0.00000000000E+00 0. -1.
     999901    1    3    3    0    0 -0.81140445715E-01 -0.24174009008E-01  0.82225461028E-01  0.88787903516E+00  0.88000000000E+00 0.  1.
        -11    1    4    4    0    0  0.44411844070E-01  0.34386469341E-01 -0.62163678387E-01  0.83782009997E-01  0.51100000000E-03 0. -1.
         11    1    4    4    0    0  0.33460952249E-01  0.77159545609E-02 -0.34754400507E-01  0.48860011827E-01  0.51100000000E-03 0.  1.
</event>
<event>
 8    1  0.1088270E+005  0.1043930E+01  0.7957747E-01            NaN
         13   -1    0    0    0    0  0.00000000000E+00  0.00000000000E+00  0.74505805969E-08  0.10566000000E+00  0.10566000000E+00 0.  1.
     999900   -1    0    0    0    0 -0.00000000000E+00 -0.00000000000E+00 -0.74505805969E-08  0.93827000000E+00  0.93827000000E+00 0.  1.
     999902    2    1    2    0    0  0.14612275416E-01 -0.33463857058E-02 -0.18269781550E-01  0.10202973572E+01  0.10200236248E+01 0.  0.
     999903    2    3    3    0    0  0.30037678822E-02 -0.12619240583E+00 -0.30290190286E-01  0.13160708921E+00  0.21665280777E-01 0.  0.
         14    1    1    2    0    0 -0.14612275416E-01  0.33463857058E-02  0.18269781550E-01  0.23632642849E-01  0.00000000000E+00 0.  1.
     999901    1    3    3    0    0  0.11608507534E-01  0.12284602013E+00  0.12020408736E-01  0.88869026794E+00  0.88000000000E+00 0. -1.
        -11    1    4    4    0    0 -0.72953707956E-02 -0.90762499003E-01 -0.18992433601E-01  0.93016274466E-01  0.51100000000E-03 0. -1.
         11    1    4    4    0    0  0.10299138678E-01 -0.35429906830E-01 -0.11297756685E-01  0.38590814744E-01  0.51100000000E-03 0.  1.
</event>
<event>
 7    1  0.1088270E+005  0.1043930E+01  0.7957747E-01            NaN
         13   -1    0    0    0    0  0.00000000000E+00  0.00000000000E+00  0.74505805969E-08  0.10566000000E+00  0.10566000000E+00 0.  1.
     999900   -1    0    0    0    0 -0.00000000000E+00 -0.00000000000E+00 -0.74505805969E-08  0.93827000000E+00  0.93827000000E+00 0. -1.
     999902    2    1    2    0    0 -0.23546745562E-01 -0.16195002876E-01 -0.14843215439E-02  0.10153130373E+01  0.10149096675E+01 0.  0.
         14    1    1    2    0    0  0.23546745562E-01  0.16195002876E-01  0.14843215439E-02  0.28616962717E-01  0.00000000000E+00 0.  1.
     999901    1    3    3    0    0  0.87043015856E-01  0.14267391031E-01 -0.35290632392E-01  0.88511325478E+00  0.88000000000E+00 0. -1.
        -11    1    3    3    0    0 -0.45008416056E-01 -0.38991356714E-01  0.17805504771E-01  0.62156098136E-01  0.51100000000E-03 0. -1.
         11    1    3    3    0    0 -0.65581345361E-01  0.85289628071E-02  0.16000806077E-01  0.68043684366E-01  0.51100000000E-03 0.  1.
</event>
<event>
 8    1  0.1088270E+005  0.1043930E+01  0.7957747E-01            NaN
         13   -1    0    0    0    0  0.00000000000E+00  0.00000000000E+00  0.74505805969E-08  0.10566000000E+00  0.10566000000E+00 0. -1.
     999900   -1    0    0    0    0 -0.00000000000E+00 -0.00000000000E+00 -0.74505805969E-08  0.93827000000E+00  0.93827000000E+00 0.  1.
     999902    2    1    2    0    0 -0.10187964232E-01  0.78842317613E-02 -0.21387666875E-01  0.10189622604E+01  0.10186563209E+01 0.  0.
     999903    2    3    3    0    0 -0.17520633930E-01  0.12703713737E+00  0.86119589300E-02  0.13039534650E+00  0.21985760563E-01 0.  0.
         14    1    1    2    0    0  0.10187964232E-01 -0.78842317613E-02  0.21387666875E-01  0.24967739586E-01  0.00000000000E+00 0. -1.
     999901    1    3    3    0    0  0.73326696978E-02 -0.11915290561E+00 -0.29999625805E-01  0.88856691392E+00  0.88000000000E+00 0.  1.
        -11    1    4    4    0    0 -0.14320457456E-01  0.11840436588E+00  0.24285694932E-02  0.11929303597E+00  0.51100000000E-03 0. -1.
         11    1    4    4    0    0 -0.32001764741E-02  0.86327714902E-02  0.61833894367E-02  0.11102310525E-01  0.51100000000E-03 0.  1.
</event>
<event>
 8    1  0.1088270E+005  0.1043930E+01  0.7957747E-01            NaN
         13   -1    0    0    0    0  0.00000000000E+00  0.00000000000E+00  0.74505805969E-08  0.10566000000E+00  0.10566000000E+00 0.  1.
     999900   -1    0    0    0    0 -0.00000000000E+00 -0.00000000000E+00 -0.74505805969E-08  0.93827000000E+00  0.93827000000E+00 0. -1.
     999902    2    1    2    0    0  0.11782453036E-01 -0.20088147258E-01 -0.12947365544E-02  0.10206054163E+01  0.10203388553E+01 0.  0.
     999903    2    3    3    0    0  0.80941126942E-01 -0.59986527928E-02 -0.10220800993E+00  0.13203075726E+00  0.19954791467E-01 0.  0.
         14    1    1    2    0    0 -0.11782453036E-01  0.20088147258E-01  0.12947365544E-02  0.23324583653E-01  0.00000000000E+00 0.  1.
     999901    1    3    3    0    0 -0.69158673906E-01 -0.14089494466E-01  0.10091327338E+00  0.88857465909E+00  0.88000000000E+00 0.  1.
        -11    1    4    4    0    0  0.56879325291E-01  0.48329022108E-02 -0.66826819849E-01  0.87890270004E-01  0.51100000000E-03 0. -1.
         11    1    4    4    0    0  0.24061801651E-01 -0.10831555004E-01 -0.35381190082E-01  0.44140487255E-01  0.51100000000E-03 0.  1.
</event>
<event>
 8    1  0.1088270E+005  0.1043930E+01  0.7957747E-01            NaN
         13   -1    0    0    0    0  0.00000000000E+00  0.00000000000E+00  0.74505805969E-08  0.10566000000E+00  0.10566000000E+00 0. -1.
     999900   -1    0    0    0    0 -0.00000000000E+00 -0.00000000000E+00 -0.74505805969E-08  0.93827000000E+00  0.93827000000E+00 0.  1.
     999902    2    1    2    0    0 -0.49590178972E-02  0.15767684735E-01  0.16806078857E-01  0.10203576427E+01  0.10200853215E+01 0.  0.
     999903    2    3    3    0    0  0.88044358263E-01 -0.20939076599E-01  0.93033219191E-01  0.13142142949E+00  0.20643602015E-01 0.  0.
         14    1    1    2    0    0  0.49590178972E-02 -0.15767684735E-01 -0.16806078857E-01  0.23572357264E-01  0.00000000000E+00 0.  1.
     999901    1    3    3    0    0 -0.93003376160E-01  0.36706761335E-01 -0.76227140334E-01  0.88893621325E+00  0.88000000000E+00 0. -1.
        -11    1    4    4    0    0  0.77050166733E-01 -0.12947522847E-01  0.71253352602E-01  0.10574340603E+00  0.51100000000E-03 0. -1.
         11    1    4    4    0    0  0.10994191530E-01 -0.79915537522E-02  0.21779866589E-01  0.25678023452E-01  0.51100000000E-03 0.  1.
</event>
<event>
 8    1  0.1088270E+005  0.1043930E+01  0.7957747E-01            NaN
         13   -1    0    0    0    0  0.00000000000E+00  0.00000000000E+00  0.74505805969E-08  0.10566000000E+00  0.10566000000E+00 0.  1.
     999900   -1    0    0    0    0 -0.00000000000E+00 -0.00000000000E+00 -0.74505805969E-08  0.93827000000E+00  0.93827000000E+00 0. -1.
     999902    2    1    2    0    0  0.87718834745E-02  0.84987464717E-02  0.20082596746E-01  0.10204249937E+01  0.10201542444E+01 0.  0.
     999903    2    3    3    0    0 -0.54065630408E-01  0.44058074949E-01  0.11127351374E+00  0.13277145632E+00  0.19551429500E-01 0.  0.
         14    1    1    2    0    0 -0.87718834745E-02 -0.84987464717E-02 -0.20082596746E-01  0.23505006346E-01  0.00000000000E+00 0. -1.
     999901    1    3    3    0    0  0.62837513883E-01 -0.35559328477E-01 -0.91190916991E-01  0.88765353733E+00  0.88000000000E+00 0. -1.
        -11    1    4    4    0    0 -0.31853156245E-01  0.16786332016E-01  0.44003140559E-01  0.56858965919E-01  0.51100000000E-03 0.  1.
         11    1    4    4    0    0 -0.22212474163E-01  0.27271742932E-01  0.67270373178E-01  0.75912490405E-01  0.51100000000E-03 0. -1.
</event>
<event>
 8    1  0.1088270E+005  0.1043930E+01  0.7957747E-01            NaN
         13   -1    0    0    0    0  0.00000000000E+00  0.00000000000E+00  0.74505805969E-08  0.10566000000E+00  0.10566000000E+00 0. -1.
     999900   -1    0    0    0    0 -0.00000000000E+00 -0.00000000000E+00 -0.74505805969E-08  0.93827000000E+00  0.93827000000E+00 0.  1.
     999902    2    1    2    0    0 -0.17397470679E-01  0.12024579851E-01 -0.30749287999E-02  0.10225590456E+01  0.10223357002E+01 0.  0.
     999903    2    3    3    0    0  0.11327407499E+00  0.84067116477E-02  0.61341890689E-01  0.13057380552E+00  0.19621474661E-01 0.  0.
         14    1    1    2    0    0  0.17397470679E-01 -0.12024579851E-01  0.30749287999E-02  0.21370954441E-01  0.00000000000E+00 0.  1.
     999901    1    3    3    0    0 -0.13067154567E+00  0.36178682031E-02 -0.64416819489E-01  0.89198524004E+00  0.88000000000E+00 0.  1.
        -11    1    4    4    0    0  0.79583806705E-01  0.89355278203E-02  0.33295007578E-01  0.86730874536E-01  0.51100000000E-03 0. -1.
         11    1    4    4    0    0  0.33690268287E-01 -0.52881617263E-03  0.28046883111E-01  0.43842930982E-01  0.51100000000E-03 0.  1.
</event>
<event>
 8    1  0.1088270E+005  0.1043930E+01  0.7957747E-01            NaN
         13   -1    0    0    0    0  0.00000000000E+00  0.00000000000E+00  0.74505805969E-08  0.10566000000E+00  0.10566000000E+00 0.  1.
     999900   -1    0    0    0    0 -0.00000000000E+00 -0.00000000000E+00 -0.74505805969E-08  0.93827000000E+00  0.93827000000E+00 0.  1.
     999902    2    1    2    0    0  0.96143963692E-02 -0.13057166980E-01  0.18795726463E-01  0.10191065119E+01  0.10188041407E+01 0.  0.
     999903    2    3    3    0    0  0.24738400586E-01  0.12615867660E-01 -0.12264482166E+00  0.12731434507E+00  0.19900793970E-01 0.  0.
         14    1    1    2    0    0 -0.96143963692E-02  0.13057166980E-01 -0.18795726463E-01  0.24823488078E-01  0.00000000000E+00 0. -1.
     999901    1    3    3    0    0 -0.15124004217E-01 -0.25673034640E-01  0.14144054812E+00  0.89179216685E+00  0.88000000000E+00 0. -1.
        -11    1    4    4    0    0  0.97133039918E-02  0.14697083406E-01 -0.47785511292E-01  0.50932001193E-01  0.51100000000E-03 0.  1.
         11    1    4    4    0    0  0.15025096594E-01 -0.20812157462E-02 -0.74859310364E-01  0.76382343875E-01  0.51100000000E-03 0. -1.
</event>
<event>
 8    1  0.1088270E+005  0.1043930E+01  0.7957747E-01            NaN
         13   -1    0    0    0    0  0.00000000000E+00  0.00000000000E+00  0.74505805969E-08  0.10566000000E+00  0.10566000000E+00 0. -1.
     999900   -1    0    0    0    0 -0.00000000000E+00 -0.00000000000E+00 -0.74505805969E-08  0.93827000000E+00  0.93827000000E+00 0.  1.
     999902    2    1    2    0    0 -0.40421000029E-02  0.22837890731E-01 -0.31563875077E-02  0.10205233640E+01  0.10202549024E+01 0.  0.
     999903    2    3    3    0    0 -0.12071068919E+00 -0.96562847404E-02  0.45585789719E-01  0.13089241190E+00  0.19759679879E-01 0.  0.
         14    1    1    2    0    0  0.40421000029E-02 -0.22837890731E-01  0.31563875077E-02  0.23406635973E-01  0.00000000000E+00 0.  1.
     999901    1    3    3    0    0  0.11666858919E+00  0.32494175472E-01 -0.48742177227E-01  0.88963095213E+00  0.88000000000E+00 0. -1.
        -11    1    4    4    0    0 -0.79786979619E-01 -0.12183721417E-01  0.22301596592E-01  0.83737849959E-01  0.51100000000E-03 0.  1.
         11    1    4    4    0    0 -0.40923709571E-01  0.25274366762E-02  0.23284193127E-01  0.47154561940E-01  0.51100000000E-03 0. -1.
</event>
<event>
 8    1  0.1088270E+005  0.1043930E+01  0.7957747E-01            NaN
         13   -1    0    0    0    0  0.00000000000E+00  0.00000000000E+00  0.74505805969E-08  0.10566000000E+00  0.10566000000E+00 0. -1.
     999900   -1    0    0    0    0 -0.00000000000E+00 -0.00000000000E+00 -0.74505805969E-08  0.93827000000E+00  0.93827000000E+00 0.  1.
     999902    2    1    2    0    0  0.42345500760E-02 -0.83778382235E-02  0.23036847288E-01  0.10190539891E+01  0.10187503211E+01 0.  0.
     999903    2    3    3    0    0 -0.67665418287E-02  0.12364733501E+00  0.30747592101E-01  0.12910391968E+00  0.19696652315E-01 0.  0.
         14    1    1    2    0    0 -0.42345500760E-02  0.83778382235E-02 -0.23036847288E-01  0.24876010947E-01  0.00000000000E+00 0.  1.
     999901    1    3    3    0    0  0.11001091905E-01 -0.13202517324E+00 -0.77107448123E-02  0.88995006937E+00  0.88000000000E+00 0.  1.
        -11    1    4    4    0    0 -0.10955635096E-01  0.87120037612E-01  0.14895358139E-01  0.89062111523E-01  0.51100000000E-03 0.  1.
         11    1    4    4    0    0  0.41890932675E-02  0.36527297402E-01  0.15852233962E-01  0.40041808157E-01  0.51100000000E-03 0. -1.
</event>
<event>
 8    1  0.1088270E+005  0.1043930E+01  0.7957747E-01            NaN
         13   -1    0    0    0    0  0.00000000000E+00  0.00000000000E+00  0.74505805969E-08  0.10566000000E+00  0.10566000000E+00 0.  1.
     999900   -1    0    0    0    0 -0.00000000000E+00 -0.00000000000E+00 -0.74505805969E-08  0.93827000000E+00  0.93827000000E+00 0. -1.
     999902    2    1    2    0    0  0.43932360062E-02 -0.15801558252E-01  0.17706609541E-01  0.10197946776E+01  0.10195090341E+01 0.  0.
     999903    2    3    3    0    0 -0.63435589985E-01  0.84736366993E-01 -0.67154506601E-01  0.12743262491E+00  0.22913318560E-01 0.  0.
         14    1    1    2    0    0 -0.43932360062E-02  0.15801558252E-01 -0.17706609541E-01  0.24135322398E-01  0.00000000000E+00 0. -1.
     999901    1    3    3    0    0  0.67828825991E-01 -0.10053792524E+00  0.84861116142E-01  0.89236205269E+00  0.88000000000E+00 0.  1.
        -11    1    4    4    0    0 -0.13841131132E-01  0.13105122310E-01 -0.22620219324E-01  0.29584735676E-01  0.51100000000E-03 0.  1.
         11    1    4    4    0    0 -0.49594458852E-01  0.71631244683E-01 -0.44534287277E-01  0.97847889236E-01  0.51100000000E-03 0. -1.
</event>
<event>
 8    1  0.1088270E+005  0.1043930E+01  0.7957747E-01            NaN
         13   -1    0    0    0    0  0.00000000000E+00  0.00000000000E+00  0.74505805969E-08  0.10566000000E+00  0.10566000000E+00 0.  1.
     999900   -1    0    0    0    0 -0.00000000000E+00 -0.00000000000E+00 -0.74505805969E-08  0.93827000000E+00  0.93827000000E+00 0. -1.
     999902    2    1    2    0    0  0.60348695620E-03 -0.25711963653E-02 -0.23103099484E-01  0.10206764314E+01  0.10204115097E+01 0.  0.
     999903    2    3    3    0    0  0.10536958394E+00 -0.75014625865E-01  0.47818782879E-02  0.13106890133E+00  0.20645755557E-01 0.  0.
         14    1    1    2    0    0 -0.60348695620E-03  0.25711963653E-02  0.23103099484E-01  0.23253568608E-01  0.00000000000E+00 0.  1.
     999901    1    3    3    0    0 -0.10476609699E+00  0.72443429500E-01 -0.27884977772E-01  0.88960753006E+00  0.88000000000E+00 0.  1.
        -11    1    4    4    0    0  0.78517224968E-01 -0.45694240984E-01 -0.12294498830E-02  0.90855329749E-01  0.51100000000E-03 0.  1.
         11    1    4    4    0    0  0.26852358973E-01 -0.29320384881E-01  0.60113281710E-02  0.40213571582E-01  0.51100000000E-03 0. -1.
</event>
<event>
 8    1  0.1088270E+005  0.1043930E+01  0.7957747E-01            NaN
         13   -1    0    0    0    0  0.00000000000E+00  0.00000000000E+00  0.74505805969E-08  0.10566000000E+00  0.10566000000E+00 0. -1.
     999900   -1    0    0    0    0 -0.00000000000E+00 -0.00000000000E+00 -0.74505805969E-08  0.93827000000E+00  0.93827000000E+00 0.  1.
     999902    2    1    2    0    0 -0.19721856323E-01  0.43376910272E-02  0.12441712353E-01  0.10202115813E+01  0.10199358348E+01 0.  0.
     999903    2    3    3    0    0 -0.90473444004E-01 -0.90868819626E-01  0.25230636442E-01  0.13216111908E+00  0.19682223751E-01 0.  0.
         14    1    1    2    0    0  0.19721856323E-01 -0.43376910272E-02 -0.12441712353E-01  0.23718418720E-01  0.00000000000E+00 0.  1.
     999901    1    3    3    0    0  0.70751587681E-01  0.95206510654E-01 -0.12788924089E-01  0.88805046220E+00  0.88000000000E+00 0.  1.
        -11    1    4    4    0    0 -0.68313220067E-01 -0.78738482430E-01  0.23325009822E-01  0.10682116764E+00  0.51100000000E-03 0. -1.
         11    1    4    4    0    0 -0.22160223936E-01 -0.12130337196E-01  0.19056266200E-02  0.25339951444E-01  0.51100000000E-03 0.  1.
</event>
<event>
 8    1  0.1088270E+005  0.1043930E+01  0.7957747E-01            NaN
         13   -1    0    0    0    0  0.00000000000E+00  0.00000000000E+00  0.74505805969E-08  0.10566000000E+00  0.10566000000E+00 0. -1.
     999900   -1    0    0    0    0 -0.00000000000E+00 -0.00000000000E+00 -0.74505805969E-08  0.93827000000E+00  0.93827000000E+00 0.  1.
     999902    2    1    2    0    0 -0.18197847222E-01 -0.10359633380E-01  0.11842742922E-01  0.10198731048E+01  0.10195893368E+01 0.  0.
     999903    2    3    3    0    0 -0.41251339568E-01 -0.75066812599E-01 -0.96515636658E-01  0.13056999506E+00  0.19913716876E-01 0.  0.
         14    1    1    2    0    0  0.18197847222E-01  0.10359633380E-01 -0.11842742922E-01  0.24056895211E-01  0.00000000000E+00 0.  1.
     999901    1    3    3    0    0  0.23053492346E-01  0.64707179219E-01  0.10835837958E+00  0.88930310973E+00  0.88000000000E+00 0. -1.
        -11    1    4    4    0    0 -0.38403012275E-01 -0.52811030765E-01 -0.67919074524E-01  0.94218141181E-01  0.51100000000E-03 0.  1.
         11    1    4    4    0    0 -0.28483272927E-02 -0.22255781834E-01 -0.28596562134E-01  0.36351853877E-01  0.51100000000E-03 0. -1.
</event>
<event>
 8    1  0.1088270E+005  0.1043930E+01  0.7957747E-01            NaN
         13   -1    0    0    0    0  0.00000000000E+00  0.00000000000E+00  0.74505805969E-08  0.10566000000E+00  0.10566000000E+00 0.  1.
     999900   -1    0    0    0    0 -0.00000000000E+00 -0.00000000000E+00 -0.74505805969E-08  0.93827000000E+00  0.93827000000E+00 0. -1.
     999902    2    1    2    0    0  0.22648927023E-01 -0.28282632066E-02  0.69875887830E-02  0.10200595294E+01  0.10197801941E+01 0.  0.
     999903    2    3    3    0    0  0.11227265041E-02  0.12384881641E+00  0.35379551115E-01  0.13027496937E+00  0.19495260059E-01 0.  0.
         14    1    1    2    0    0 -0.22648927023E-01  0.28282632066E-02 -0.69875887830E-02  0.23870470566E-01  0.00000000000E+00 0. -1.
     999901    1    3    3    0    0  0.21526200519E-01 -0.12667707962E+00 -0.28391962332E-01  0.88978456007E+00  0.88000000000E+00 0. -1.
        -11    1    4    4    0    0  0.62086343842E-02  0.10948365702E+00  0.34670701655E-01  0.11501102977E+00  0.51100000000E-03 0. -1.
         11    1    4    4    0    0 -0.50859078801E-02  0.14365159393E-01  0.70884946058E-03  0.15263939593E-01  0.51100000000E-03 0.  1.
</event>
<event>
 8    1  0.1088270E+005  0.1043930E+01  0.7957747E-01            NaN
         13   -1    0    0    0    0  0.00000000000E+00  0.00000000000E+00  0.74505805969E-08  0.10566000000E+00  0.10566000000E+00 0. -1.
     999900   -1    0    0    0    0 -0.00000000000E+00 -0.00000000000E+00 -0.74505805969E-08  0.93827000000E+00  0.93827000000E+00 0.  1.
     999902    2    1    2    0    0 -0.11871731677E-01  0.70789667027E-02  0.19192077307E-01  0.10202786657E+01  0.10200044951E+01 0.  0.
     999903    2    3    3    0    0 -0.17898685784E-01 -0.10397861224E+00  0.75863341248E-01  0.13146949486E+00  0.19926534515E-01 0.  0.
         14    1    1    2    0    0  0.11871731677E-01 -0.70789667027E-02 -0.19192077307E-01  0.23651334295E-01  0.00000000000E+00 0.  1.
     999901    1    3    3    0    0  0.60269541071E-02  0.11105757894E+00 -0.56671263941E-01  0.88880917084E+00  0.88000000000E+00 0.  1.
        -11    1    4    4    0    0 -0.20954844180E-01 -0.65563210461E-01  0.48828519467E-01  0.84392686264E-01  0.51100000000E-03 0. -1.
         11    1    4    4    0    0  0.30561583965E-02 -0.38415401781E-01  0.27034821781E-01  0.47076808598E-01  0.51100000000E-03 0.  1.
</event>
<event>
 8    1  0.1088270E+005  0.1043930E+01  0.7957747E-01            NaN
         13   -1    0    0    0    0  0.00000000000E+00  0.00000000000E+00  0.74505805969E-08  0.10566000000E+00  0.10566000000E+00 0. -1.
     999900   -1    0    0    0    0 -0.00000000000E+00 -0.00000000000E+00 -0.74505805969E-08  0.93827000000E+00  0.93827000000E+00 0. -1.
     999902    2    1    2    0    0  0.22133338034E-01  0.69328088164E-02  0.20310431024E-04  0.10207362745E+01  0.10204727302E+01 0.  0.
     999903    2    3    3    0    0  0.54520503616E-01  0.15105092556E-01  0.11835914655E+00  0.13218701032E+00  0.16244044789E-01 0.  0.
         14    1    1    2    0    0 -0.22133338034E-01 -0.69328088164E-02 -0.20310431024E-04  0.23193725512E-01  0.00000000000E+00 0. -1.
     999901    1    3    3    0    0 -0.32387165583E-01 -0.81722837395E-02 -0.11833883612E+00  0.88854926417E+00  0.88000000000E+00 0. -1.
        -11    1    4    4    0    0  0.43680853447E-01  0.48930651671E-02  0.88862243592E-01  0.99139893594E-01  0.51100000000E-03 0.  1.
         11    1    4    4    0    0  0.10839650170E-01  0.10212027389E-01  0.29496902954E-01  0.33047116729E-01  0.51100000000E-03 0. -1.
</event>
<event>
 8    1  0.1088270E+005  0.1043930E+01  0.7957747E-01            NaN
         13   -1    0    0    0    0  0.00000000000E+00  0.00000000000E+00  0.74505805969E-08  0.10566000000E+00  0.10566000000E+00 0.  1.
     999900   -1    0    0    0    0 -0.00000000000E+00 -0.00000000000E+00 -0.74505805969E-08  0.93827000000E+00  0.93827000000E+00 0. -1.
     999902    2    1    2    0    0  0.73813631367E-02  0.85249476854E-02 -0.21610065643E-01  0.10195547217E+01  0.10192633008E+01 0.  0.
     999903    2    3    3    0    0  0.13194957870E-01  0.41125685777E-01  0.11693282934E+00  0.12810043810E+00  0.29512822967E-01 0.  0.
         14    1    1    2    0    0 -0.73813631367E-02 -0.85249476854E-02  0.21610065643E-01  0.24375278294E-01  0.00000000000E+00 0.  1.
     999901    1    3    3    0    0 -0.58135947336E-02 -0.32600738091E-01 -0.13854289499E+00  0.89145428361E+00  0.88000000000E+00 0. -1.
        -11    1    4    4    0    0  0.91692127002E-02  0.78206660963E-03  0.40964289910E-01  0.41988334792E-01  0.51100000000E-03 0.  1.
         11    1    4    4    0    0  0.40257451702E-02  0.40343619167E-01  0.75968539433E-01  0.86112103309E-01  0.51100000000E-03 0. -1.
</event>
<event>
 8    1  0.1088270E+005  0.1043930E+01  0.7957747E-01            NaN
         13   -1    0    0    0    0  0.00000000000E+00  0.00000000000E+00  0.74505805969E-08  0.10566000000E+00  0.10566000000E+00 0.  1.
     999900   -1    0    0    0    0 -0.00000000000E+00 -0.00000000000E+00 -0.74505805969E-08  0.93827000000E+00  0.93827000000E+00 0.  1.
     999902    2    1    2    0    0 -0.23398090295E-01  0.42419031358E-02  0.44609368313E-02  0.10197356964E+01  0.10194486383E+01 0.  0.
     999903    2    3    3    0    0  0.32135448370E-01  0.97780212381E-01 -0.74764617351E-01  0.12950534546E+00  0.24253443460E-01 0.  0.
         14    1    1    2    0    0  0.23398090295E-01 -0.42419031358E-02 -0.44609368313E-02  0.24194303649E-01  0.00000000000E+00 0. -1.
     999901    1    3    3    0    0 -0.55533538664E-01 -0.93538309245E-01  0.79225554182E-01  0.89023035089E+00  0.88000000000E+00 0. -1.
        -11    1    4    4    0    0  0.10837744447E-01  0.40882175810E-01 -0.16729667354E-01  0.45485732867E-01  0.51100000000E-03 0. -1.
         11    1    4    4    0    0  0.21297703922E-01  0.56898036571E-01 -0.58034949997E-01  0.84019612592E-01  0.51100000000E-03 0.  1.
</event>
<event>
 8    1  0.1088270E+005  0.1043930E+01  0.7957747E-01            NaN
         13   -1    0    0    0    0  0.00000000000E+00  0.00000000000E+00  0.74505805969E-08  0.10566000000E+00  0.10566000000E+00 0.  1.
     999900   -1    0    0    0    0 -0.00000000000E+00 -0.00000000000E+00 -0.74505805969E-08  0.93827000000E+00  0.93827000000E+00 0. -1.
     999902    2    1    2    0    0 -0.21434383799E-01 -0.27900770946E-02 -0.10051786442E-01  0.10200918845E+01  0.10198133148E+01 0.  0.
     999903    2    3    3    0    0 -0.12644578869E+00 -0.15002018081E-01  0.28790261534E-01  0.13291364349E+00  0.24971172263E-01 0.  0.
         14    1    1    2    0    0  0.21434383799E-01  0.27900770946E-02  0.10051786442E-01  0.23838115482E-01  0.00000000000E+00 0.  1.
     999901    1    3    3    0    0  0.10501140489E+00  0.12211940986E-01 -0.38842047977E-01  0.88717824103E+00  0.88000000000E+00 0. -1.
        -11    1    4    4    0    0 -0.95798130570E-01 -0.71025734860E-02  0.11232948217E-01  0.96716951035E-01  0.51100000000E-03 0. -1.
         11    1    4    4    0    0 -0.30647658116E-01 -0.78994445946E-02  0.17557313318E-01  0.36196692457E-01  0.51100000000E-03 0.  1.
</event>
<event>
 8    1  0.1088270E+005  0.1043930E+01  0.7957747E-01            NaN
         13   -1    0    0    0    0  0.00000000000E+00  0.00000000000E+00  0.74505805969E-08  0.10566000000E+00  0.10566000000E+00 0. -1.
     999900   -1    0    0    0    0 -0.00000000000E+00 -0.00000000000E+00 -0.74505805969E-08  0.93827000000E+00  0.93827000000E+00 0. -1.
     999902    2    1    2    0    0 -0.17607761227E-01  0.91073727659E-02  0.11625414694E-01  0.10209489695E+01  0.10206902912E+01 0.  0.
     999903    2    3    3    0    0 -0.42910567039E-01  0.60166488711E-01  0.10968038794E+00  0.13367108574E+00  0.19412587048E-01 0.  0.
         14    1    1    2    0    0  0.17607761227E-01 -0.91073727659E-02 -0.11625414694E-01  0.22981030459E-01  0.00000000000E+00 0. -1.
     999901    1    3    3    0    0  0.25302805812E-01 -0.51059115945E-01 -0.98054973251E-01  0.88727788380E+00  0.88000000000E+00 0. -1.
        -11    1    4    4    0    0 -0.19929462304E-01  0.14161043003E-01  0.42935944999E-01  0.49411285155E-01  0.51100000000E-03 0.  1.
         11    1    4    4    0    0 -0.22981104735E-01  0.46005445708E-01  0.66744442945E-01  0.84259800586E-01  0.51100000000E-03 0. -1.
</event>
<event>
 8    1  0.1088270E+005  0.1043930E+01  0.7957747E-01            NaN
         13   -1    0    0    0    0  0.00000000000E+00  0.00000000000E+00  0.74505805969E-08  0.10566000000E+00  0.10566000000E+00 0. -1.
     999900   -1    0    0    0    0 -0.00000000000E+00 -0.00000000000E+00 -0.74505805969E-08  0.93827000000E+00  0.93827000000E+00 0. -1.
     999902    2    1    2    0    0  0.17444173973E-01  0.16281332671E-01  0.13410479237E-02  0.10200306400E+01  0.10197506201E+01 0.  0.
     999903    2    3    3    0    0 -0.15190338776E-01  0.96691767458E-01 -0.85524902167E-01  0.13150571478E+00  0.19979986048E-01 0.  0.
         14    1    1    2    0    0 -0.17444173973E-01 -0.16281332671E-01 -0.13410479237E-02  0.23899360006E-01  0.00000000000E+00 0.  1.
     999901    1    3    3    0    0  0.32634512749E-01 -0.80410434786E-01  0.86865950090E-01  0.88852492522E+00  0.88000000000E+00 0.  1.
        -11    1    4    4    0    0 -0.63235028635E-02  0.68441484930E-01 -0.48640823744E-01  0.84204598469E-01  0.51100000000E-03 0. -1.
         11    1    4    4    0    0 -0.88668359126E-02  0.28250282528E-01 -0.36884078422E-01  0.47301116309E-01  0.51100000000E-03 0.  1.
</event>
<event>
 8    1  0.1088270E+005  0.1043930E+01  0.7957747E-01            NaN
         13   -1    0    0    0    0  0.00000000000E+00  0.00000000000E+00  0.74505805969E-08  0.10566000000E+00  0.10566000000E+00 0.  1.
     999900   -1    0    0    0    0 -0.00000000000E+00 -0.00000000000E+00 -0.74505805969E-08  0.93827000000E+00  0.93827000000E+00 0. -1.
     999902    2    1    2    0    0 -0.17994341142E-01  0.12732575858E-02  0.15973102725E-01  0.10198352390E+01  0.10195505663E+01 0.  0.
     999903    2    3    3    0    0  0.95033164503E-02 -0.12075597521E+00 -0.39439954113E-01  0.12926359015E+00  0.21937346817E-01 0.  0.
         14    1    1    2    0    0  0.17994341142E-01 -0.12732575858E-02 -0.15973102725E-01  0.24094761021E-01  0.00000000000E+00 0. -1.
     999901    1    3    3    0    0 -0.27497657592E-01  0.12202923280E+00  0.55413056839E-01  0.89057164883E+00  0.88000000000E+00 0.  1.
        -11    1    4    4    0    0  0.14639856168E-01 -0.74179359743E-01 -0.30632504417E-01  0.81581335172E-01  0.51100000000E-03 0.  1.
         11    1    4    4    0    0 -0.51365397175E-02 -0.46576615467E-01 -0.88074496960E-02  0.47682254978E-01  0.51100000000E-03 0. -1.
</event>
<event>
 8    1  0.1088270E+005  0.1043930E+01  0.7957747E-01            NaN
         13   -1    0    0    0    0  0.00000000000E+00  0.00000000000E+00  0.74505805969E-08  0.10566000000E+00  0.10566000000E+00 0. -1.
     999900   -1    0    0    0    0 -0.00000000000E+00 -0.00000000000E+00 -0.74505805969E-08  0.93827000000E+00  0.93827000000E+00 0.  1.
     999902    2    1    2    0    0  0.18011393410E-01 -0.13385601669E-01  0.80149347768E-02  0.10201009462E+01  0.10198225908E+01 0.  0.
     999903    2    3    3    0    0 -0.18142384638E-02 -0.11795174726E+00  0.56520926269E-01  0.13236226525E+00  0.20229879187E-01 0.  0.
         14    1    1    2    0    0 -0.18011393410E-01  0.13385601669E-01 -0.80149347768E-02  0.23829053780E-01  0.00000000000E+00 0.  1.
     999901    1    3    3    0    0  0.19825631874E-01  0.10456614559E+00 -0.48505991492E-01  0.88773868097E+00  0.88000000000E+00 0. -1.
        -11    1    4    4    0    0  0.16433868937E-02 -0.73181746149E-01  0.45266092742E-01  0.86067118942E-01  0.51100000000E-03 0. -1.
         11    1    4    4    0    0 -0.34576253575E-02 -0.44770001112E-01  0.11254833527E-01  0.46295146305E-01  0.51100000000E-03 0.  1.
</event>
<event>
 8    1  0.1088270E+005  0.1043930E+01  0.7957747E-01            NaN
         13   -1    0    0    0    0  0.00000000000E+00  0.00000000000E+00  0.74505805969E-08  0.10566000000E+00  0.10566000000E+00 0. -1.
     999900   -1    0    0    0    0 -0.00000000000E+00 -0.00000000000E+00 -0.74505805969E-08  0.93827000000E+00  0.93827000000E+00 0. -1.
     999902    2    1    2    0    0  0.11893719207E-01  0.24704122976E-02  0.22817652021E-01  0.10180802662E+01  0.10177520423E+01 0.  0.
     999903    2    3    3    0    0  0.23318066346E-01 -0.12296103905E+00 -0.18774669424E-01  0.12814010760E+00  0.20105959832E-01 0.  0.
         14    1    1    2    0    0 -0.11893719207E-01 -0.24704122976E-02 -0.22817652021E-01  0.25849733795E-01  0.00000000000E+00 0.  1.
     999901    1    3    3    0    0 -0.11424347139E-01  0.12543145135E+00  0.41592321445E-01  0.88994015861E+00  0.88000000000E+00 0. -1.
        -11    1    4    4    0    0  0.54334465798E-02 -0.23833124235E-01 -0.11856627209E-01  0.27173164746E-01  0.51100000000E-03 0. -1.
         11    1    4    4    0    0  0.17884619766E-01 -0.99127914817E-01 -0.69180422154E-02  0.10096694285E+00  0.51100000000E-03 0.  1.
</event>
<event>
 8    1  0.1088270E+005  0.1043930E+01  0.7957747E-01            NaN
         13   -1    0    0    0    0  0.00000000000E+00  0.00000000000E+00  0.74505805969E-08  0.10566000000E+00  0.10566000000E+00 0. -1.
     999900   -1    0    0    0    0 -0.00000000000E+00 -0.00000000000E+00 -0.74505805969E-08  0.93827000000E+00  0.93827000000E+00 0. -1.
     999902    2    1    2    0    0  0.19601541885E-01  0.14988524205E-01  0.29223321341E-02  0.10190821364E+01  0.10187791637E+01 0.  0.
     999903    2    3    3    0    0 -0.81736535505E-01  0.41428337222E-01 -0.88061906154E-01  0.12821368297E+00  0.16931651530E-01 0.  0.
         14    1    1    2    0    0 -0.19601541885E-01 -0.14988524205E-01 -0.29223321341E-02  0.24847863635E-01  0.00000000000E+00 0.  1.
     999901    1    3    3    0    0  0.10133807739E+00 -0.26439813017E-01  0.90984238288E-01  0.89086845340E+00  0.88000000000E+00 0.  1.
        -11    1    4    4    0    0 -0.41480679128E-01  0.29885035435E-01 -0.52336294144E-01  0.73164956704E-01  0.51100000000E-03 0.  1.
         11    1    4    4    0    0 -0.40255856376E-01  0.11543301787E-01 -0.35725612010E-01  0.55048726264E-01  0.51100000000E-03 0. -1.
</event>
<event>
 8    1  0.1088270E+005  0.1043930E+01  0.7957747E-01            NaN
         13   -1    0    0    0    0  0.00000000000E+00  0.00000000000E+00  0.74505805969E-08  0.10566000000E+00  0.10566000000E+00 0. -1.
     999900   -1    0    0    0    0 -0.00000000000E+00 -0.00000000000E+00 -0.74505805969E-08  0.93827000000E+00  0.93827000000E+00 0. -1.
     999902    2    1    2    0    0 -0.13198739469E-01 -0.18774372637E-01  0.16249120417E-02  0.10209229548E+01  0.10206636838E+01 0.  0.
     999903    2    3    3    0    0 -0.11726079332E+00 -0.46461843524E-01  0.38490030695E-01  0.13359294621E+00  0.21372792530E-01 0.  0.
         14    1    1    2    0    0  0.13198739469E-01  0.18774372637E-01 -0.16249120417E-02  0.23007045239E-01  0.00000000000E+00 0. -1.
     999901    1    3    3    0    0  0.10406205385E+00  0.27687470887E-01 -0.36865118653E-01  0.88733000855E+00  0.88000000000E+00 0. -1.
        -11    1    4    4    0    0 -0.36827438362E-01 -0.25304215355E-01  0.15582774803E-01  0.47324914396E-01  0.51100000000E-03 0.  1.
         11    1    4    4    0    0 -0.80433354961E-01 -0.21157628169E-01  0.22907255892E-01  0.86268031817E-01  0.51100000000E-03 0. -1.
</event>
<event>
 8    1  0.1088270E+005  0.1043930E+01  0.7957747E-01            NaN
         13   -1    0    0    0    0  0.00000000000E+00  0.00000000000E+00  0.74505805969E-08  0.10566000000E+00  0.10566000000E+00 0.  1.
     999900   -1    0    0    0    0 -0.00000000000E+00 -0.00000000000E+00 -0.74505805969E-08  0.93827000000E+00  0.93827000000E+00 0.  1.
     999902    2    1    2    0    0 -0.22055637101E-01  0.68201433044E-02 -0.56599191696E-02  0.10201602678E+01  0.10198833129E+01 0.  0.
     999903    2    3    3    0    0 -0.44908219818E-02 -0.11172487487E+00  0.62124905050E-01  0.12945480222E+00  0.19910470709E-01 0.  0.
         14    1    1    2    0    0  0.22055637101E-01 -0.68201433044E-02  0.56599191696E-02  0.23769732174E-01  0.00000000000E+00 0. -1.
     999901    1    3    3    0    0 -0.17564815119E-01  0.11854501817E+00 -0.67784824220E-01  0.89070546560E+00  0.88000000000E+00 0.  1.
        -11    1    4    4    0    0 -0.81480281124E-02 -0.40868332198E-01  0.15069091989E-01  0.44316470901E-01  0.51100000000E-03 0. -1.
         11    1    4    4    0    0  0.36572061306E-02 -0.70856542672E-01  0.47055813061E-01  0.85138331320E-01  0.51100000000E-03 0.  1.
</event>
<event>
 8    1  0.1088270E+005  0.1043930E+01  0.7957747E-01            NaN
         13   -1    0    0    0    0  0.00000000000E+00  0.00000000000E+00  0.74505805969E-08  0.10566000000E+00  0.10566000000E+00 0. -1.
     999900   -1    0    0    0    0 -0.00000000000E+00 -0.00000000000E+00 -0.74505805969E-08  0.93827000000E+00  0.93827000000E+00 0.  1.
     999902    2    1    2    0    0  0.14519681532E-01 -0.10544850878E-01  0.22918148680E-01  0.10148223280E+01  0.10144048012E+01 0.  0.
     999903    2    3    3    0    0  0.29201319552E-01  0.68719237141E-01 -0.95956866976E-01  0.12317799558E+00  0.19749624257E-01 0.  0.
         14    1    1    2    0    0 -0.14519681532E-01  0.10544850878E-01 -0.22918148680E-01  0.29107672026E-01  0.00000000000E+00 0. -1.
     999901    1    3    3    0    0 -0.14681638020E-01 -0.79264088019E-01  0.11887501566E+00  0.89164433239E+00  0.88000000000E+00 0. -1.
        -11    1    4    4    0    0  0.27584816436E-01  0.61755169295E-01 -0.74829370519E-01  0.10086782860E+00  0.51100000000E-03 0.  1.
         11    1    4    4    0    0  0.16165031166E-02  0.69640678467E-02 -0.21127496457E-01  0.22310166984E-01  0.51100000000E-03 0. -1.
</event>
<event>
 8    1  0.1088270E+005  0.1043930E+01  0.7957747E-01            NaN
         13   -1    0    0    0    0  0.00000000000E+00  0.00000000000E+00  0.74505805969E-08  0.10566000000E+00  0.10566000000E+00 0.  1.
     999900   -1    0    0    0    0 -0.00000000000E+00 -0.00000000000E+00 -0.74505805969E-08  0.93827000000E+00  0.93827000000E+00 0.  1.
     999902    2    1    2    0    0  0.17662567292E-01 -0.95984740420E-02 -0.12467779821E-01  0.10202753489E+01  0.10200011005E+01 0.  0.
     999903    2    3    3    0    0  0.74244489929E-01  0.92503769007E-01  0.49816399856E-01  0.13038451226E+00  0.21195654703E-01 0.  0.
         14    1    1    2    0    0 -0.17662567292E-01  0.95984740420E-02  0.12467779821E-01  0.23654651148E-01  0.00000000000E+00 0.  1.
     999901    1    3    3    0    0 -0.56581922636E-01 -0.10210224305E+00 -0.62284179677E-01  0.88989083659E+00  0.88000000000E+00 0.  1.
        -11    1    4    4    0    0  0.27308501433E-01  0.47128556122E-01  0.15520493124E-01  0.56639225634E-01  0.51100000000E-03 0. -1.
         11    1    4    4    0    0  0.46935988496E-01  0.45375212886E-01  0.34295906732E-01  0.73745286630E-01  0.51100000000E-03 0.  1.
</event>
<event>
 8    1  0.1088270E+005  0.1043930E+01  0.7957747E-01            NaN
         13   -1    0    0    0    0  0.00000000000E+00  0.00000000000E+00  0.74505805969E-08  0.10566000000E+00  0.10566000000E+00 0.  1.
     999900   -1    0    0    0    0 -0.00000000000E+00 -0.00000000000E+00 -0.74505805969E-08  0.93827000000E+00  0.93827000000E+00 0.  1.
     999902    2    1    2    0    0 -0.45444410326E-02 -0.19595679329E-01  0.12727236346E-01  0.10201261109E+01  0.10198483500E+01 0.  0.
     999903    2    3    3    0    0  0.89308359114E-01 -0.94976306641E-01  0.38109176211E-02  0.13188622896E+00  0.19569682331E-01 0.  0.
         14    1    1    2    0    0  0.45444410326E-02  0.19595679329E-01 -0.12727236346E-01  0.23803889130E-01  0.00000000000E+00 0. -1.
     999901    1    3    3    0    0 -0.93852800147E-01  0.75380627311E-01  0.89163187251E-02  0.88823988191E+00  0.88000000000E+00 0.  1.
        -11    1    4    4    0    0  0.18284832194E-01 -0.17805171861E-01  0.84883456547E-02  0.26901159201E-01  0.51100000000E-03 0.  1.
         11    1    4    4    0    0  0.71023526920E-01 -0.77171134779E-01 -0.46774280336E-02  0.10498506976E+00  0.51100000000E-03 0. -1.
</event>
<event>
 8    1  0.1088270E+005  0.1043930E+01  0.7957747E-01            NaN
         13   -1    0    0    0    0  0.00000000000E+00  0.00000000000E+00  0.74505805969E-08  0.10566000000E+00  0.10566000000E+00 0. -1.
     999900   -1    0    0    0    0 -0.00000000000E+00 -0.00000000000E+00 -0.74505805969E-08  0.93827000000E+00  0.93827000000E+00 0. -1.
     999902    2    1    2    0    0  0.36999180069E-02  0.17099419238E-01 -0.20175133975E-01  0.10172257763E+01  0.10168751961E+01 0.  0.
     999903    2    3    3    0    0 -0.20252405808E-01 -0.47676501423E-01  0.11170160273E+00  0.12472305509E+00  0.19884257344E-01 0.  0.
         14    1    1    2    0    0 -0.36999180069E-02 -0.17099419238E-01  0.20175133975E-01  0.26704223681E-01  0.00000000000E+00 0.  1.
     999901    1    3    3    0    0  0.23952323815E-01  0.64775920661E-01 -0.13187673670E+00  0.89250272123E+00  0.88000000000E+00 0. -1.
        -11    1    4    4    0    0 -0.22377286506E-01 -0.28789214305E-01  0.72621401694E-01  0.81263096893E-01  0.51100000000E-03 0. -1.
         11    1    4    4    0    0  0.21248806976E-02 -0.18887287117E-01  0.39080201036E-01  0.43459958198E-01  0.51100000000E-03 0.  1.
</event>
<event>
 8    1  0.1088270E+005  0.1043930E+01  0.7957747E-01            NaN
         13   -1    0    0    0    0  0.00000000000E+00  0.00000000000E+00  0.74505805969E-08  0.10566000000E+00  0.10566000000E+00 0. -1.
     999900   -1    0    0    0    0 -0.00000000000E+00 -0.00000000000E+00 -0.74505805969E-08  0.93827000000E+00  0.93827000000E+00 0. -1.
     999902    2    1    2    0    0  0.14292477592E-01 -0.97186306443E-02  0.14117234962E-01  0.10216135706E+01  0.10213697982E+01 0.  0.
     999903    2    3    3    0    0 -0.16684186751E-01  0.97728968662E-01 -0.80718802500E-01  0.12948218213E+00  0.20513337327E-01 0.  0.
         14    1    1    2    0    0 -0.14292477592E-01  0.97186306443E-02 -0.14117234962E-01  0.22316429381E-01  0.00000000000E+00 0.  1.
     999901    1    3    3    0    0  0.30976664343E-01 -0.10744759931E+00  0.94836037462E-01  0.89213138849E+00  0.88000000000E+00 0. -1.
        -11    1    4    4    0    0  0.17687894860E-02  0.49348828599E-01 -0.36874673047E-01  0.61631470319E-01  0.51100000000E-03 0. -1.
         11    1    4    4    0    0 -0.18452976237E-01  0.48380140063E-01 -0.43844129453E-01  0.67850711809E-01  0.51100000000E-03 0.  1.
</event>
<event>
 8    1  0.1088270E+005  0.1043930E+01  0.7957747E-01            NaN
         13   -1    0    0    0    0  0.00000000000E+00  0.00000000000E+00  0.74505805969E-08  0.10566000000E+00  0.10566000000E+00 0. -1.
     999900   -1    0    0    0    0 -0.00000000000E+00 -0.00000000000E+00 -0.74505805969E-08  0.93827000000E+00  0.93827000000E+00 0. -1.
     999902    2    1    2    0    0 -0.11625063058E-01 -0.14243654129E-01 -0.16568334971E-01  0.10191805859E+01  0.10188800387E+01 0.  0.
     999903    2    3    3    0    0  0.32440135116E-01  0.12059721536E+00 -0.18529008605E-01  0.12781778322E+00  0.19950208741E-01 0.  0.
         14    1    1    2    0    0  0.11625063058E-01  0.14243654129E-01  0.16568334971E-01  0.24749414090E-01  0.00000000000E+00 0. -1.
     999901    1    3    3    0    0 -0.44065198174E-01 -0.13484086949E+00  0.19606736335E-02  0.89136280269E+00  0.88000000000E+00 0.  1.
        -11    1    4    4    0    0  0.32852208077E-01  0.11444786817E+00 -0.21435069514E-01  0.12098473222E+00  0.51100000000E-03 0.  1.
         11    1    4    4    0    0 -0.41207296106E-03  0.61493471919E-02  0.29060609087E-02  0.68330510035E-02  0.51100000000E-03 0. -1.
</event>
<event>
 8    1  0.1088270E+005  0.1043930E+01  0.7957747E-01            NaN
         13   -1    0    0    0    0  0.00000000000E+00  0.00000000000E+00  0.74505805969E-08  0.10566000000E+00  0.10566000000E+00 0. -1.
     999900   -1    0    0    0    0 -0.00000000000E+00 -0.00000000000E+00 -0.74505805969E-08  0.93827000000E+00  0.93827000000E+00 0. -1.
     999902    2    1    2    0    0  0.23292807978E-01 -0.21428186820E-02 -0.29508451092E-02  0.10203534425E+01  0.10200810231E+01 0.  0.
     999903    2    3    3    0    0 -0.32735629127E-01  0.50938544837E-01  0.11268568544E+00  0.12943895498E+00  0.19748989852E-01 0.  0.
         14    1    1    2    0    0 -0.23292807978E-01  0.21428186820E-02  0.29508451092E-02  0.23576557473E-01  0.00000000000E+00 0. -1.
     999901    1    3    3    0    0  0.56028437106E-01 -0.53081363519E-01 -0.11563653055E+00  0.89091448754E+00  0.88000000000E+00 0. -1.
        -11    1    4    4    0    0 -0.31429532288E-01  0.34392960799E-01  0.75589175604E-01  0.88795697204E-01  0.51100000000E-03 0.  1.
         11    1    4    4    0    0 -0.13060968389E-02  0.16545584038E-01  0.37096509834E-01  0.40643257780E-01  0.51100000000E-03 0. -1.
</event>
<event>
 8    1  0.1088270E+005  0.1043930E+01  0.7957747E-01            NaN
         13   -1    0    0    0    0  0.00000000000E+00  0.00000000000E+00  0.74505805969E-08  0.10566000000E+00  0.10566000000E+00 0. -1.
     999900   -1    0    0    0    0 -0.00000000000E+00 -0.00000000000E+00 -0.74505805969E-08  0.93827000000E+00  0.93827000000E+00 0.  1.
     999902    2    1    2    0    0 -0.11959388363E-01 -0.19284386859E-01  0.51536040247E-02  0.10206604022E+01  0.10203951110E+01 0.  0.
     999903    2    3    3    0    0 -0.16037563562E-01 -0.95410325745E-01 -0.88145351833E-01  0.13245069429E+00  0.20328543127E-01 0.  0.
         14    1    1    2    0    0  0.11959388363E-01  0.19284386859E-01 -0.51536040247E-02  0.23269597783E-01  0.00000000000E+00 0.  1.
     999901    1    3    3    0    0  0.40781751991E-02  0.76125938886E-01  0.93298955857E-01  0.88820970792E+00  0.88000000000E+00 0. -1.
        -11    1    4    4    0    0 -0.44138410440E-02 -0.70827530696E-01 -0.56406281844E-01  0.90652914182E-01  0.51100000000E-03 0. -1.
         11    1    4    4    0    0 -0.11623722518E-01 -0.24582795049E-01 -0.31739069988E-01  0.41797780112E-01  0.51100000000E-03 0.  1.
</event>
<event>
 8    1  0.1088270E+005  0.1043930E+01  0.7957747E-01            NaN
         13   -1    0    0    0    0  0.00000000000E+00  0.00000000000E+00  0.74505805969E-08  0.10566000000E+00  0.10566000000E+00 0. -1.
     999900   -1    0    0    0    0 -0.00000000000E+00 -0.00000000000E+00 -0.74505805969E-08  0.93827000000E+00  0.93827000000E+00 0. -1.
     999902    2    1    2    0    0 -0.18921908041E-01  0.98204024591E-02  0.10637883213E-01  0.10201047305E+01  0.10198264645E+01 0.  0.
     999903    2    3    3    0    0 -0.83688070657E-01  0.98744787702E-01  0.22724009706E-01  0.13317278463E+00  0.21549563371E-01 0.  0.
         14    1    1    2    0    0  0.18921908041E-01 -0.98204024591E-02 -0.10637883213E-01  0.23825269518E-01  0.00000000000E+00 0. -1.
     999901    1    3    3    0    0  0.64766162617E-01 -0.88924385243E-01 -0.12086126493E-01  0.88693194585E+00  0.88000000000E+00 0. -1.
        -11    1    4    4    0    0 -0.20250380635E-01  0.21824569222E-01  0.14523934609E-01  0.33129979400E-01  0.51100000000E-03 0.  1.
         11    1    4    4    0    0 -0.63437690023E-01  0.76920218480E-01  0.82000750975E-02  0.10004280523E+00  0.51100000000E-03 0. -1.
</event>
<event>
 8    1  0.1088270E+005  0.1043930E+01  0.7957747E-01            NaN
         13   -1    0    0    0    0  0.00000000000E+00  0.00000000000E+00  0.74505805969E-08  0.10566000000E+00  0.10566000000E+00 0. -1.
     999900   -1    0    0    0    0 -0.00000000000E+00 -0.00000000000E+00 -0.74505805969E-08  0.93827000000E+00  0.93827000000E+00 0. -1.
     999902    2    1    2    0    0 -0.80631343687E-02  0.19778720983E-01  0.12030478137E-01  0.10194158338E+01  0.10191210418E+01 0.  0.
     999903    2    3    3    0    0 -0.28421403231E-01 -0.36629462641E-01  0.12044219691E+00  0.13073735255E+00  0.20891119199E-01 0.  0.
         14    1    1    2    0    0  0.80631343687E-02 -0.19778720983E-01 -0.12030478137E-01  0.24514166186E-01  0.00000000000E+00 0.  1.
     999901    1    3    3    0    0  0.20358268863E-01  0.56408183624E-01 -0.10841171877E+00  0.88867848126E+00  0.88000000000E+00 0. -1.
        -11    1    4    4    0    0 -0.23128696847E-01 -0.13449667261E-01  0.70924564686E-01  0.75804915171E-01  0.51100000000E-03 0.  1.
         11    1    4    4    0    0 -0.52927063845E-02 -0.23179795380E-01  0.49517632222E-01  0.54932437381E-01  0.51100000000E-03 0. -1.
</event>
<event>
 8    1  0.1088270E+005  0.1043930E+01  0.7957747E-01            NaN
         13   -1    0    0    0    0  0.00000000000E+00  0.00000000000E+00  0.74505805969E-08  0.10566000000E+00  0.10566000000E+00 0. -1.
     999900   -1    0    0    0    0 -0.00000000000E+00 -0.00000000000E+00 -0.74505805969E-08  0.93827000000E+00  0.93827000000E+00 0.  1.
     999902    2    1    2    0    0  0.11739709122E-01  0.53916406603E-02  0.18245355534E-01  0.10215741605E+01  0.10213295168E+01 0.  0.
     999903    2    3    3    0    0 -0.12610767993E+00  0.74967198458E-02  0.26853869445E-01  0.13079896975E+00  0.20685561045E-01 0.  0.
         14    1    1    2    0    0 -0.11739709122E-01 -0.53916406603E-02 -0.18245355534E-01  0.22355839457E-01  0.00000000000E+00 0.  1.
     999901    1    3    3    0    0  0.13784738906E+00 -0.21050791855E-02 -0.86085139116E-02  0.89077519080E+00  0.88000000000E+00 0.  1.
        -11    1    4    4    0    0 -0.67990984088E-01 -0.54895400189E-02  0.18380146852E-01  0.70647009039E-01  0.51100000000E-03 0. -1.
         11    1    4    4    0    0 -0.58116695845E-01  0.12986259865E-01  0.84737225933E-02  0.60151960707E-01  0.51100000000E-03 0.  1.
</event>
<event>
 8    1  0.1088270E+005  0.1043930E+01  0.7957747E-01            NaN
         13   -1    0    0    0    0  0.00000000000E+00  0.00000000000E+00  0.74505805969E-08  0.10566000000E+00  0.10566000000E+00 0. -1.
     999900   -1    0    0    0    0 -0.00000000000E+00 -0.00000000000E+00 -0.74505805969E-08  0.93827000000E+00  0.93827000000E+00 0.  1.
     999902    2    1    2    0    0  0.28728556413E-01 -0.78936507955E-02  0.13886040622E-01  0.10110596212E+01  0.10105251585E+01 0.  0.
     999903    2    3    3    0    0  0.11351966647E+00 -0.50982662306E-01 -0.24589697318E-02  0.12578375766E+00  0.18153804758E-01 0.  0.
         14    1    1    2    0    0 -0.28728556413E-01  0.78936507955E-02 -0.13886040622E-01  0.32870378772E-01  0.00000000000E+00 0.  1.
     999901    1    3    3    0    0 -0.84791110056E-01  0.43089011511E-01  0.16345010353E-01  0.88527586357E+00  0.88000000000E+00 0. -1.
        -11    1    4    4    0    0  0.78647827129E-01 -0.26562147536E-01 -0.47241634472E-02  0.83148104218E-01  0.51100000000E-03 0.  1.
         11    1    4    4    0    0  0.34871839340E-01 -0.24420514770E-01  0.22651937153E-02  0.42635653439E-01  0.51100000000E-03 0. -1.
</event>
<event>
 8    1  0.1088270E+005  0.1043930E+01  0.7957747E-01            NaN
         13   -1    0    0    0    0  0.00000000000E+00  0.00000000000E+00  0.74505805969E-08  0.10566000000E+00  0.10566000000E+00 0.  1.
     999900   -1    0    0    0    0 -0.00000000000E+00 -0.00000000000E+00 -0.74505805969E-08  0.93827000000E+00  0.93827000000E+00 0.  1.
     999902    2    1    2    0    0  0.85520236034E-02 -0.20866426462E-01  0.67324902451E-02  0.10203955298E+01  0.10201240934E+01 0.  0.
     999903    2    3    3    0    0  0.82656720971E-01  0.67530635293E-01  0.72212796749E-01  0.13045552217E+00  0.20283861227E-01 0.  0.
         14    1    1    2    0    0 -0.85520236034E-02  0.20866426462E-01 -0.67324902451E-02  0.23534470164E-01  0.00000000000E+00 0. -1.
     999901    1    3    3    0    0 -0.74104697368E-01 -0.88397061755E-01 -0.65480306504E-01  0.88994000766E+00  0.88000000000E+00 0.  1.
        -11    1    4    4    0    0  0.93653513259E-02  0.61114889298E-02  0.10243570171E-02  0.11241464793E-01  0.51100000000E-03 0. -1.
         11    1    4    4    0    0  0.73291369645E-01  0.61419146364E-01  0.71188439732E-01  0.11921405738E+00  0.51100000000E-03 0.  1.
</event>
<event>
 8    1  0.1088270E+005  0.1043930E+01  0.7957747E-01            NaN
         13   -1    0    0    0    0  0.00000000000E+00  0.00000000000E+00  0.74505805969E-08  0.10566000000E+00  0.10566000000E+00 0. -1.
     999900   -1    0    0    0    0 -0.00000000000E+00 -0.00000000000E+00 -0.74505805969E-08  0.93827000000E+00  0.93827000000E+00 0. -1.
     999902    2    1    2    0    0 -0.21788609041E-01 -0.30304657665E-02 -0.90535914731E-03  0.10219130320E+01  0.10216758282E+01 0.  0.
     999903    2    3    3    0    0  0.53799177577E-02 -0.10837883952E-01 -0.12999858157E+00  0.13204554480E+00  0.19748201086E-01 0.  0.
         14    1    1    2    0    0  0.21788609041E-01  0.30304657665E-02  0.90535914731E-03  0.22016968045E-01  0.00000000000E+00 0. -1.
     999901    1    3    3    0    0 -0.27168526799E-01  0.78074181853E-02  0.12909322242E+00  0.88986748716E+00  0.88000000000E+00 0.  1.
        -11    1    4    4    0    0  0.12556844273E-01 -0.96808832063E-02 -0.87346094257E-01  0.88774969111E-01  0.51100000000E-03 0.  1.
         11    1    4    4    0    0 -0.71769265155E-02 -0.11570007456E-02 -0.42652487315E-01  0.43270575684E-01  0.51100000000E-03 0. -1.
</event>
<event>
 8    1  0.1088270E+005  0.1043930E+01  0.7957747E-01            NaN
         13   -1    0    0    0    0  0.00000000000E+00  0.00000000000E+00  0.74505805969E-08  0.10566000000E+00  0.10566000000E+00 0.  1.
     999900   -1    0    0    0    0 -0.00000000000E+00 -0.00000000000E+00 -0.74505805969E-08  0.93827000000E+00  0.93827000000E+00 0.  1.
     999902    2    1    2    0    0  0.20134998535E-01 -0.85713378344E-02  0.70814892096E-02  0.10209292720E+01  0.10206701450E+01 0.  0.
     999903    2    3    3    0    0 -0.25701186868E-01  0.12365895018E+00 -0.19723087773E-01  0.12946738820E+00  0.20511398002E-01 0.  0.
         14    1    1    2    0    0 -0.20134998535E-01  0.85713378344E-02 -0.70814892096E-02  0.23000727982E-01  0.00000000000E+00 0.  1.
     999901    1    3    3    0    0  0.45836185403E-01 -0.13223028802E+00  0.26804576982E-01  0.89146188382E+00  0.88000000000E+00 0.  1.
        -11    1    4    4    0    0 -0.62906118863E-02  0.77532605903E-01 -0.92556225093E-02  0.78337758744E-01  0.51100000000E-03 0. -1.
         11    1    4    4    0    0 -0.19410574982E-01  0.46126344281E-01 -0.10467465263E-01  0.51129629452E-01  0.51100000000E-03 0.  1.
</event>
<event>
 8    1  0.1088270E+005  0.1043930E+01  0.7957747E-01            NaN
         13   -1    0    0    0    0  0.00000000000E+00  0.00000000000E+00  0.74505805969E-08  0.10566000000E+00  0.10566000000E+00 0. -1.
     999900   -1    0    0    0    0 -0.00000000000E+00 -0.00000000000E+00 -0.74505805969E-08  0.93827000000E+00  0.93827000000E+00 0. -1.
     999902    2    1    2    0    0 -0.11373708882E-01 -0.11752013769E-01 -0.16850007598E-01  0.10204482233E+01  0.10201780151E+01 0.  0.
     999903    2    3    3    0    0  0.26558953496E-01 -0.17855589841E-01  0.12298438455E+00  0.12857951225E+00  0.19578866855E-01 0.  0.
         14    1    1    2    0    0  0.11373708882E-01  0.11752013769E-01  0.16850007598E-01  0.23481776709E-01  0.00000000000E+00 0.  1.
     999901    1    3    3    0    0 -0.37932662378E-01  0.61035760723E-02 -0.13983439215E+00  0.89186871105E+00  0.88000000000E+00 0. -1.
        -11    1    4    4    0    0  0.26216233110E-01 -0.15887976159E-01  0.82013674854E-01  0.87556968021E-01  0.51100000000E-03 0.  1.
         11    1    4    4    0    0  0.34272038589E-03 -0.19676136822E-02  0.40970709694E-01  0.41022544225E-01  0.51100000000E-03 0. -1.
</event>
<event>
 8    1  0.1088270E+005  0.1043930E+01  0.7957747E-01            NaN
         13   -1    0    0    0    0  0.00000000000E+00  0.00000000000E+00  0.74505805969E-08  0.10566000000E+00  0.10566000000E+00 0.  1.
     999900   -1    0    0    0    0 -0.00000000000E+00 -0.00000000000E+00 -0.74505805969E-08  0.93827000000E+00  0.93827000000E+00 0. -1.
     999902    2    1    2    0    0 -0.63617853364E-02  0.21671974391E-01  0.74509470692E-02  0.10201463207E+01  0.10198690369E+01 0.  0.
     999903    2    3    3    0    0  0.65853847748E-01  0.87788438549E-01 -0.68994434958E-01  0.13142230232E+00  0.21634469846E-01 0.  0.
         14    1    1    2    0    0  0.63617853364E-02 -0.21671974391E-01 -0.74509470692E-02  0.23783679255E-01  0.00000000000E+00 0. -1.
     999901    1    3    3    0    0 -0.72215633085E-01 -0.66116464158E-01  0.76445382027E-01  0.88872401843E+00  0.88000000000E+00 0.  1.
        -11    1    4    4    0    0  0.41152403747E-01  0.51892413989E-01 -0.53610275273E-01  0.85209539957E-01  0.51100000000E-03 0.  1.
         11    1    4    4    0    0  0.24701444001E-01  0.35896024560E-01 -0.15384159685E-01  0.46212762362E-01  0.51100000000E-03 0. -1.
</event>
<event>
 8    1  0.1088270E+005  0.1043930E+01  0.7957747E-01            NaN
         13   -1    0    0    0    0  0.00000000000E+00  0.00000000000E+00  0.74505805969E-08  0.10566000000E+00  0.10566000000E+00 0. -1.
     999900   -1    0    0    0    0 -0.00000000000E+00 -0.00000000000E+00 -0.74505805969E-08  0.93827000000E+00  0.93827000000E+00 0.  1.
     999902    2    1    2    0    0  0.76817929367E-02  0.17731149184E-01 -0.13564349687E-01  0.10203207820E+01  0.10200475984E+01 0.  0.
     999903    2    3    3    0    0 -0.60152933006E-01 -0.24149060893E-01  0.10880590941E+00  0.12828379710E+00  0.20407209130E-01 0.  0.
         14    1    1    2    0    0 -0.76817929367E-02 -0.17731149184E-01  0.13564349687E-01  0.23609218042E-01  0.00000000000E+00 0. -1.
     999901    1    3    3    0    0  0.67834725943E-01  0.41880210076E-01 -0.12237025910E+00  0.89203698486E+00  0.88000000000E+00 0.  1.
        -11    1    4    4    0    0 -0.22405183253E-01  0.15857776450E-03  0.28255138311E-01  0.36064266878E-01  0.51100000000E-03 0.  1.
         11    1    4    4    0    0 -0.37747749753E-01 -0.24307638657E-01  0.80550771102E-01  0.92219530223E-01  0.51100000000E-03 0. -1.
</event>
<event>
 8    1  0.1088270E+005  0.1043930E+01  0.7957747E-01            NaN
         13   -1    0    0    0    0  0.00000000000E+00  0.00000000000E+00  0.74505805969E-08  0.10566000000E+00  0.10566000000E+00 0.  1.
     999900   -1    0    0    0    0 -0.00000000000E+00 -0.00000000000E+00 -0.74505805969E-08  0.93827000000E+00  0.93827000000E+00 0. -1.
     999902    2    1    2    0    0  0.41672422425E-02 -0.19886156234E-01  0.11914922649E-01  0.10203760088E+01  0.10201041167E+01 0.  0.
     999903    2    3    3    0    0 -0.91045903236E-01 -0.26046970376E-01 -0.86454814219E-01  0.12976941565E+00  0.19946557990E-01 0.  0.
         14    1    1    2    0    0 -0.41672422425E-02  0.19886156234E-01 -0.11914922649E-01  0.23553991156E-01  0.00000000000E+00 0. -1.
     999901    1    3    3    0    0  0.95213145478E-01  0.61608141416E-02  0.98369736868E-01  0.89060659319E+00  0.88000000000E+00 0. -1.
        -11    1    4    4    0    0 -0.36759611310E-01 -0.20499584518E-01 -0.34555906706E-01  0.54459836562E-01  0.51100000000E-03 0. -1.
         11    1    4    4    0    0 -0.54286291926E-01 -0.55473858574E-02 -0.51898907512E-01  0.75309579091E-01  0.51100000000E-03 0.  1.
</event>
<event>
 8    1  0.1088270E+005  0.1043930E+01  0.7957747E-01            NaN
         13   -1    0    0    0    0  0.00000000000E+00  0.00000000000E+00  0.74505805969E-08  0.10566000000E+00  0.10566000000E+00 0. -1.
     999900   -1    0    0    0    0 -0.00000000000E+00 -0.00000000000E+00 -0.74505805969E-08  0.93827000000E+00  0.93827000000E+00 0. -1.
     999902    2    1    2    0    0 -0.22437052791E-01  0.10383591159E-01  0.46768173934E-02  0.10187682647E+01  0.10184574926E+01 0.  0.
     999903    2    3    3    0    0 -0.10237707794E+00 -0.49776148229E-01 -0.61008432463E-01  0.13066683246E+00  0.19825772438E-01 0.  0.
         14    1    1    2    0    0  0.22437052791E-01 -0.10383591159E-01 -0.46768173934E-02  0.25161735318E-01  0.00000000000E+00 0. -1.
     999901    1    3    3    0    0  0.79940025154E-01  0.60159739388E-01  0.65685249856E-01  0.88810143222E+00  0.88000000000E+00 0. -1.
        -11    1    4    4    0    0 -0.78660937623E-01 -0.28693263427E-01 -0.42035274914E-01  0.93691365300E-01  0.51100000000E-03 0. -1.
         11    1    4    4    0    0 -0.23716140322E-01 -0.21082884802E-01 -0.18973157549E-01  0.36975467161E-01  0.51100000000E-03 0.  1.
</event>
<event>
 8    1  0.1088270E+005  0.1043930E+01  0.7957747E-01            NaN
         13   -1    0    0    0    0  0.00000000000E+00  0.00000000000E+00  0.74505805969E-08  0.10566000000E+00  0.10566000000E+00 0.  1.
     999900   -1    0    0    0    0 -0.00000000000E+00 -0.00000000000E+00 -0.74505805969E-08  0.93827000000E+00  0.93827000000E+00 0.  1.
     999902    2    1    2    0    0 -0.69600332006E-02 -0.34187255895E-03 -0.22436508849E-01  0.10204362590E+01  0.10201657722E+01 0.  0.
     999903    2    3    3    0    0  0.26301206038E-01  0.81850036876E-01  0.93364498069E-01  0.12843194662E+00  0.19663505237E-01 0.  0.
         14    1    1    2    0    0  0.69600332006E-02  0.34187255895E-03  0.22436508849E-01  0.23493741046E-01  0.00000000000E+00 0.  1.
     999901    1    3    3    0    0 -0.33261239238E-01 -0.82191909435E-01 -0.11580100692E+00  0.89200431233E+00  0.88000000000E+00 0. -1.
        -11    1    4    4    0    0  0.69601619126E-05  0.28063053728E-01  0.34420605560E-01  0.44413671781E-01  0.51100000000E-03 0.  1.
         11    1    4    4    0    0  0.26294245876E-01  0.53786983148E-01  0.58943892509E-01  0.84018274843E-01  0.51100000000E-03 0. -1.
</event>
<event>
 8    1  0.1088270E+005  0.1043930E+01  0.7957747E-01            NaN
         13   -1    0    0    0    0  0.00000000000E+00  0.00000000000E+00  0.74505805969E-08  0.10566000000E+00  0.10566000000E+00 0. -1.
     999900   -1    0    0    0    0 -0.00000000000E+00 -0.00000000000E+00 -0.74505805969E-08  0.93827000000E+00  0.93827000000E+00 0. -1.
     999902    2    1    2    0    0  0.11977153621E-01  0.21421162763E-01  0.55106291399E-02  0.10187767605E+01  0.10184662009E+01 0.  0.
     999903    2    3    3    0    0  0.12077920875E+00  0.17919234791E-01 -0.42148811220E-01  0.13078938845E+00  0.20509158991E-01 0.  0.
         14    1    1    2    0    0 -0.11977153621E-01 -0.21421162763E-01 -0.55106291399E-02  0.25153239483E-01  0.00000000000E+00 0.  1.
     999901    1    3    3    0    0 -0.10880205512E+00  0.35019279720E-02  0.47659440360E-01  0.88798737207E+00  0.88000000000E+00 0. -1.
        -11    1    4    4    0    0  0.17666017469E-01  0.10201811614E-01 -0.66491342344E-02  0.21462461193E-01  0.51100000000E-03 0. -1.
         11    1    4    4    0    0  0.10311319128E+00  0.77174231773E-02 -0.35499676985E-01  0.10932692725E+00  0.51100000000E-03 0.  1.
</event>
<event>
 8    1  0.1088270E+005  0.1043930E+01  0.7957747E-01            NaN
         13   -1    0    0    0    0  0.00000000000E+00  0.00000000000E+00  0.74505805969E-08  0.10566000000E+00  0.10566000000E+00 0.  1.
     999900   -1    0    0    0    0 -0.00000000000E+00 -0.00000000000E+00 -0.74505805969E-08  0.93827000000E+00  0.93827000000E+00 0. -1.
     999902    2    1    2    0    0  0.17051888049E-01  0.18335526105E-01 -0.35850736409E-02  0.10186355113E+01  0.10183214099E+01 0.  0.
     999903    2    3    3    0    0 -0.94339068732E-02  0.35648092230E-02  0.12662323477E+00  0.12853783412E+00  0.19667860942E-01 0.  0.
         14    1    1    2    0    0 -0.17051888049E-01 -0.18335526105E-01  0.35850736409E-02  0.25294488660E-01  0.00000000000E+00 0. -1.
     999901    1    3    3    0    0  0.26485794922E-01  0.14770716882E-01 -0.13020830841E+00  0.89009767722E+00  0.88000000000E+00 0. -1.
        -11    1    4    4    0    0 -0.11296732651E-01 -0.23740575497E-02  0.38575011510E-01  0.40268411340E-01  0.51100000000E-03 0.  1.
         11    1    4    4    0    0  0.18628257781E-02  0.59388667726E-02  0.88048223258E-01  0.88269422782E-01  0.51100000000E-03 0. -1.
</event>
<event>
 8    1  0.1088270E+005  0.1043930E+01  0.7957747E-01            NaN
         13   -1    0    0    0    0  0.00000000000E+00  0.00000000000E+00  0.74505805969E-08  0.10566000000E+00  0.10566000000E+00 0.  1.
     999900   -1    0    0    0    0 -0.00000000000E+00 -0.00000000000E+00 -0.74505805969E-08  0.93827000000E+00  0.93827000000E+00 0.  1.
     999902    2    1    2    0    0  0.18008400357E-01  0.25644726857E-02 -0.14676437398E-01  0.10205574345E+01  0.10202897629E+01 0.  0.
     999903    2    3    3    0    0 -0.15708018832E-01 -0.12023291401E+00 -0.44570292631E-01  0.13088916054E+00  0.21042003075E-01 0.  0.
         14    1    1    2    0    0 -0.18008400357E-01 -0.25644726857E-02  0.14676437398E-01  0.23372565505E-01  0.00000000000E+00 0.  1.
     999901    1    3    3    0    0  0.33716419189E-01  0.12279738670E+00  0.29893855232E-01  0.88966827396E+00  0.88000000000E+00 0.  1.
        -11    1    4    4    0    0 -0.14069795537E-01 -0.53782823099E-01 -0.12039864515E-01  0.56883834834E-01  0.51100000000E-03 0. -1.
         11    1    4    4    0    0 -0.16382232948E-02 -0.66450090915E-01 -0.32530428116E-01  0.74005325705E-01  0.51100000000E-03 0.  1.
</event>
<event>
 8    1  0.1088270E+005  0.1043930E+01  0.7957747E-01            NaN
         13   -1    0    0    0    0  0.00000000000E+00  0.00000000000E+00  0.74505805969E-08  0.10566000000E+00  0.10566000000E+00 0.  1.
     999900   -1    0    0    0    0 -0.00000000000E+00 -0.00000000000E+00 -0.74505805969E-08  0.93827000000E+00  0.93827000000E+00 0.  1.
     999902    2    1    2    0    0 -0.23407013653E-01 -0.73090202320E-02  0.90968186362E-02  0.10177754177E+01  0.10174393047E+01 0.  0.
     999903    2    3    3    0    0 -0.10005222260E+00 -0.23901450759E-01  0.79883722172E-01  0.13145686183E+00  0.17826128498E-01 0.  0.
         14    1    1    2    0    0  0.23407013653E-01  0.73090202320E-02 -0.90968186362E-02  0.26154582280E-01  0.00000000000E+00 0. -1.
     999901    1    3    3    0    0  0.76645208952E-01  0.16592430527E-01 -0.70786903535E-01  0.88631855589E+00  0.88000000000E+00 0.  1.
        -11    1    4    4    0    0 -0.18498047992E-01 -0.69712707516E-02  0.76459137897E-02  0.21201356421E-01  0.51100000000E-03 0. -1.
         11    1    4    4    0    0 -0.81554174613E-01 -0.16930180008E-01  0.72237808382E-01  0.11025550541E+00  0.51100000000E-03 0.  1.
</event>
<event>
 8    1  0.1088270E+005  0.1043930E+01  0.7957747E-01            NaN
         13   -1    0    0    0    0  0.00000000000E+00  0.00000000000E+00  0.74505805969E-08  0.10566000000E+00  0.10566000000E+00 0.  1.
     999900   -1    0    0    0    0 -0.00000000000E+00 -0.00000000000E+00 -0.74505805969E-08  0.93827000000E+00  0.93827000000E+00 0. -1.
     999902    2    1    2    0    0 -0.82729058888E-02  0.74358345381E-02 -0.20557491507E-01  0.10205560174E+01  0.10202883129E+01 0.  0.
     999903    2    3    3    0    0 -0.59907326397E-01 -0.43957272872E-01 -0.10874480962E+00  0.13315285761E+00  0.19573458427E-01 0.  0.
         14    1    1    2    0    0  0.82729058888E-02 -0.74358345381E-02  0.20557491507E-01  0.23373982635E-01  0.00000000000E+00 0.  1.
     999901    1    3    3    0    0  0.51634420508E-01  0.51393107410E-01  0.88187318116E-01  0.88740315976E+00  0.88000000000E+00 0.  1.
        -11    1    4    4    0    0 -0.15851626218E-01 -0.46612599505E-02 -0.34840828149E-01  0.38563529729E-01  0.51100000000E-03 0.  1.
         11    1    4    4    0    0 -0.44055700179E-01 -0.39296012921E-01 -0.73903981475E-01  0.94589327879E-01  0.51100000000E-03 0. -1.
</event>
<event>
 8    1  0.1088270E+005  0.1043930E+01  0.7957747E-01            NaN
         13   -1    0    0    0    0  0.00000000000E+00  0.00000000000E+00  0.74505805969E-08  0.10566000000E+00  0.10566000000E+00 0.  1.
     999900   -1    0    0    0    0 -0.00000000000E+00 -0.00000000000E+00 -0.74505805969E-08  0.93827000000E+00  0.93827000000E+00 0.  1.
     999902    2    1    2    0    0 -0.31771046515E-02  0.53166178387E-02 -0.23273496648E-01  0.10198464773E+01  0.10195620732E+01 0.  0.
     999903    2    3    3    0    0 -0.11995513332E+00  0.23795293324E-01 -0.44569247871E-01  0.13168428578E+00  0.19972062274E-01 0.  0.
         14    1    1    2    0    0  0.31771046515E-02 -0.53166178387E-02  0.23273496648E-01  0.24083522696E-01  0.00000000000E+00 0.  1.
     999901    1    3    3    0    0  0.11677802867E+00 -0.18478675486E-01  0.21295751222E-01  0.88816219152E+00  0.88000000000E+00 0. -1.
        -11    1    4    4    0    0 -0.55427882631E-01  0.63338092195E-02 -0.29687104830E-01  0.63197726434E-01  0.51100000000E-03 0.  1.
         11    1    4    4    0    0 -0.64527250692E-01  0.17461484105E-01 -0.14882143040E-01  0.68486559349E-01  0.51100000000E-03 0. -1.
</event>
<event>
 8    1  0.1088270E+005  0.1043930E+01  0.7957747E-01            NaN
         13   -1    0    0    0    0  0.00000000000E+00  0.00000000000E+00  0.74505805969E-08  0.10566000000E+00  0.10566000000E+00 0. -1.
     999900   -1    0    0    0    0 -0.00000000000E+00 -0.00000000000E+00 -0.74505805969E-08  0.93827000000E+00  0.93827000000E+00 0.  1.
     999902    2    1    2    0    0  0.20398824969E-01  0.10962900666E-01  0.31889726263E-03  0.10207697119E+01  0.10205069356E+01 0.  0.
     999903    2    3    3    0    0  0.76944523846E-01 -0.96990417205E-01  0.38830416527E-01  0.13153719333E+00  0.21601648127E-01 0.  0.
         14    1    1    2    0    0 -0.20398824969E-01 -0.10962900666E-01 -0.31889726263E-03  0.23160288137E-01  0.00000000000E+00 0.  1.
     999901    1    3    3    0    0 -0.56545698877E-01  0.10795331787E+00 -0.38511519264E-01  0.88923251853E+00  0.88000000000E+00 0.  1.
        -11    1    4    4    0    0  0.59156724598E-01 -0.58521499331E-01  0.23558502561E-01  0.86484380747E-01  0.51100000000E-03 0.  1.
         11    1    4    4    0    0  0.17787799248E-01 -0.38468917874E-01  0.15271913965E-01  0.45052812583E-01  0.51100000000E-03 0. -1.
</event>
<event>
 8    1  0.1088270E+005  0.1043930E+01  0.7957747E-01            NaN
         13   -1    0    0    0    0  0.00000000000E+00  0.00000000000E+00  0.74505805969E-08  0.10566000000E+00  0.10566000000E+00 0.  1.
     999900   -1    0    0    0    0 -0.00000000000E+00 -0.00000000000E+00 -0.74505805969E-08  0.93827000000E+00  0.93827000000E+00 0.  1.
     999902    2    1    2    0    0 -0.12667616514E-02  0.21778915064E-01  0.11038021773E-01  0.10194807924E+01  0.10191875796E+01 0.  0.
     999903    2    3    3    0    0  0.79502774908E-01  0.44905894116E-01 -0.90138546494E-01  0.12970819610E+00  0.19027034141E-01 0.  0.
         14    1    1    2    0    0  0.12667616514E-02 -0.21778915064E-01 -0.11038021773E-01  0.24449207576E-01  0.00000000000E+00 0. -1.
     999901    1    3    3    0    0 -0.80769536559E-01 -0.23126979052E-01  0.10117656827E+00  0.88977259632E+00  0.88000000000E+00 0. -1.
        -11    1    4    4    0    0  0.45122288423E-01  0.15043639889E-01 -0.49860593689E-01  0.68910608310E-01  0.51100000000E-03 0.  1.
         11    1    4    4    0    0  0.34380486485E-01  0.29862254227E-01 -0.40277952804E-01  0.60797587794E-01  0.51100000000E-03 0. -1.
</event>
<event>
 8    1  0.1088270E+005  0.1043930E+01  0.7957747E-01            NaN
         13   -1    0    0    0    0  0.00000000000E+00  0.00000000000E+00  0.74505805969E-08  0.10566000000E+00  0.10566000000E+00 0.  1.
     999900   -1    0    0    0    0 -0.00000000000E+00 -0.00000000000E+00 -0.74505805969E-08  0.93827000000E+00  0.93827000000E+00 0. -1.
     999902    2    1    2    0    0  0.18441203667E-01  0.16502938356E-01 -0.82491750962E-02  0.10178441062E+01  0.10175097791E+01 0.  0.
     999903    2    3    3    0    0  0.55631330348E-01  0.11246157458E+00  0.31811000537E-01  0.13094164081E+00  0.19781882391E-01 0.  0.
         14    1    1    2    0    0 -0.18441203667E-01 -0.16502938356E-01  0.82491750962E-02  0.26085893829E-01  0.00000000000E+00 0.  1.
     999901    1    3    3    0    0 -0.37190126681E-01 -0.95958636221E-01 -0.40060175634E-01  0.88690246536E+00  0.88000000000E+00 0. -1.
        -11    1    4    4    0    0  0.25650291424E-01  0.73533615441E-01  0.19324205176E-01  0.80242233747E-01  0.51100000000E-03 0. -1.
         11    1    4    4    0    0  0.29981038924E-01  0.38927959135E-01  0.12486795362E-01  0.50699407066E-01  0.51100000000E-03 0.  1.
</event>
<event>
 8    1  0.1088270E+005  0.1043930E+01  0.7957747E-01            NaN
         13   -1    0    0    0    0  0.00000000000E+00  0.00000000000E+00  0.74505805969E-08  0.10566000000E+00  0.10566000000E+00 0. -1.
     999900   -1    0    0    0    0 -0.00000000000E+00 -0.00000000000E+00 -0.74505805969E-08  0.93827000000E+00  0.93827000000E+00 0. -1.
     999902    2    1    2    0    0 -0.83847079890E-02  0.19591806572E-01  0.89321922577E-02  0.10208231553E+01  0.10205616043E+01 0.  0.
     999903    2    3    3    0    0  0.93497632965E-01  0.78756147966E-01  0.46254357536E-01  0.13218747366E+00  0.19741438362E-01 0.  0.
         14    1    1    2    0    0  0.83847079890E-02 -0.19591806572E-01 -0.89321922577E-02  0.23106844686E-01  0.00000000000E+00 0.  1.
     999901    1    3    3    0    0 -0.10188234095E+00 -0.59164341394E-01 -0.37322165279E-01  0.88863568166E+00  0.88000000000E+00 0. -1.
        -11    1    4    4    0    0  0.61659659154E-01  0.56664425420E-01  0.22432339759E-01  0.86696260953E-01  0.51100000000E-03 0.  1.
         11    1    4    4    0    0  0.31837973811E-01  0.22091722546E-01  0.23822017777E-01  0.45491212705E-01  0.51100000000E-03 0. -1.
</event>
<event>
 8    1  0.1088270E+005  0.1043930E+01  0.7957747E-01            NaN
         13   -1    0    0    0    0  0.00000000000E+00  0.00000000000E+00  0.74505805969E-08  0.10566000000E+00  0.10566000000E+00 0.  1.
     999900   -1    0    0    0    0 -0.00000000000E+00 -0.00000000000E+00 -0.74505805969E-08  0.93827000000E+00  0.93827000000E+00 0.  1.
     999902    2    1    2    0    0  0.12535328317E-01 -0.22496472254E-01  0.37537235548E-02  0.10179047015E+01  0.10175719460E+01 0.  0.
     999903    2    3    3    0    0 -0.11745227067E+00  0.34330557900E-01  0.24348848835E-01  0.12630487738E+00  0.19657886949E-01 0.  0.
         14    1    1    2    0    0 -0.12535328317E-01  0.22496472254E-01 -0.37537235548E-02  0.26025298469E-01  0.00000000000E+00 0.  1.
     999901    1    3    3    0    0  0.12998759898E+00 -0.56827030154E-01 -0.20595125280E-01  0.89159982415E+00  0.88000000000E+00 0. -1.
        -11    1    4    4    0    0 -0.78560542417E-01  0.19649088094E-01  0.70927708948E-02  0.81292152190E-01  0.51100000000E-03 0. -1.
         11    1    4    4    0    0 -0.38891728250E-01  0.14681469806E-01  0.17256077940E-01  0.45012725187E-01  0.51100000000E-03 0.  1.
</event>
<event>
 8    1  0.1088270E+005  0.1043930E+01  0.7957747E-01            NaN
         13   -1    0    0    0    0  0.00000000000E+00  0.00000000000E+00  0.74505805969E-08  0.10566000000E+00  0.10566000000E+00 0. -1.
     999900   -1    0    0    0    0 -0.00000000000E+00 -0.00000000000E+00 -0.74505805969E-08  0.93827000000E+00  0.93827000000E+00 0.  1.
     999902    2    1    2    0    0 -0.86173650978E-02  0.62595572039E-02  0.21439341945E-01  0.10199907765E+01  0.10197098106E+01 0.  0.
     999903    2    3    3    0    0 -0.64612862225E-01 -0.82044652429E-01 -0.72830297471E-01  0.12880062058E+00  0.19473075632E-01 0.  0.
         14    1    1    2    0    0  0.86173650978E-02 -0.62595572039E-02 -0.21439341945E-01  0.23939223476E-01  0.00000000000E+00 0.  1.
     999901    1    3    3    0    0  0.55995497127E-01  0.88304209633E-01  0.94269639416E-01  0.89119015594E+00  0.88000000000E+00 0.  1.
        -11    1    4    4    0    0 -0.26966078310E-01 -0.25647316288E-01 -0.16788782544E-01  0.40829873286E-01  0.51100000000E-03 0. -1.
         11    1    4    4    0    0 -0.37646783915E-01 -0.56397336141E-01 -0.56041514927E-01  0.87970747293E-01  0.51100000000E-03 0.  1.
</event>
<event>
 8    1  0.1088270E+005  0.1043930E+01  0.7957747E-01            NaN
         13   -1    0    0    0    0  0.00000000000E+00  0.00000000000E+00  0.74505805969E-08  0.10566000000E+00  0.10566000000E+00 0. -1.
     999900   -1    0    0    0    0 -0.00000000000E+00 -0.00000000000E+00 -0.74505805969E-08  0.93827000000E+00  0.93827000000E+00 0.  1.
     999902    2    1    2    0    0 -0.64267223953E-02 -0.59047649455E-02  0.21852313987E-01  0.10203993256E+01  0.10201279778E+01 0.  0.
     999903    2    3    3    0    0 -0.93857665339E-01 -0.41614093553E-02 -0.86803840414E-01  0.12941483140E+00  0.19665024889E-01 0.  0.
         14    1    1    2    0    0  0.64267223953E-02  0.59047649455E-02 -0.21852313987E-01  0.23530674372E-01  0.00000000000E+00 0.  1.
     999901    1    3    3    0    0  0.87430942944E-01 -0.17433555902E-02  0.10865615440E+00  0.89098449423E+00  0.88000000000E+00 0. -1.
        -11    1    4    4    0    0 -0.67984741602E-01  0.32801185556E-03 -0.72953453144E-01  0.99722114544E-01  0.51100000000E-03 0. -1.
         11    1    4    4    0    0 -0.25872923738E-01 -0.44894212108E-02 -0.13850387269E-01  0.29692716852E-01  0.51100000000E-03 0.  1.
</event>
<event>
 8    1  0.1088270E+005  0.1043930E+01  0.7957747E-01            NaN
         13   -1    0    0    0    0  0.00000000000E+00  0.00000000000E+00  0.74505805969E-08  0.10566000000E+00  0.10566000000E+00 0. -1.
     999900   -1    0    0    0    0 -0.00000000000E+00 -0.00000000000E+00 -0.74505805969E-08  0.93827000000E+00  0.93827000000E+00 0. -1.
     999902    2    1    2    0    0 -0.18736222260E-01  0.12308328688E-01 -0.11653706351E-01  0.10186644137E+01  0.10183510386E+01 0.  0.
     999903    2    3    3    0    0  0.96638628953E-01 -0.12695749777E-01  0.77683276107E-01  0.12629808944E+00  0.20403659985E-01 0.  0.
         14    1    1    2    0    0  0.18736222260E-01 -0.12308328688E-01  0.11653706351E-01  0.25265586306E-01  0.00000000000E+00 0. -1.
     999901    1    3    3    0    0 -0.11537485121E+00  0.25004078465E-01 -0.89336982458E-01  0.89236632426E+00  0.88000000000E+00 0. -1.
        -11    1    4    4    0    0  0.69801516200E-01 -0.13318878218E-01  0.45479251313E-01  0.84369826371E-01  0.51100000000E-03 0.  1.
         11    1    4    4    0    0  0.26837112753E-01  0.62312844066E-03  0.32204024794E-01  0.41928263067E-01  0.51100000000E-03 0. -1.
</event>
<event>
 8    1  0.1088270E+005  0.1043930E+01  0.7957747E-01            NaN
         13   -1    0    0    0    0  0.00000000000E+00  0.00000000000E+00  0.74505805969E-08  0.10566000000E+00  0.10566000000E+00 0.  1.
     999900   -1    0    0    0    0 -0.00000000000E+00 -0.00000000000E+00 -0.74505805969E-08  0.93827000000E+00  0.93827000000E+00 0.  1.
     999902    2    1    2    0    0  0.21389520050E-01  0.82407881921E-02 -0.31025996297E-02  0.10207988893E+01  0.10205367823E+01 0.  0.
     999903    2    3    3    0    0  0.11417542190E+00  0.47195138163E-01  0.46820524429E-01  0.13365798545E+00  0.20220967700E-01 0.  0.
         14    1    1    2    0    0 -0.21389520050E-01 -0.82407881921E-02  0.31025996297E-02  0.23131110705E-01  0.00000000000E+00 0.  1.
     999901    1    3    3    0    0 -0.92785901846E-01 -0.38954349971E-01 -0.49923124059E-01  0.88714090385E+00  0.88000000000E+00 0. -1.
        -11    1    4    4    0    0  0.82358874865E-01  0.33006843960E-01  0.43030381697E-01  0.98611920614E-01  0.51100000000E-03 0.  1.
         11    1    4    4    0    0  0.31816547031E-01  0.14188294203E-01  0.37901427317E-02  0.35046064833E-01  0.51100000000E-03 0. -1.
</event>
<event>
 8    1  0.1088270E+005  0.1043930E+01  0.7957747E-01            NaN
         13   -1    0    0    0    0  0.00000000000E+00  0.00000000000E+00  0.74505805969E-08  0.10566000000E+00  0.10566000000E+00 0. -1.
     999900   -1    0    0    0    0 -0.00000000000E+00 -0.00000000000E+00 -0.74505805969E-08  0.93827000000E+00  0.93827000000E+00 0.  1.
     999902    2    1    2    0    0  0.10088292929E-01  0.21816826187E-01  0.37619438457E-02  0.10196010095E+01  0.10193107076E+01 0.  0.
     999903    2    3    3    0    0  0.79916083645E-01  0.64726274129E-01 -0.80145353556E-01  0.13181861741E+00  0.19411316594E-01 0.  0.
         14    1    1    2    0    0 -0.10088292929E-01 -0.21816826187E-01 -0.37619438457E-02  0.24328990538E-01  0.00000000000E+00 0.  1.
     999901    1    3    3    0    0 -0.69827790716E-01 -0.42909447942E-01  0.83907297402E-01  0.88778239205E+00  0.88000000000E+00 0. -1.
        -11    1    4    4    0    0  0.74628104440E-02  0.59429327726E-02 -0.15857529371E-01  0.18513085870E-01  0.51100000000E-03 0. -1.
         11    1    4    4    0    0  0.72453273201E-01  0.58783341356E-01 -0.64287824185E-01  0.11330553154E+00  0.51100000000E-03 0.  1.
</event>
<event>
 8    1  0.1088270E+005  0.1043930E+01  0.7957747E-01            NaN
         13   -1    0    0    0    0  0.00000000000E+00  0.00000000000E+00  0.74505805969E-08  0.10566000000E+00  0.10566000000E+00 0.  1.
     999900   -1    0    0    0    0 -0.00000000000E+00 -0.00000000000E+00 -0.74505805969E-08  0.93827000000E+00  0.93827000000E+00 0. -1.
     999902    2    1    2    0    0  0.20745031200E-01  0.39240715596E-02 -0.16286282452E-02  0.10227543752E+01  0.10225351362E+01 0.  0.
     999903    2    3    3    0    0 -0.16416079154E-01 -0.27048043841E-01  0.12681630889E+00  0.13211509806E+00  0.19259766462E-01 0.  0.
         14    1    1    2    0    0 -0.20745031200E-01 -0.39240715596E-02  0.16286282452E-02  0.21175624833E-01  0.00000000000E+00 0. -1.
     999901    1    3    3    0    0  0.37161110354E-01  0.30972115400E-01 -0.12844493713E+00  0.89063927711E+00  0.88000000000E+00 0. -1.
        -11    1    4    4    0    0 -0.19124576683E-01 -0.26783305504E-01  0.10282471545E+00  0.10796424462E+00  0.51100000000E-03 0. -1.
         11    1    4    4    0    0  0.27084975293E-02 -0.26473833705E-03  0.23991593435E-01  0.24150853438E-01  0.51100000000E-03 0.  1.
</event>
<event>
 8    1  0.1088270E+005  0.1043930E+01  0.7957747E-01            NaN
         13   -1    0    0    0    0  0.00000000000E+00  0.00000000000E+00  0.74505805969E-08  0.10566000000E+00  0.10566000000E+00 0.  1.
     999900   -1    0    0    0    0 -0.00000000000E+00 -0.00000000000E+00 -0.74505805969E-08  0.93827000000E+00  0.93827000000E+00 0.  1.
     999902    2    1    2    0    0 -0.28055946821E-01  0.62339885906E-02 -0.19420828231E-01  0.10092432974E+01  0.10086470473E+01 0.  0.
     999903    2    3    3    0    0 -0.21882592382E-01 -0.84632217865E-01 -0.83152426835E-01  0.12225034682E+00  0.19732233996E-01 0.  0.
         14    1    1    2    0    0  0.28055946821E-01 -0.62339885906E-02  0.19420828231E-01  0.34686702566E-01  0.00000000000E+00 0. -1.
     999901    1    3    3    0    0 -0.61733544386E-02  0.90866206456E-01  0.63731598604E-01  0.88699295062E+00  0.88000000000E+00 0. -1.
        -11    1    4    4    0    0 -0.58450012246E-02 -0.57811280683E-01 -0.49626609310E-01  0.76415768570E-01  0.51100000000E-03 0. -1.
         11    1    4    4    0    0 -0.16037591157E-01 -0.26820937182E-01 -0.33525817525E-01  0.45834578248E-01  0.51100000000E-03 0.  1.
</event>
<event>
 8    1  0.1088270E+005  0.1043930E+01  0.7957747E-01            NaN
         13   -1    0    0    0    0  0.00000000000E+00  0.00000000000E+00  0.74505805969E-08  0.10566000000E+00  0.10566000000E+00 0. -1.
     999900   -1    0    0    0    0 -0.00000000000E+00 -0.00000000000E+00 -0.74505805969E-08  0.93827000000E+00  0.93827000000E+00 0. -1.
     999902    2    1    2    0    0  0.17536032546E-01 -0.13883161631E-01 -0.40056107367E-02  0.10212077745E+01  0.10209549545E+01 0.  0.
     999903    2    3    3    0    0  0.69399697757E-01  0.58978171629E-01  0.92554273764E-01  0.13141992060E+00  0.20252386545E-01 0.  0.
         14    1    1    2    0    0 -0.17536032546E-01  0.13883161631E-01  0.40056107367E-02  0.22722225501E-01  0.00000000000E+00 0. -1.
     999901    1    3    3    0    0 -0.51863665211E-01 -0.72861333260E-01 -0.96559884501E-01  0.88978785390E+00  0.88000000000E+00 0. -1.
        -11    1    4    4    0    0  0.27300412128E-01  0.10966167837E-01  0.30391296741E-01  0.42302025696E-01  0.51100000000E-03 0.  1.
         11    1    4    4    0    0  0.42099285630E-01  0.48012003791E-01  0.62162977023E-01  0.89117894903E-01  0.51100000000E-03 0. -1.
</event>
<event>
 8    1  0.1088270E+005  0.1043930E+01  0.7957747E-01            NaN
         13   -1    0    0    0    0  0.00000000000E+00  0.00000000000E+00  0.74505805969E-08  0.10566000000E+00  0.10566000000E+00 0.  1.
     999900   -1    0    0    0    0 -0.00000000000E+00 -0.00000000000E+00 -0.74505805969E-08  0.93827000000E+00  0.93827000000E+00 0.  1.
     999902    2    1    2    0    0  0.19247672938E-01  0.40042463047E-02 -0.12716632668E-01  0.10205159092E+01  0.10202472746E+01 0.  0.
     999903    2    3    3    0    0  0.53391206856E-01 -0.72884373781E-01 -0.95003733131E-01  0.13268213662E+00  0.20398214614E-01 0.  0.
         14    1    1    2    0    0 -0.19247672938E-01 -0.40042463047E-02  0.12716632668E-01  0.23414090809E-01  0.00000000000E+00 0.  1.
     999901    1    3    3    0    0 -0.34143533918E-01  0.76888620085E-01  0.82287100462E-01  0.88783377257E+00  0.88000000000E+00 0. -1.
        -11    1    4    4    0    0  0.14466767677E-01 -0.22135866482E-01 -0.41907011479E-01  0.49555450599E-01  0.51100000000E-03 0. -1.
         11    1    4    4    0    0  0.38924439179E-01 -0.50748507298E-01 -0.53096721652E-01  0.83126686025E-01  0.51100000000E-03 0.  1.
</event>
<event>
 8    1  0.1088270E+005  0.1043930E+01  0.7957747E-01            NaN
         13   -1    0    0    0    0  0.00000000000E+00  0.00000000000E+00  0.74505805969E-08  0.10566000000E+00  0.10566000000E+00 0.  1.
     999900   -1    0    0    0    0 -0.00000000000E+00 -0.00000000000E+00 -0.74505805969E-08  0.93827000000E+00  0.93827000000E+00 0. -1.
     999902    2    1    2    0    0  0.55236120336E-02  0.36917145962E-02 -0.22970065261E-01  0.10200184349E+01  0.10197381255E+01 0.  0.
     999903    2    3    3    0    0 -0.30237403609E-01  0.49901636612E-01  0.11203215985E+00  0.12780780512E+00  0.19471936102E-01 0.  0.
         14    1    1    2    0    0 -0.55236120336E-02 -0.36917145962E-02  0.22970065261E-01  0.23911565082E-01  0.00000000000E+00 0.  1.
     999901    1    3    3    0    0  0.35761015642E-01 -0.46209922016E-01 -0.13500222511E+00  0.89221062979E+00  0.88000000000E+00 0. -1.
        -11    1    4    4    0    0 -0.18891104091E-01  0.30952709573E-01  0.48607143240E-01  0.60645358756E-01  0.51100000000E-03 0.  1.
         11    1    4    4    0    0 -0.11346299518E-01  0.18948927039E-01  0.63425016613E-01  0.67162446367E-01  0.51100000000E-03 0. -1.
</event>
<event>
 8    1  0.1088270E+005  0.1043930E+01  0.7957747E-01            NaN
         13   -1    0    0    0    0  0.00000000000E+00  0.00000000000E+00  0.74505805969E-08  0.10566000000E+00  0.10566000000E+00 0.  1.
     999900   -1    0    0    0    0 -0.00000000000E+00 -0.00000000000E+00 -0.74505805969E-08  0.93827000000E+00  0.93827000000E+00 0.  1.
     999902    2    1    2    0    0  0.55949499441E-02  0.55434100557E-02  0.22107515448E-01  0.10204614018E+01  0.10201915004E+01 0.  0.
     999903    2    3    3    0    0  0.10979765906E+00  0.11641083722E-01  0.71288872454E-01  0.13292875902E+00  0.19922622170E-01 0.  0.
         14    1    1    2    0    0 -0.55949499441E-02 -0.55434100557E-02 -0.22107515448E-01  0.23468598152E-01  0.00000000000E+00 0. -1.
     999901    1    3    3    0    0 -0.10420270911E+00 -0.60976736660E-02 -0.49181357006E-01  0.88753264283E+00  0.88000000000E+00 0. -1.
        -11    1    4    4    0    0  0.76046402604E-01 -0.10686156194E-02  0.50561409296E-01  0.91328607344E-01  0.51100000000E-03 0. -1.
         11    1    4    4    0    0  0.33751256452E-01  0.12709699341E-01  0.20727463159E-01  0.41600151675E-01  0.51100000000E-03 0.  1.
</event>
<event>
 8    1  0.1088270E+005  0.1043930E+01  0.7957747E-01            NaN
         13   -1    0    0    0    0  0.00000000000E+00  0.00000000000E+00  0.74505805969E-08  0.10566000000E+00  0.10566000000E+00 0. -1.
     999900   -1    0    0    0    0 -0.00000000000E+00 -0.00000000000E+00 -0.74505805969E-08  0.93827000000E+00  0.93827000000E+00 0.  1.
     999902    2    1    2    0    0  0.12794290176E-02 -0.19033526450E-01  0.16461586534E-01  0.10187328593E+01  0.10184212010E+01 0.  0.
     999903    2    3    3    0    0  0.13572881251E-01 -0.12775199945E-01  0.12850603957E+00  0.13152135404E+00  0.20895825521E-01 0.  0.
         14    1    1    2    0    0 -0.12794290176E-02  0.19033526450E-01 -0.16461586534E-01  0.25197140690E-01  0.00000000000E+00 0.  1.
     999901    1    3    3    0    0 -0.12293452233E-01 -0.62583265052E-02 -0.11204445304E+00  0.88721150527E+00  0.88000000000E+00 0.  1.
        -11    1    4    4    0    0  0.10886993150E-01 -0.45493063298E-02  0.24960307287E-01  0.27613418274E-01  0.51100000000E-03 0. -1.
         11    1    4    4    0    0  0.26858881008E-02 -0.82258936151E-02  0.10354573229E+00  0.10390793577E+00  0.51100000000E-03 0.  1.
</event>
<event>
 8    1  0.1088270E+005  0.1043930E+01  0.7957747E-01            NaN
         13   -1    0    0    0    0  0.00000000000E+00  0.00000000000E+00  0.74505805969E-08  0.10566000000E+00  0.10566000000E+00 0.  1.
     999900   -1    0    0    0    0 -0.00000000000E+00 -0.00000000000E+00 -0.74505805969E-08  0.93827000000E+00  0.93827000000E+00 0.  1.
     999902    2    1    2    0    0 -0.13981997510E-01  0.10669339218E-01  0.15346625718E-01  0.10205879784E+01  0.10203210140E+01 0.  0.
     999903    2    3    3    0    0 -0.11845353473E+00 -0.46867795864E-01  0.30542829162E-01  0.13241246157E+00  0.19296771440E-01 0.  0.
         14    1    1    2    0    0  0.13981997510E-01 -0.10669339218E-01 -0.15346625718E-01  0.23342021649E-01  0.00000000000E+00 0. -1.
     999901    1    3    3    0    0  0.10447153722E+00  0.57537135082E-01 -0.15196203443E-01  0.88817551678E+00  0.88000000000E+00 0.  1.
        -11    1    4    4    0    0 -0.86138192210E-01 -0.26041535985E-01  0.26158904981E-01  0.93714989113E-01  0.51100000000E-03 0.  1.
         11    1    4    4    0    0 -0.32315342519E-01 -0.20826259879E-01  0.43839241811E-02  0.38697472461E-01  0.51100000000E-03 0. -1.
</event>
<event>
 8    1  0.1088270E+005  0.1043930E+01  0.7957747E-01            NaN
         13   -1    0    0    0    0  0.00000000000E+00  0.00000000000E+00  0.74505805969E-08  0.10566000000E+00  0.10566000000E+00 0. -1.
     999900   -1    0    0    0    0 -0.00000000000E+00 -0.00000000000E+00 -0.74505805969E-08  0.93827000000E+00  0.93827000000E+00 0. -1.
     999902    2    1    2    0    0 -0.25299404841E-01 -0.25581495590E-01  0.72835018591E-03  0.10079438458E+01  0.10073012424E+01 0.  0.
     999903    2    3    3    0    0 -0.55970761523E-01  0.57476620123E-01  0.86096856040E-01  0.11939043461E+00  0.20127574356E-01 0.  0.
         14    1    1    2    0    0  0.25299404841E-01  0.25581495590E-01 -0.72835018591E-03  0.35986154225E-01  0.00000000000E+00 0. -1.
     999901    1    3    3    0    0  0.30671356683E-01 -0.83058115712E-01 -0.85368505855E-01  0.88855341117E+00  0.88000000000E+00 0. -1.
        -11    1    4    4    0    0 -0.46399507726E-01  0.40291224979E-01  0.74402219369E-01  0.96499992205E-01  0.51100000000E-03 0.  1.
         11    1    4    4    0    0 -0.95712537974E-02  0.17185395144E-01  0.11694636671E-01  0.22890442402E-01  0.51100000000E-03 0. -1.
</event>
<event>
 8    1  0.1088270E+005  0.1043930E+01  0.7957747E-01            NaN
         13   -1    0    0    0    0  0.00000000000E+00  0.00000000000E+00  0.74505805969E-08  0.10566000000E+00  0.10566000000E+00 0.  1.
     999900   -1    0    0    0    0 -0.00000000000E+00 -0.00000000000E+00 -0.74505805969E-08  0.93827000000E+00  0.93827000000E+00 0. -1.
     999902    2    1    2    0    0  0.13822505566E-01 -0.14998846477E-01 -0.11954895201E-01  0.10202879490E+01  0.10200139961E+01 0.  0.
     999903    2    3    3    0    0 -0.77468449164E-01  0.96054898844E-01  0.26338772254E-01  0.12780076270E+00  0.20282993230E-01 0.  0.
         14    1    1    2    0    0 -0.13822505566E-01  0.14998846477E-01  0.11954895201E-01  0.23642050990E-01  0.00000000000E+00 0.  1.
     999901    1    3    3    0    0  0.91290954730E-01 -0.11105374532E+00 -0.38293667455E-01  0.89248718631E+00  0.88000000000E+00 0. -1.
        -11    1    4    4    0    0 -0.45597298168E-01  0.62270785329E-01  0.70363459874E-02  0.77501842504E-01  0.51100000000E-03 0. -1.
         11    1    4    4    0    0 -0.31871150996E-01  0.33784113515E-01  0.19302426266E-01  0.50298920193E-01  0.51100000000E-03 0.  1.
</event>
<event>
 8    1  0.1088270E+005  0.1043930E+01  0.7957747E-01            NaN
         13   -1    0    0    0    0  0.00000000000E+00  0.00000000000E+00  0.74505805969E-08  0.10566000000E+00  0.10566000000E+00 0. -1.
     999900   -1    0    0    0    0 -0.00000000000E+00 -0.00000000000E+00 -0.74505805969E-08  0.93827000000E+00  0.93827000000E+00 0. -1.
     999902    2    1    2    0    0  0.97027749120E-02  0.19678883273E-01 -0.28331743144E-02  0.10218069540E+01  0.10215674339E+01 0.  0.
     999903    2    3    3    0    0 -0.61913571380E-01 -0.11056752256E+00 -0.99102090237E-02  0.12931431441E+00  0.23780502597E-01 0.  0.
         14    1    1    2    0    0 -0.97027749120E-02 -0.19678883273E-01  0.28331743144E-02  0.22123046006E-01  0.00000000000E+00 0.  1.
     999901    1    3    3    0    0  0.71616346292E-01  0.13024640583E+00  0.70770347093E-02  0.89249263958E+00  0.88000000000E+00 0. -1.
        -11    1    4    4    0    0 -0.46697226980E-01 -0.95677625016E-01 -0.16687747011E-02  0.10647950444E+00  0.51100000000E-03 0.  1.
         11    1    4    4    0    0 -0.15216344400E-01 -0.14889897540E-01 -0.82414343226E-02  0.22834809970E-01  0.51100000000E-03 0. -1.
</event>
<event>
 8    1  0.1088270E+005  0.1043930E+01  0.7957747E-01            NaN
         13   -1    0    0    0    0  0.00000000000E+00  0.00000000000E+00  0.74505805969E-08  0.10566000000E+00  0.10566000000E+00 0.  1.
     999900   -1    0    0    0    0 -0.00000000000E+00 -0.00000000000E+00 -0.74505805969E-08  0.93827000000E+00  0.93827000000E+00 0.  1.
     999902    2    1    2    0    0  0.19022733584E-01 -0.12413474185E-01  0.45799789732E-02  0.10207581433E+01  0.10204951015E+01 0.  0.
     999903    2    3    3    0    0  0.11385667204E+00 -0.57399313015E-01 -0.34711379902E-01  0.13364991291E+00  0.19984904905E-01 0.  0.
         14    1    1    2    0    0 -0.19022733584E-01  0.12413474185E-01 -0.45799789732E-02  0.23171856675E-01  0.00000000000E+00 0. -1.
     999901    1    3    3    0    0 -0.94833938459E-01  0.44985838829E-01  0.39291358876E-01  0.88710823041E+00  0.88000000000E+00 0.  1.
        -11    1    4    4    0    0  0.32585571689E-01 -0.71959279962E-02 -0.60848069005E-02  0.33924723404E-01  0.51100000000E-03 0. -1.
         11    1    4    4    0    0  0.81271100354E-01 -0.50203385019E-01 -0.28626573002E-01  0.99725189511E-01  0.51100000000E-03 0.  1.
</event>
<event>
 8    1  0.1088270E+005  0.1043930E+01  0.7957747E-01            NaN
         13   -1    0    0    0    0  0.00000000000E+00  0.00000000000E+00  0.74505805969E-08  0.10566000000E+00  0.10566000000E+00 0.  1.
     999900   -1    0    0    0    0 -0.00000000000E+00 -0.00000000000E+00 -0.74505805969E-08  0.93827000000E+00  0.93827000000E+00 0.  1.
     999902    2    1    2    0    0 -0.21910883721E-01  0.48393578980E-02 -0.19221790233E-02  0.10214088770E+01  0.10211605618E+01 0.  0.
     999903    2    3    3    0    0 -0.99199468650E-01 -0.64782788076E-01 -0.58088110706E-01  0.13350382549E+00  0.20290357388E-01 0.  0.
         14    1    1    2    0    0  0.21910883721E-01 -0.48393578980E-02  0.19221790233E-02  0.22521123029E-01  0.00000000000E+00 0. -1.
     999901    1    3    3    0    0  0.77288584929E-01  0.69622145974E-01  0.56165931682E-01  0.88790505148E+00  0.88000000000E+00 0. -1.
        -11    1    4    4    0    0 -0.48140907273E-01 -0.20826489705E-01 -0.30670651351E-01  0.60763801739E-01  0.51100000000E-03 0.  1.
         11    1    4    4    0    0 -0.51058561377E-01 -0.43956298370E-01 -0.27417459354E-01  0.72740023747E-01  0.51100000000E-03 0. -1.
</event>
<event>
 8    1  0.1088270E+005  0.1043930E+01  0.7957747E-01            NaN
         13   -1    0    0    0    0  0.00000000000E+00  0.00000000000E+00  0.74505805969E-08  0.10566000000E+00  0.10566000000E+00 0. -1.
     999900   -1    0    0    0    0 -0.00000000000E+00 -0.00000000000E+00 -0.74505805969E-08  0.93827000000E+00  0.93827000000E+00 0. -1.
     999902    2    1    2    0    0  0.11157785825E-01 -0.14755450902E-01  0.80273128855E-02  0.10237642551E+01  0.10235656270E+01 0.  0.
     999903    2    3    3    0    0 -0.50195958067E-01  0.37021703374E-01 -0.11346855446E+00  0.13179654189E+00  0.24596237037E-01 0.  0.
         14    1    1    2    0    0 -0.11157785825E-01  0.14755450902E-01 -0.80273128855E-02  0.20165744916E-01  0.00000000000E+00 0.  1.
     999901    1    3    3    0    0  0.61353743893E-01 -0.51777154276E-01  0.12149586735E+00  0.89196771319E+00  0.88000000000E+00 0.  1.
        -11    1    4    4    0    0 -0.31632642209E-01  0.90017363057E-02 -0.47790985150E-01  0.58016331255E-01  0.51100000000E-03 0.  1.
         11    1    4    4    0    0 -0.18563315858E-01  0.28019967068E-01 -0.65677569311E-01  0.73780210638E-01  0.51100000000E-03 0. -1.
</event>
<event>
 8    1  0.1088270E+005  0.1043930E+01  0.7957747E-01            NaN
         13   -1    0    0    0    0  0.00000000000E+00  0.00000000000E+00  0.74505805969E-08  0.10566000000E+00  0.10566000000E+00 0. -1.
     999900   -1    0    0    0    0 -0.00000000000E+00 -0.00000000000E+00 -0.74505805969E-08  0.93827000000E+00  0.93827000000E+00 0.  1.
     999902    2    1    2    0    0 -0.11171456444E-01  0.19544913165E-01 -0.24424886134E-02  0.10212855565E+01  0.10210344838E+01 0.  0.
     999903    2    3    3    0    0 -0.57842122349E-01 -0.67983580022E-01 -0.94248753400E-01  0.13096663702E+00  0.17376830090E-01 0.  0.
         14    1    1    2    0    0  0.11171456444E-01 -0.19544913165E-01  0.24424886134E-02  0.22644443476E-01  0.00000000000E+00 0.  1.
     999901    1    3    3    0    0  0.46670665905E-01  0.87528493187E-01  0.91806264787E-01  0.89031891951E+00  0.88000000000E+00 0. -1.
        -11    1    4    4    0    0 -0.10972172205E-01 -0.19874738089E-01 -0.15654647809E-01  0.27581205485E-01  0.51100000000E-03 0. -1.
         11    1    4    4    0    0 -0.46869950144E-01 -0.48108841933E-01 -0.78594105591E-01  0.10338543153E+00  0.51100000000E-03 0.  1.
</event>
<event>
 8    1  0.1088270E+005  0.1043930E+01  0.7957747E-01            NaN
         13   -1    0    0    0    0  0.00000000000E+00  0.00000000000E+00  0.74505805969E-08  0.10566000000E+00  0.10566000000E+00 0. -1.
     999900   -1    0    0    0    0 -0.00000000000E+00 -0.00000000000E+00 -0.74505805969E-08  0.93827000000E+00  0.93827000000E+00 0.  1.
     999902    2    1    2    0    0 -0.15149095720E-03  0.16710536041E-01  0.26423123407E-03  0.10272166885E+01  0.10270807126E+01 0.  0.
     999903    2    3    3    0    0 -0.95975934359E-01 -0.91187401257E-01  0.19376224626E-01  0.13525841751E+00  0.19821183210E-01 0.  0.
         14    1    1    2    0    0  0.15149095720E-03 -0.16710536041E-01 -0.26423123407E-03  0.16713311534E-01  0.00000000000E+00 0. -1.
     999901    1    3    3    0    0  0.95824443401E-01  0.10789793730E+00 -0.19111993392E-01  0.89195827095E+00  0.88000000000E+00 0. -1.
        -11    1    4    4    0    0 -0.39501626376E-01 -0.34704617488E-01  0.17302078210E-01  0.55357131363E-01  0.51100000000E-03 0. -1.
         11    1    4    4    0    0 -0.56474307982E-01 -0.56482783769E-01  0.20741464161E-02  0.79901286152E-01  0.51100000000E-03 0.  1.
</event>
<event>
 8    1  0.1088270E+005  0.1043930E+01  0.7957747E-01            NaN
         13   -1    0    0    0    0  0.00000000000E+00  0.00000000000E+00  0.74505805969E-08  0.10566000000E+00  0.10566000000E+00 0. -1.
     999900   -1    0    0    0    0 -0.00000000000E+00 -0.00000000000E+00 -0.74505805969E-08  0.93827000000E+00  0.93827000000E+00 0.  1.
     999902    2    1    2    0    0  0.15816451122E-02  0.55500508776E-02 -0.23471253366E-01  0.10197596793E+01  0.10194731969E+01 0.  0.
     999903    2    3    3    0    0 -0.11351403507E+00  0.62070522618E-02  0.56784325798E-01  0.12864329793E+00  0.20016862633E-01 0.  0.
         14    1    1    2    0    0 -0.15816451122E-02 -0.55500508776E-02  0.23471253366E-01  0.24170320655E-01  0.00000000000E+00 0. -1.
     999901    1    3    3    0    0  0.11509568018E+00 -0.65700138425E-03 -0.80255579164E-01  0.89111638142E+00  0.88000000000E+00 0. -1.
        -11    1    4    4    0    0 -0.69175868594E-01  0.55801512984E-02  0.45152438705E-01  0.82797600969E-01  0.51100000000E-03 0. -1.
         11    1    4    4    0    0 -0.44338166474E-01  0.62690096346E-03  0.11631887093E-01  0.45845696956E-01  0.51100000000E-03 0.  1.
</event>
<event>
 8    1  0.1088270E+005  0.1043930E+01  0.7957747E-01            NaN
         13   -1    0    0    0    0  0.00000000000E+00  0.00000000000E+00  0.74505805969E-08  0.10566000000E+00  0.10566000000E+00 0.  1.
     999900   -1    0    0    0    0 -0.00000000000E+00 -0.00000000000E+00 -0.74505805969E-08  0.93827000000E+00  0.93827000000E+00 0. -1.
     999902    2    1    2    0    0 -0.23161552522E-01  0.13759482155E-02 -0.14178731525E-03  0.10207271801E+01  0.10204634267E+01 0.  0.
     999903    2    3    3    0    0  0.60619669725E-01 -0.10780836358E+00 -0.31922458015E-01  0.12946374081E+00  0.21081490572E-01 0.  0.
         14    1    1    2    0    0  0.23161552522E-01 -0.13759482155E-02  0.14178731525E-03  0.23202819922E-01  0.00000000000E+00 0. -1.
     999901    1    3    3    0    0 -0.83781222247E-01  0.10918431179E+00  0.31780670699E-01  0.89126343927E+00  0.88000000000E+00 0.  1.
        -11    1    4    4    0    0  0.27738767801E-01 -0.55105826226E-01 -0.54439909921E-02  0.61935365358E-01  0.51100000000E-03 0. -1.
         11    1    4    4    0    0  0.32880901925E-01 -0.52702537350E-01 -0.26478467022E-01  0.67528375453E-01  0.51100000000E-03 0.  1.
</event>
<event>
 8    1  0.1088270E+005  0.1043930E+01  0.7957747E-01            NaN
         13   -1    0    0    0    0  0.00000000000E+00  0.00000000000E+00  0.74505805969E-08  0.10566000000E+00  0.10566000000E+00 0. -1.
     999900   -1    0    0    0    0 -0.00000000000E+00 -0.00000000000E+00 -0.74505805969E-08  0.93827000000E+00  0.93827000000E+00 0.  1.
     999902    2    1    2    0    0 -0.10704054830E-01  0.16508502216E-01 -0.10208131848E-01  0.10217644098E+01  0.10215239575E+01 0.  0.
     999903    2    3    3    0    0 -0.33021102133E-01 -0.12359043126E+00  0.47071478191E-02  0.13027788303E+00  0.24190528724E-01 0.  0.
         14    1    1    2    0    0  0.10704054830E-01 -0.16508502216E-01  0.10208131848E-01  0.22165590248E-01  0.00000000000E+00 0. -1.
     999901    1    3    3    0    0  0.22317047302E-01  0.14009893348E+00 -0.14915279667E-01  0.89148652672E+00  0.88000000000E+00 0. -1.
        -11    1    4    4    0    0 -0.15573383784E-01 -0.53856957632E-01  0.14020411083E-01  0.57792172617E-01  0.51100000000E-03 0. -1.
         11    1    4    4    0    0 -0.17447718349E-01 -0.69733473631E-01 -0.93132632640E-02  0.72485710412E-01  0.51100000000E-03 0.  1.
</event>
<event>
 8    1  0.1088270E+005  0.1043930E+01  0.7957747E-01            NaN
         13   -1    0    0    0    0  0.00000000000E+00  0.00000000000E+00  0.74505805969E-08  0.10566000000E+00  0.10566000000E+00 0.  1.
     999900   -1    0    0    0    0 -0.00000000000E+00 -0.00000000000E+00 -0.74505805969E-08  0.93827000000E+00  0.93827000000E+00 0. -1.
     999902    2    1    2    0    0  0.13977619343E-01  0.17782806193E-01  0.65760227662E-02  0.10203748283E+01  0.10201029086E+01 0.  0.
     999903    2    3    3    0    0  0.12045076198E+00 -0.48061799309E-01  0.76438420930E-02  0.13151421919E+00  0.20475324513E-01 0.  0.
         14    1    1    2    0    0 -0.13977619343E-01 -0.17782806193E-01 -0.65760227662E-02  0.23555171704E-01  0.00000000000E+00 0. -1.
     999901    1    3    3    0    0 -0.10647314264E+00  0.65844605502E-01 -0.10678193268E-02  0.88886060910E+00  0.88000000000E+00 0. -1.
        -11    1    4    4    0    0  0.45354173670E-01 -0.83406224113E-02 -0.92751770244E-03  0.46126873530E-01  0.51100000000E-03 0. -1.
         11    1    4    4    0    0  0.75096588308E-01 -0.39721176897E-01  0.85713597955E-02  0.85387345663E-01  0.51100000000E-03 0.  1.
</event>
<event>
 8    1  0.1088270E+005  0.1043930E+01  0.7957747E-01            NaN
         13   -1    0    0    0    0  0.00000000000E+00  0.00000000000E+00  0.74505805969E-08  0.10566000000E+00  0.10566000000E+00 0. -1.
     999900   -1    0    0    0    0 -0.00000000000E+00 -0.00000000000E+00 -0.74505805969E-08  0.93827000000E+00  0.93827000000E+00 0.  1.
     999902    2    1    2    0    0  0.35040084190E-02 -0.17057525235E-01  0.15885783093E-01  0.10203589299E+01  0.10200866387E+01 0.  0.
     999903    2    3    3    0    0 -0.38374993044E-01 -0.47245740396E-01  0.11669010042E+00  0.13310096881E+00  0.19861729138E-01 0.  0.
         14    1    1    2    0    0 -0.35040084190E-02  0.17057525235E-01 -0.15885783093E-01  0.23571070120E-01  0.00000000000E+00 0.  1.
     999901    1    3    3    0    0  0.41879001463E-01  0.30188215161E-01 -0.10080431733E+00  0.88725796107E+00  0.88000000000E+00 0.  1.
        -11    1    4    4    0    0 -0.79225187552E-02 -0.14221472210E-01  0.50847248236E-01  0.53392137524E-01  0.51100000000E-03 0.  1.
         11    1    4    4    0    0 -0.30452474289E-01 -0.33024268187E-01  0.65842852183E-01  0.79708831281E-01  0.51100000000E-03 0. -1.
</event>
<event>
 8    1  0.1088270E+005  0.1043930E+01  0.7957747E-01            NaN
         13   -1    0    0    0    0  0.00000000000E+00  0.00000000000E+00  0.74505805969E-08  0.10566000000E+00  0.10566000000E+00 0. -1.
     999900   -1    0    0    0    0 -0.00000000000E+00 -0.00000000000E+00 -0.74505805969E-08  0.93827000000E+00  0.93827000000E+00 0.  1.
     999902    2    1    2    0    0  0.19376054779E-01  0.19140138689E-02 -0.13533876816E-01  0.10202179615E+01  0.10199423651E+01 0.  0.
     999903    2    3    3    0    0 -0.11566017481E+00 -0.68925343300E-02 -0.52803628141E-01  0.12900841714E+00  0.20740431132E-01 0.  0.
         14    1    1    2    0    0 -0.19376054779E-01 -0.19140138689E-02  0.13533876816E-01  0.23712038494E-01  0.00000000000E+00 0.  1.
     999901    1    3    3    0    0  0.13503622959E+00  0.88065481990E-02  0.39269751325E-01  0.89120954436E+00  0.88000000000E+00 0. -1.
        -11    1    4    4    0    0 -0.55501761980E-01 -0.76398704226E-02 -0.35793045110E-01  0.66484708033E-01  0.51100000000E-03 0. -1.
         11    1    4    4    0    0 -0.60158412826E-01  0.74733609258E-03 -0.17010583031E-01  0.62523709111E-01  0.51100000000E-03 0.  1.
</event>
<event>
 8    1  0.1088270E+005  0.1043930E+01  0.7957747E-01            NaN
         13   -1    0    0    0    0  0.00000000000E+00  0.00000000000E+00  0.74505805969E-08  0.10566000000E+00  0.10566000000E+00 0.  1.
     999900   -1    0    0    0    0 -0.00000000000E+00 -0.00000000000E+00 -0.74505805969E-08  0.93827000000E+00  0.93827000000E+00 0. -1.
     999902    2    1    2    0    0  0.48146721369E-02  0.51856688240E-02  0.21174084430E-01  0.10216048106E+01  0.10213608447E+01 0.  0.
     999903    2    3    3    0    0 -0.64596901811E-01  0.70060964428E-01  0.91515997639E-01  0.13370011117E+00  0.20475435084E-01 0.  0.
         14    1    1    2    0    0 -0.48146721369E-02 -0.51856688240E-02 -0.21174084430E-01  0.22325189369E-01  0.00000000000E+00 0. -1.
     999901    1    3    3    0    0  0.69411573948E-01 -0.64875295604E-01 -0.70341913209E-01  0.88790469946E+00  0.88000000000E+00 0. -1.
        -11    1    4    4    0    0 -0.15047659762E-01  0.29555913878E-01  0.26353963303E-01  0.42364803933E-01  0.51100000000E-03 0.  1.
         11    1    4    4    0    0 -0.49549242049E-01  0.40505050550E-01  0.65162034336E-01  0.91335307233E-01  0.51100000000E-03 0. -1.
</event>
<event>
 8    1  0.1088270E+005  0.1043930E+01  0.7957747E-01            NaN
         13   -1    0    0    0    0  0.00000000000E+00  0.00000000000E+00  0.74505805969E-08  0.10566000000E+00  0.10566000000E+00 0.  1.
     999900   -1    0    0    0    0 -0.00000000000E+00 -0.00000000000E+00 -0.74505805969E-08  0.93827000000E+00  0.93827000000E+00 0.  1.
     999902    2    1    2    0    0 -0.20794348823E-01  0.19718860636E-02  0.10138490665E-01  0.10207118547E+01  0.10204477488E+01 0.  0.
     999903    2    3    3    0    0  0.12613094076E+00 -0.11224183386E-01  0.83929013407E-02  0.12843150412E+00  0.19728505989E-01 0.  0.
         14    1    1    2    0    0  0.20794348823E-01 -0.19718860636E-02 -0.10138490665E-01  0.23218145287E-01  0.00000000000E+00 0.  1.
     999901    1    3    3    0    0 -0.14692528958E+00  0.13196069449E-01  0.17455893246E-02  0.89228035059E+00  0.88000000000E+00 0.  1.
        -11    1    4    4    0    0  0.97139657678E-01 -0.62704887651E-02  0.14417323846E-01  0.98405042915E-01  0.51100000000E-03 0.  1.
         11    1    4    4    0    0  0.28991283082E-01 -0.49536946206E-02 -0.60244225056E-02  0.30026461207E-01  0.51100000000E-03 0. -1.
</event>
<event>
 8    1  0.1088270E+005  0.1043930E+01  0.7957747E-01            NaN
         13   -1    0    0    0    0  0.00000000000E+00  0.00000000000E+00  0.74505805969E-08  0.10566000000E+00  0.10566000000E+00 0.  1.
     999900   -1    0    0    0    0 -0.00000000000E+00 -0.00000000000E+00 -0.74505805969E-08  0.93827000000E+00  0.93827000000E+00 0. -1.
     999902    2    1    2    0    0 -0.39931198480E-02  0.12927790283E-01 -0.19831979403E-01  0.10199220810E+01  0.10196394810E+01 0.  0.
     999903    2    3    3    0    0 -0.73937058397E-01  0.85319705218E-01  0.62193950571E-01  0.13039355584E+00  0.19704091288E-01 0.  0.
         14    1    1    2    0    0  0.39931198480E-02 -0.12927790283E-01  0.19831979403E-01  0.24007919001E-01  0.00000000000E+00 0.  1.
     999901    1    3    3    0    0  0.69943938549E-01 -0.72391914934E-01 -0.82025929973E-01  0.88952852516E+00  0.88000000000E+00 0. -1.
        -11    1    4    4    0    0 -0.26542589209E-01  0.43837829923E-01  0.33127610056E-01  0.61024290600E-01  0.51100000000E-03 0. -1.
         11    1    4    4    0    0 -0.47394469189E-01  0.41481875295E-01  0.29066340515E-01  0.69369265237E-01  0.51100000000E-03 0.  1.
</event>
<event>
 8    1  0.1088270E+005  0.1043930E+01  0.7957747E-01            NaN
         13   -1    0    0    0    0  0.00000000000E+00  0.00000000000E+00  0.74505805969E-08  0.10566000000E+00  0.10566000000E+00 0. -1.
     999900   -1    0    0    0    0 -0.00000000000E+00 -0.00000000000E+00 -0.74505805969E-08  0.93827000000E+00  0.93827000000E+00 0. -1.
     999902    2    1    2    0    0 -0.22204255880E-01 -0.50968906134E-02 -0.58896378118E-02  0.10203992731E+01  0.10201279241E+01 0.  0.
     999903    2    3    3    0    0 -0.18436730247E-01 -0.93082731565E-01 -0.89486820424E-01  0.13206139181E+00  0.20688456683E-01 0.  0.
         14    1    1    2    0    0  0.22204255880E-01  0.50968906134E-02  0.58896378118E-02  0.23530726862E-01  0.00000000000E+00 0. -1.
     999901    1    3    3    0    0 -0.37675256331E-02  0.87985840952E-01  0.83597182612E-01  0.88833788133E+00  0.88000000000E+00 0.  1.
        -11    1    4    4    0    0 -0.11897062593E-02 -0.56448323921E-01 -0.55854166285E-01  0.79421519041E-01  0.51100000000E-03 0.  1.
         11    1    4    4    0    0 -0.17247023987E-01 -0.36634407645E-01 -0.33632654139E-01  0.52639872771E-01  0.51100000000E-03 0. -1.
</event>
<event>
 8    1  0.1088270E+005  0.1043930E+01  0.7957747E-01            NaN
         13   -1    0    0    0    0  0.00000000000E+00  0.00000000000E+00  0.74505805969E-08  0.10566000000E+00  0.10566000000E+00 0.  1.
     999900   -1    0    0    0    0 -0.00000000000E+00 -0.00000000000E+00 -0.74505805969E-08  0.93827000000E+00  0.93827000000E+00 0.  1.
     999902    2    1    2    0    0  0.76130245155E-02 -0.14480276432E-02  0.22177169187E-01  0.10204378362E+01  0.10201673862E+01 0.  0.
     999903    2    3    3    0    0 -0.62507671740E-04 -0.35851239319E-01 -0.12124120910E+00  0.12813109187E+00  0.20804582437E-01 0.  0.
         14    1    1    2    0    0 -0.76130245155E-02  0.14480276432E-02 -0.22177169187E-01  0.23492163789E-01  0.00000000000E+00 0. -1.
     999901    1    3    3    0    0  0.76755321872E-02  0.34403211676E-01  0.14341837829E+00  0.89230674434E+00  0.88000000000E+00 0.  1.
        -11    1    4    4    0    0  0.25485375346E-02 -0.97574892961E-02 -0.68366919223E-01  0.69108613110E-01  0.51100000000E-03 0.  1.
         11    1    4    4    0    0 -0.26110452063E-02 -0.26093750023E-01 -0.52874289882E-01  0.59022478759E-01  0.51100000000E-03 0. -1.
</event>
<event>
 8    1  0.1088270E+005  0.1043930E+01  0.7957747E-01            NaN
         13   -1    0    0    0    0  0.00000000000E+00  0.00000000000E+00  0.74505805969E-08  0.10566000000E+00  0.10566000000E+00 0. -1.
     999900   -1    0    0    0    0 -0.00000000000E+00 -0.00000000000E+00 -0.74505805969E-08  0.93827000000E+00  0.93827000000E+00 0. -1.
     999902    2    1    2    0    0 -0.83801347516E-02  0.81314400387E-02  0.21288870418E-01  0.10196490820E+01  0.10193599401E+01 0.  0.
     999903    2    3    3    0    0  0.75492598934E-01 -0.51308366315E-01 -0.86279149205E-01  0.12715896727E+00  0.19840121514E-01 0.  0.
         14    1    1    2    0    0  0.83801347516E-02 -0.81314400387E-02 -0.21288870418E-01  0.24280918006E-01  0.00000000000E+00 0.  1.
     999901    1    3    3    0    0 -0.83872733685E-01  0.59439806353E-01  0.10756801962E+00  0.89249011472E+00  0.88000000000E+00 0.  1.
        -11    1    4    4    0    0  0.31544297184E-01 -0.32246621384E-01 -0.36053816749E-01  0.57749684836E-01  0.51100000000E-03 0. -1.
         11    1    4    4    0    0  0.43948301749E-01 -0.19061744931E-01 -0.50225332457E-01  0.69409282433E-01  0.51100000000E-03 0.  1.
</event>
<event>
 8    1  0.1088270E+005  0.1043930E+01  0.7957747E-01            NaN
         13   -1    0    0    0    0  0.00000000000E+00  0.00000000000E+00  0.74505805969E-08  0.10566000000E+00  0.10566000000E+00 0.  1.
     999900   -1    0    0    0    0 -0.00000000000E+00 -0.00000000000E+00 -0.74505805969E-08  0.93827000000E+00  0.93827000000E+00 0.  1.
     999902    2    1    2    0    0  0.10924424010E-02 -0.17379773664E-01  0.17203672462E-01  0.10194511048E+01  0.10191571708E+01 0.  0.
     999903    2    3    3    0    0  0.12198804746E+00  0.24850839075E-01 -0.27539255568E-01  0.12905731465E+00  0.19968273348E-01 0.  0.
         14    1    1    2    0    0 -0.10924424010E-02  0.17379773664E-01 -0.17203672462E-01  0.24478895179E-01  0.00000000000E+00 0. -1.
     999901    1    3    3    0    0 -0.12089560506E+00 -0.42230612739E-01  0.44742928030E-01  0.89039379018E+00  0.88000000000E+00 0. -1.
        -11    1    4    4    0    0  0.74086790350E-01  0.15919418046E-01 -0.26620059175E-01  0.80319169859E-01  0.51100000000E-03 0.  1.
         11    1    4    4    0    0  0.47901257109E-01  0.89314210290E-02 -0.91919639371E-03  0.48738144787E-01  0.51100000000E-03 0. -1.
</event>
<event>
 8    1  0.1088270E+005  0.1043930E+01  0.7957747E-01            NaN
         13   -1    0    0    0    0  0.00000000000E+00  0.00000000000E+00  0.74505805969E-08  0.10566000000E+00  0.10566000000E+00 0. -1.
     999900   -1    0    0    0    0 -0.00000000000E+00 -0.00000000000E+00 -0.74505805969E-08  0.93827000000E+00  0.93827000000E+00 0.  1.
     999902    2    1    2    0    0  0.23299123508E-01  0.77020331124E-03  0.11644155361E-02  0.10205890867E+01  0.10203221480E+01 0.  0.
     999903    2    3    3    0    0 -0.47408968942E-01  0.59108252454E-01 -0.10333714639E+00  0.12967745319E+00  0.19906787685E-01 0.  0.
         14    1    1    2    0    0 -0.23299123508E-01 -0.77020331124E-03 -0.11644155361E-02  0.23340913283E-01  0.00000000000E+00 0. -1.
     999901    1    3    3    0    0  0.70708092450E-01 -0.58338049143E-01  0.10450156193E+00  0.89091163353E+00  0.88000000000E+00 0. -1.
        -11    1    4    4    0    0  0.10971416727E-02  0.31692528456E-02 -0.13594622139E-02  0.36547423932E-02  0.51100000000E-03 0.  1.
         11    1    4    4    0    0 -0.48506110615E-01  0.55938999609E-01 -0.10197768418E+00  0.12602271079E+00  0.51100000000E-03 0. -1.
</event>
<event>
 8    1  0.1088270E+005  0.1043930E+01  0.7957747E-01            NaN
         13   -1    0    0    0    0  0.00000000000E+00  0.00000000000E+00  0.74505805969E-08  0.10566000000E+00  0.10566000000E+00 0.  1.
     999900   -1    0    0    0    0 -0.00000000000E+00 -0.00000000000E+00 -0.74505805969E-08  0.93827000000E+00  0.93827000000E+00 0.  1.
     999902    2    1    2    0    0 -0.94393007488E-02  0.13252677363E-01  0.17311828228E-01  0.10201721960E+01  0.10198955222E+01 0.  0.
     999903    2    3    3    0    0  0.48096899291E-01  0.10793550208E-01 -0.11652012143E+00  0.12819268254E+00  0.20654605097E-01 0.  0.
         14    1    1    2    0    0  0.94393007488E-02 -0.13252677363E-01 -0.17311828228E-01  0.23757804034E-01  0.00000000000E+00 0. -1.
     999901    1    3    3    0    0 -0.57536200040E-01  0.24591271550E-02  0.13383194966E+00  0.89197951343E+00  0.88000000000E+00 0. -1.
        -11    1    4    4    0    0  0.37696197415E-02  0.81264333633E-02 -0.17357180930E-01  0.19539237524E-01  0.51100000000E-03 0. -1.
         11    1    4    4    0    0  0.44327279550E-01  0.26671168443E-02 -0.99162940499E-01  0.10865344502E+00  0.51100000000E-03 0.  1.
</event>
<event>
 8    1  0.1088270E+005  0.1043930E+01  0.7957747E-01            NaN
         13   -1    0    0    0    0  0.00000000000E+00  0.00000000000E+00  0.74505805969E-08  0.10566000000E+00  0.10566000000E+00 0.  1.
     999900   -1    0    0    0    0 -0.00000000000E+00 -0.00000000000E+00 -0.74505805969E-08  0.93827000000E+00  0.93827000000E+00 0.  1.
     999902    2    1    2    0    0 -0.13145323096E-01 -0.14231514879E-01  0.15620603987E-01  0.10190434815E+01  0.10187395537E+01 0.  0.
     999903    2    3    3    0    0  0.98414627200E-01  0.77705853946E-01 -0.45663122522E-02  0.12702015562E+00  0.19739051180E-01 0.  0.
         14    1    1    2    0    0  0.13145323096E-01  0.14231514879E-01 -0.15620603987E-01  0.24886518518E-01  0.00000000000E+00 0. -1.
     999901    1    3    3    0    0 -0.11155995030E+00 -0.91937368825E-01  0.20186916239E-01  0.89202332586E+00  0.88000000000E+00 0.  1.
        -11    1    4    4    0    0  0.53605124609E-01  0.33163929186E-01  0.44652152477E-02  0.63194579290E-01  0.51100000000E-03 0.  1.
         11    1    4    4    0    0  0.44809502591E-01  0.44541924759E-01 -0.90315274999E-02  0.63825576329E-01  0.51100000000E-03 0. -1.
</event>
<event>
 8    1  0.1088270E+005  0.1043930E+01  0.7957747E-01            NaN
         13   -1    0    0    0    0  0.00000000000E+00  0.00000000000E+00  0.74505805969E-08  0.10566000000E+00  0.10566000000E+00 0. -1.
     999900   -1    0    0    0    0 -0.00000000000E+00 -0.00000000000E+00 -0.74505805969E-08  0.93827000000E+00  0.93827000000E+00 0. -1.
     999902    2    1    2    0    0 -0.18849922234E-01 -0.31345728139E-02  0.14322543196E-01  0.10200494565E+01  0.10197698825E+01 0.  0.
     999903    2    3    3    0    0  0.10211836466E+00  0.74646540290E-01  0.77037742834E-02  0.12835049602E+00  0.20352771626E-01 0.  0.
         14    1    1    2    0    0  0.18849922234E-01  0.31345728139E-02 -0.14322543196E-01  0.23880543515E-01  0.00000000000E+00 0.  1.
     999901    1    3    3    0    0 -0.12096828689E+00 -0.77781113104E-01  0.66187689128E-02  0.89169896046E+00  0.88000000000E+00 0.  1.
        -11    1    4    4    0    0  0.26928496937E-01  0.10986681577E-01 -0.30359995710E-02  0.29246017400E-01  0.51100000000E-03 0.  1.
         11    1    4    4    0    0  0.75189867723E-01  0.63659858713E-01  0.10739773854E-01  0.99104478622E-01  0.51100000000E-03 0. -1.
</event>
<event>
 8    1  0.1088270E+005  0.1043930E+01  0.7957747E-01            NaN
         13   -1    0    0    0    0  0.00000000000E+00  0.00000000000E+00  0.74505805969E-08  0.10566000000E+00  0.10566000000E+00 0.  1.
     999900   -1    0    0    0    0 -0.00000000000E+00 -0.00000000000E+00 -0.74505805969E-08  0.93827000000E+00  0.93827000000E+00 0. -1.
     999902    2    1    2    0    0  0.14682457694E-01  0.26781604932E-02 -0.17505834816E-01  0.10209256230E+01  0.10206664129E+01 0.  0.
     999903    2    3    3    0    0  0.56497000118E-01 -0.34815919541E-01  0.10991252555E+00  0.12997685875E+00  0.20227734971E-01 0.  0.
         14    1    1    2    0    0 -0.14682457694E-01 -0.26781604932E-02  0.17505834816E-01  0.23004376978E-01  0.00000000000E+00 0.  1.
     999901    1    3    3    0    0 -0.41814542425E-01  0.37494080034E-01 -0.12741836037E+00  0.89094876427E+00  0.88000000000E+00 0. -1.
        -11    1    4    4    0    0  0.32615787009E-01 -0.10236638065E-01  0.65409036143E-01  0.73805023211E-01  0.51100000000E-03 0.  1.
         11    1    4    4    0    0  0.23881213110E-01 -0.24579281476E-01  0.44503489409E-01  0.56171835541E-01  0.51100000000E-03 0. -1.
</event>
<event>
 8    1  0.1088270E+005  0.1043930E+01  0.7957747E-01            NaN
         13   -1    0    0    0    0  0.00000000000E+00  0.00000000000E+00  0.74505805969E-08  0.10566000000E+00  0.10566000000E+00 0.  1.
     999900   -1    0    0    0    0 -0.00000000000E+00 -0.00000000000E+00 -0.74505805969E-08  0.93827000000E+00  0.93827000000E+00 0. -1.
     999902    2    1    2    0    0  0.38810684911E-02 -0.16962741133E-01 -0.16538343457E-01  0.10199234575E+01  0.10196408902E+01 0.  0.
     999903    2    3    3    0    0 -0.16568045204E-02  0.10360871197E+00 -0.75451157860E-01  0.12973310534E+00  0.20007278709E-01 0.  0.
         14    1    1    2    0    0 -0.38810684911E-02  0.16962741133E-01  0.16538343457E-01  0.24006542518E-01  0.00000000000E+00 0.  1.
     999901    1    3    3    0    0  0.55378730115E-02 -0.12057145311E+00  0.58912814403E-01  0.89019035214E+00  0.88000000000E+00 0.  1.
        -11    1    4    4    0    0 -0.79868766412E-02  0.91467225783E-01 -0.66427930724E-01  0.11332684895E+00  0.51100000000E-03 0. -1.
         11    1    4    4    0    0  0.63300721208E-02  0.12141486190E-01 -0.90232271365E-02  0.16406256395E-01  0.51100000000E-03 0.  1.
</event>
<event>
 8    1  0.1088270E+005  0.1043930E+01  0.7957747E-01            NaN
         13   -1    0    0    0    0  0.00000000000E+00  0.00000000000E+00  0.74505805969E-08  0.10566000000E+00  0.10566000000E+00 0. -1.
     999900   -1    0    0    0    0 -0.00000000000E+00 -0.00000000000E+00 -0.74505805969E-08  0.93827000000E+00  0.93827000000E+00 0.  1.
     999902    2    1    2    0    0 -0.97427444619E-02 -0.74913425361E-02  0.19852811595E-01  0.10205810084E+01  0.10203138827E+01 0.  0.
     999903    2    3    3    0    0 -0.68389302647E-01 -0.43771135496E-01  0.10436829998E+00  0.13384626225E+00  0.20714025650E-01 0.  0.
         14    1    1    2    0    0  0.97427444619E-02  0.74913425361E-02 -0.19852811595E-01  0.23348991645E-01  0.00000000000E+00 0.  1.
     999901    1    3    3    0    0  0.58646558185E-01  0.36279792960E-01 -0.84515488390E-01  0.88673474610E+00  0.88000000000E+00 0. -1.
        -11    1    4    4    0    0 -0.42942737905E-01 -0.38584460598E-01  0.69069821414E-01  0.90020779210E-01  0.51100000000E-03 0. -1.
         11    1    4    4    0    0 -0.25446564742E-01 -0.51866748977E-02  0.35298478571E-01  0.43825483044E-01  0.51100000000E-03 0.  1.
</event>
<event>
 8    1  0.1088270E+005  0.1043930E+01  0.7957747E-01            NaN
         13   -1    0    0    0    0  0.00000000000E+00  0.00000000000E+00  0.74505805969E-08  0.10566000000E+00  0.10566000000E+00 0.  1.
     999900   -1    0    0    0    0 -0.00000000000E+00 -0.00000000000E+00 -0.74505805969E-08  0.93827000000E+00  0.93827000000E+00 0. -1.
     999902    2    1    2    0    0 -0.64167123965E-02  0.15684601273E-01 -0.16878399940E-01  0.10200121970E+01  0.10197317396E+01 0.  0.
     999903    2    3    3    0    0  0.12194171020E-01 -0.12368007382E+00  0.24415074219E-01  0.12789447572E+00  0.17760703909E-01 0.  0.
         14    1    1    2    0    0  0.64167123965E-02 -0.15684601273E-01  0.16878399940E-01  0.23917802985E-01  0.00000000000E+00 0.  1.
     999901    1    3    3    0    0 -0.18610883416E-01  0.13936467509E+00 -0.41293474159E-01  0.89211772130E+00  0.88000000000E+00 0.  1.
        -11    1    4    4    0    0  0.41603380209E-02 -0.62549037703E-01  0.21106110532E-01  0.66146954222E-01  0.51100000000E-03 0.  1.
         11    1    4    4    0    0  0.80338329988E-02 -0.61131036116E-01  0.33089636873E-02  0.61747521496E-01  0.51100000000E-03 0. -1.
</event>
<event>
 8    1  0.1088270E+005  0.1043930E+01  0.7957747E-01            NaN
         13   -1    0    0    0    0  0.00000000000E+00  0.00000000000E+00  0.74505805969E-08  0.10566000000E+00  0.10566000000E+00 0.  1.
     999900   -1    0    0    0    0 -0.00000000000E+00 -0.00000000000E+00 -0.74505805969E-08  0.93827000000E+00  0.93827000000E+00 0. -1.
     999902    2    1    2    0    0 -0.16189206038E-01  0.15352332068E-01 -0.77185949700E-02  0.10203215015E+01  0.10200483348E+01 0.  0.
     999903    2    3    3    0    0  0.10795691542E+00  0.68878990583E-01  0.66856122881E-02  0.12988068719E+00  0.20622428635E-01 0.  0.
         14    1    1    2    0    0  0.16189206038E-01 -0.15352332068E-01  0.77185949700E-02  0.23608498478E-01  0.00000000000E+00 0. -1.
     999901    1    3    3    0    0 -0.12414612146E+00 -0.53526658515E-01 -0.14404207258E-01  0.89044081433E+00  0.88000000000E+00 0. -1.
        -11    1    4    4    0    0  0.10608038562E+00  0.68088949228E-01  0.94530348740E-02  0.12640717626E+00  0.51100000000E-03 0. -1.
         11    1    4    4    0    0  0.18765298006E-02  0.79004135542E-03 -0.27674225859E-02  0.34735109334E-02  0.51100000000E-03 0.  1.
</event>
<event>
 8    1  0.1088270E+005  0.1043930E+01  0.7957747E-01            NaN
         13   -1    0    0    0    0  0.00000000000E+00  0.00000000000E+00  0.74505805969E-08  0.10566000000E+00  0.10566000000E+00 0.  1.
     999900   -1    0    0    0    0 -0.00000000000E+00 -0.00000000000E+00 -0.74505805969E-08  0.93827000000E+00  0.93827000000E+00 0.  1.
     999902    2    1    2    0    0  0.13586130224E-01 -0.15638456024E-01  0.91059733262E-02  0.10213011911E+01  0.10210504689E+01 0.  0.
     999903    2    3    3    0    0  0.75771002064E-01 -0.10803144106E-01  0.10649294869E+00  0.13373453925E+00  0.26195919367E-01 0.  0.
         14    1    1    2    0    0 -0.13586130224E-01  0.15638456024E-01 -0.91059733262E-02  0.22628808883E-01  0.00000000000E+00 0. -1.
     999901    1    3    3    0    0 -0.62184871840E-01 -0.48353119172E-02 -0.97386975369E-01  0.88756665186E+00  0.88000000000E+00 0.  1.
        -11    1    4    4    0    0  0.50245646016E-01 -0.19113856039E-01  0.76197030586E-01  0.93253488018E-01  0.51100000000E-03 0. -1.
         11    1    4    4    0    0  0.25525356047E-01  0.83107119325E-02  0.30295918109E-01  0.40481051236E-01  0.51100000000E-03 0.  1.
</event>
<event>
 8    1  0.1088782E+005  0.1043930E+01  0.7957747E-01            NaN
         13   -1    0    0    0    0  0.00000000000E+00  0.00000000000E+00  0.74505805969E-08  0.10566000000E+00  0.10566000000E+00 0. -1.
     999900   -1    0    0    0    0 -0.00000000000E+00 -0.00000000000E+00 -0.74505805969E-08  0.93827000000E+00  0.93827000000E+00 0. -1.
     999902    2    1    2    0    0  0.89951008980E-02 -0.11361338247E-01 -0.19428772106E-01  0.10196922395E+01  0.10194041369E+01 0.  0.
     999903    2    3    3    0    0 -0.57410362929E-01 -0.52113764025E-01 -0.10551255589E+00  0.13206570564E+00  0.17223733200E-01 0.  0.
         14    1    1    2    0    0 -0.89951008980E-02  0.11361338247E-01  0.19428772106E-01  0.24237760468E-01  0.00000000000E+00 0. -1.
     999901    1    3    3    0    0  0.66405463827E-01  0.40752425778E-01  0.86083783779E-01  0.88762653389E+00  0.88000000000E+00 0.  1.
        -11    1    4    4    0    0 -0.37408893819E-01 -0.22618258025E-01 -0.60800596240E-01  0.74886477798E-01  0.51100000000E-03 0. -1.
         11    1    4    4    0    0 -0.20001469109E-01 -0.29495506000E-01 -0.44711959645E-01  0.57179227846E-01  0.51100000000E-03 0.  1.
</event>
<event>
 7    1  0.1088270E+005  0.1043930E+01  0.7957747E-01            NaN
         13   -1    0    0    0    0  0.00000000000E+00  0.00000000000E+00  0.74505805969E-08  0.10566000000E+00  0.10566000000E+00 0. -1.
     999900   -1    0    0    0    0 -0.00000000000E+00 -0.00000000000E+00 -0.74505805969E-08  0.93827000000E+00  0.93827000000E+00 0. -1.
     999903    2    1    2    0    0 -0.65324085205E-02 -0.10326225037E-01  0.74975474574E-01  0.77498185030E-01  0.15340912971E-01 0.  0.
         14    1    1    2    0    0  0.75364366151E-01  0.27192237529E-01 -0.15304590412E-01  0.81568596622E-01  0.00000000000E+00 0. -1.
     999901    1    1    2    0    0 -0.68831957631E-01 -0.16866012491E-01 -0.59670884162E-01  0.88486321835E+00  0.88000000000E+00 0. -1.
        -11    1    3    3    0    0 -0.29396027455E-02 -0.13517345708E-01  0.43374717169E-01  0.45530068195E-01  0.51100000000E-03 0.  1.
         11    1    3    3    0    0 -0.35928057749E-02  0.31911206706E-02  0.31600757405E-01  0.31968116836E-01  0.51100000000E-03 0. -1.
</event>
<event>
 8    1  0.1088270E+005  0.1043930E+01  0.7957747E-01            NaN
         13   -1    0    0    0    0  0.00000000000E+00  0.00000000000E+00  0.74505805969E-08  0.10566000000E+00  0.10566000000E+00 0. -1.
     999900   -1    0    0    0    0 -0.00000000000E+00 -0.00000000000E+00 -0.74505805969E-08  0.93827000000E+00  0.93827000000E+00 0. -1.
     999902    2    1    2    0    0  0.40115888857E-02  0.10525134892E-02  0.26904877594E-01  0.10167073427E+01  0.10163428298E+01 0.  0.
     999903    2    3    3    0    0  0.10969683940E+00 -0.39146045280E-02  0.66036321592E-01  0.12950651184E+00  0.19037335311E-01 0.  0.
         14    1    1    2    0    0 -0.40115888857E-02 -0.10525134892E-02 -0.26904877594E-01  0.27222657261E-01  0.00000000000E+00 0.  1.
     999901    1    3    3    0    0 -0.10568525052E+00  0.49671180173E-02 -0.39131443998E-01  0.88720083090E+00  0.88000000000E+00 0.  1.
        -11    1    4    4    0    0  0.58707808547E-01 -0.31327303086E-02  0.46251248904E-01  0.74805480613E-01  0.51100000000E-03 0. -1.
         11    1    4    4    0    0  0.50989030856E-01 -0.78187421945E-03  0.19785072688E-01  0.54701031226E-01  0.51100000000E-03 0.  1.
</event>
<event>
 8    1  0.1088270E+005  0.1043930E+01  0.7957747E-01            NaN
         13   -1    0    0    0    0  0.00000000000E+00  0.00000000000E+00  0.74505805969E-08  0.10566000000E+00  0.10566000000E+00 0.  1.
     999900   -1    0    0    0    0 -0.00000000000E+00 -0.00000000000E+00 -0.74505805969E-08  0.93827000000E+00  0.93827000000E+00 0. -1.
     999902    2    1    2    0    0  0.85508704424E-03 -0.18840993841E-01 -0.43113541710E-02  0.10245831140E+01  0.10244004371E+01 0.  0.
     999903    2    3    3    0    0  0.55736011356E-01 -0.33726990830E-01  0.11610779455E+00  0.13456385571E+00  0.19555010559E-01 0.  0.
         14    1    1    2    0    0 -0.85508704424E-03  0.18840993841E-01  0.43113541710E-02  0.19346885991E-01  0.00000000000E+00 0.  1.
     999901    1    3    3    0    0 -0.54880924312E-01  0.14885996989E-01 -0.12041914872E+00  0.89001925830E+00  0.88000000000E+00 0.  1.
        -11    1    4    4    0    0  0.46385293605E-01 -0.18723913804E-01  0.79908754586E-01  0.94275397594E-01  0.51100000000E-03 0. -1.
         11    1    4    4    0    0  0.93507177516E-02 -0.15003077025E-01  0.36199039959E-01  0.40288458120E-01  0.51100000000E-03 0.  1.
</event>
<event>
 8    1  0.1088270E+005  0.1043930E+01  0.7957747E-01            NaN
         13   -1    0    0    0    0  0.00000000000E+00  0.00000000000E+00  0.74505805969E-08  0.10566000000E+00  0.10566000000E+00 0.  1.
     999900   -1    0    0    0    0 -0.00000000000E+00 -0.00000000000E+00 -0.74505805969E-08  0.93827000000E+00  0.93827000000E+00 0.  1.
     999902    2    1    2    0    0  0.87264000859E-03 -0.15763952732E-01  0.17573981063E-01  0.10203056796E+01  0.10200321422E+01 0.  0.
     999903    2    3    3    0    0  0.90757184140E-01  0.78122937939E-01  0.47244534886E-01  0.13026392700E+00  0.19914434370E-01 0.  0.
         14    1    1    2    0    0 -0.87264000859E-03  0.15763952732E-01 -0.17573981063E-01  0.23624320450E-01  0.00000000000E+00 0. -1.
     999901    1    3    3    0    0 -0.89884544131E-01 -0.93886890671E-01 -0.29670553823E-01  0.89004175255E+00  0.88000000000E+00 0. -1.
        -11    1    4    4    0    0  0.27352864401E-01  0.35725900605E-01  0.20362947462E-01  0.49390585290E-01  0.51100000000E-03 0.  1.
         11    1    4    4    0    0  0.63404319739E-01  0.42397037335E-01  0.26881587424E-01  0.80873341713E-01  0.51100000000E-03 0. -1.
</event>
<event>
 8    1  0.1088270E+005  0.1043930E+01  0.7957747E-01            NaN
         13   -1    0    0    0    0  0.00000000000E+00  0.00000000000E+00  0.74505805969E-08  0.10566000000E+00  0.10566000000E+00 0. -1.
     999900   -1    0    0    0    0 -0.00000000000E+00 -0.00000000000E+00 -0.74505805969E-08  0.93827000000E+00  0.93827000000E+00 0. -1.
     999902    2    1    2    0    0  0.10288955857E-02  0.60459374580E-02 -0.22834223610E-01  0.10202865283E+01  0.10200125421E+01 0.  0.
     999903    2    3    3    0    0 -0.74334239610E-01  0.27440370293E-01 -0.10499559095E+00  0.13299412206E+00  0.19616556366E-01 0.  0.
         14    1    1    2    0    0 -0.10288955857E-02 -0.60459374580E-02  0.22834223610E-01  0.23643471694E-01  0.00000000000E+00 0. -1.
     999901    1    3    3    0    0  0.75363135196E-01 -0.21394432835E-01  0.82161367336E-01  0.88729240625E+00  0.88000000000E+00 0.  1.
        -11    1    4    4    0    0 -0.26132467641E-01  0.10580305465E-01 -0.53465708667E-01  0.60445776139E-01  0.51100000000E-03 0. -1.
         11    1    4    4    0    0 -0.48201771969E-01  0.16860064828E-01 -0.51529882279E-01  0.72548345920E-01  0.51100000000E-03 0.  1.
</event>
<event>
 8    1  0.1088270E+005  0.1043930E+01  0.7957747E-01            NaN
         13   -1    0    0    0    0  0.00000000000E+00  0.00000000000E+00  0.74505805969E-08  0.10566000000E+00  0.10566000000E+00 0. -1.
     999900   -1    0    0    0    0 -0.00000000000E+00 -0.00000000000E+00 -0.74505805969E-08  0.93827000000E+00  0.93827000000E+00 0. -1.
     999902    2    1    2    0    0 -0.17657757435E-01 -0.95651129892E-02  0.10755254302E-01  0.10211492344E+01  0.10208950954E+01 0.  0.
     999903    2    3    3    0    0  0.11883571826E+00 -0.20748130593E-01  0.43928504403E-01  0.12993882533E+00  0.20049238712E-01 0.  0.
         14    1    1    2    0    0  0.17657757435E-01  0.95651129892E-02 -0.10755254302E-01  0.22780765555E-01  0.00000000000E+00 0.  1.
     999901    1    3    3    0    0 -0.13649347569E+00  0.11183017604E-01 -0.33173250101E-01  0.89121040911E+00  0.88000000000E+00 0.  1.
        -11    1    4    4    0    0  0.95529555330E-02 -0.61603900773E-02  0.34498574350E-03  0.11383738467E-01  0.51100000000E-03 0. -1.
         11    1    4    4    0    0  0.10928276272E+00 -0.14587740516E-01  0.43583518660E-01  0.11855508687E+00  0.51100000000E-03 0.  1.
</event>
<event>
 8    1  0.1104933E+005  0.1043930E+01  0.7957747E-01            NaN
         13   -1    0    0    0    0  0.00000000000E+00  0.00000000000E+00  0.74505805969E-08  0.10566000000E+00  0.10566000000E+00 0.  1.
     999900   -1    0    0    0    0 -0.00000000000E+00 -0.00000000000E+00 -0.74505805969E-08  0.93827000000E+00  0.93827000000E+00 0. -1.
     999902    2    1    2    0    0 -0.98244784357E-02 -0.18141113145E-01 -0.12445637049E-01  0.10198361368E+01  0.10195514855E+01 0.  0.
     999903    2    3    3    0    0 -0.54098634732E-01 -0.11010913827E+00  0.44877577096E-01  0.13208376736E+00  0.19530490569E-01 0.  0.
         14    1    1    2    0    0  0.98244784357E-02  0.18141113145E-01  0.12445637049E-01  0.24093863207E-01  0.00000000000E+00 0.  1.
     999901    1    3    3    0    0  0.44274156297E-01  0.91968025128E-01 -0.57323214145E-01  0.88775236944E+00  0.88000000000E+00 0. -1.
        -11    1    4    4    0    0 -0.36708540290E-01 -0.54689062387E-01  0.28191398286E-01  0.71647934606E-01  0.51100000000E-03 0. -1.
         11    1    4    4    0    0 -0.17390094442E-01 -0.55420075885E-01  0.16686178810E-01  0.60435832749E-01  0.51100000000E-03 0.  1.
</event>
<event>
 8    1  0.1088270E+005  0.1043930E+01  0.7957747E-01            NaN
         13   -1    0    0    0    0  0.00000000000E+00  0.00000000000E+00  0.74505805969E-08  0.10566000000E+00  0.10566000000E+00 0. -1.
     999900   -1    0    0    0    0 -0.00000000000E+00 -0.00000000000E+00 -0.74505805969E-08  0.93827000000E+00  0.93827000000E+00 0.  1.
     999902    2    1    2    0    0 -0.43170506693E-02 -0.19407012940E-01  0.13616490361E-01  0.10198327411E+01  0.10195480086E+01 0.  0.
     999903    2    3    3    0    0 -0.51290196186E-01  0.43895955950E-01 -0.10709509382E+00  0.12810126310E+00  0.19571287996E-01 0.  0.
         14    1    1    2    0    0  0.43170506693E-02  0.19407012940E-01 -0.13616490361E-01  0.24097258921E-01  0.00000000000E+00 0. -1.
     999901    1    3    3    0    0  0.46973145516E-01 -0.63302968890E-01  0.12071158418E+00  0.89173147798E+00  0.88000000000E+00 0. -1.
        -11    1    4    4    0    0 -0.61997639558E-02  0.14614474692E-01 -0.17688647767E-01  0.23773290148E-01  0.51100000000E-03 0. -1.
         11    1    4    4    0    0 -0.45090432230E-01  0.29281481257E-01 -0.89406446050E-01  0.10432797295E+00  0.51100000000E-03 0.  1.
</event>
<event>
 8    1  0.1088270E+005  0.1043930E+01  0.7957747E-01            NaN
         13   -1    0    0    0    0  0.00000000000E+00  0.00000000000E+00  0.74505805969E-08  0.10566000000E+00  0.10566000000E+00 0. -1.
     999900   -1    0    0    0    0 -0.00000000000E+00 -0.00000000000E+00 -0.74505805969E-08  0.93827000000E+00  0.93827000000E+00 0.  1.
     999902    2    1    2    0    0  0.12446079003E-01  0.19947856246E-02  0.18751905927E-01  0.10213353540E+01  0.10210853967E+01 0.  0.
     999903    2    3    3    0    0 -0.61084594690E-01  0.10600098160E+00 -0.39938843325E-01  0.13023005560E+00  0.19930388059E-01 0.  0.
         14    1    1    2    0    0 -0.12446079003E-01 -0.19947856246E-02 -0.18751905927E-01  0.22594646006E-01  0.00000000000E+00 0.  1.
     999901    1    3    3    0    0  0.73530673693E-01 -0.10400619597E+00  0.58690749252E-01  0.89110529839E+00  0.88000000000E+00 0.  1.
        -11    1    4    4    0    0 -0.20405689063E-01  0.54639353600E-01 -0.16128211468E-01  0.60516373273E-01  0.51100000000E-03 0.  1.
         11    1    4    4    0    0 -0.40678905627E-01  0.51361627996E-01 -0.23810631857E-01  0.69713682329E-01  0.51100000000E-03 0. -1.
</event>
<event>
 8    1  0.1088270E+005  0.1043930E+01  0.7957747E-01            NaN
         13   -1    0    0    0    0  0.00000000000E+00  0.00000000000E+00  0.74505805969E-08  0.10566000000E+00  0.10566000000E+00 0. -1.
     999900   -1    0    0    0    0 -0.00000000000E+00 -0.00000000000E+00 -0.74505805969E-08  0.93827000000E+00  0.93827000000E+00 0.  1.
     999902    2    1    2    0    0  0.48388708030E-02  0.10610653713E-01  0.19710767178E-01  0.10210277079E+01  0.10207708191E+01 0.  0.
     999903    2    3    3    0    0  0.82598820007E-02  0.11510463007E+00 -0.59383734325E-01  0.13131616214E+00  0.20005124900E-01 0.  0.
         14    1    1    2    0    0 -0.48388708030E-02 -0.10610653713E-01 -0.19710767178E-01  0.22902292148E-01  0.00000000000E+00 0.  1.
     999901    1    3    3    0    0 -0.34210111977E-02 -0.10449397635E+00  0.79094501503E-01  0.88971154572E+00  0.88000000000E+00 0. -1.
        -11    1    4    4    0    0  0.14514067196E-01  0.72331866029E-01 -0.40244431734E-01  0.84038279352E-01  0.51100000000E-03 0.  1.
         11    1    4    4    0    0 -0.62541851950E-02  0.42772764038E-01 -0.19139302591E-01  0.47277882785E-01  0.51100000000E-03 0. -1.
</event>
<event>
 8    1  0.1088270E+005  0.1043930E+01  0.7957747E-01            NaN
         13   -1    0    0    0    0  0.00000000000E+00  0.00000000000E+00  0.74505805969E-08  0.10566000000E+00  0.10566000000E+00 0. -1.
     999900   -1    0    0    0    0 -0.00000000000E+00 -0.00000000000E+00 -0.74505805969E-08  0.93827000000E+00  0.93827000000E+00 0. -1.
     999902    2    1    2    0    0  0.14181082772E-01  0.10898222674E-01 -0.14950559707E-01  0.10206191956E+01  0.10203529531E+01 0.  0.
     999903    2    3    3    0    0  0.51023824934E-01 -0.48415114889E-01  0.10676282548E+00  0.12950213943E+00  0.20616720252E-01 0.  0.
         14    1    1    2    0    0 -0.14181082772E-01 -0.10898222674E-01  0.14950559707E-01  0.23310804396E-01  0.00000000000E+00 0.  1.
     999901    1    3    3    0    0 -0.36842742162E-01  0.59313337563E-01 -0.12171338518E+00  0.89111705617E+00  0.88000000000E+00 0. -1.
        -11    1    4    4    0    0  0.17375582153E-02 -0.11430121920E-01  0.14481126165E-01  0.18537284906E-01  0.51100000000E-03 0.  1.
         11    1    4    4    0    0  0.49286266719E-01 -0.36984992969E-01  0.92281699311E-01  0.11096485453E+00  0.51100000000E-03 0. -1.
</event>
<event>
 8    1  0.1088270E+005  0.1043930E+01  0.7957747E-01            NaN
         13   -1    0    0    0    0  0.00000000000E+00  0.00000000000E+00  0.74505805969E-08  0.10566000000E+00  0.10566000000E+00 0. -1.
     999900   -1    0    0    0    0 -0.00000000000E+00 -0.00000000000E+00 -0.74505805969E-08  0.93827000000E+00  0.93827000000E+00 0. -1.
     999902    2    1    2    0    0  0.44072814694E-02 -0.22332940062E-03  0.23698785134E-01  0.10198238509E+01  0.10195389058E+01 0.  0.
     999903    2    3    3    0    0 -0.15477603445E-01 -0.93120365596E-01  0.90446494382E-01  0.13219750800E+00  0.19612599983E-01 0.  0.
         14    1    1    2    0    0 -0.44072814694E-02  0.22332940062E-03 -0.23698785134E-01  0.24106149066E-01  0.00000000000E+00 0.  1.
     999901    1    3    3    0    0  0.19884884915E-01  0.92897036195E-01 -0.66747709248E-01  0.88762634293E+00  0.88000000000E+00 0. -1.
        -11    1    4    4    0    0 -0.92744410621E-02 -0.25113529494E-01  0.35957907361E-01  0.44832319184E-01  0.51100000000E-03 0. -1.
         11    1    4    4    0    0 -0.62031623832E-02 -0.68006836102E-01  0.54488587021E-01  0.87365188815E-01  0.51100000000E-03 0.  1.
</event>
<event>
 8    1  0.1088270E+005  0.1043930E+01  0.7957747E-01            NaN
         13   -1    0    0    0    0  0.00000000000E+00  0.00000000000E+00  0.74505805969E-08  0.10566000000E+00  0.10566000000E+00 0. -1.
     999900   -1    0    0    0    0 -0.00000000000E+00 -0.00000000000E+00 -0.74505805969E-08  0.93827000000E+00  0.93827000000E+00 0. -1.
     999902    2    1    2    0    0  0.15505907841E-01 -0.35526322984E-02  0.18509988676E-01  0.10195235653E+01  0.10192313899E+01 0.  0.
     999903    2    3    3    0    0  0.30481590301E-01  0.88000509194E-01 -0.86161312342E-01  0.12847792671E+00  0.20238303829E-01 0.  0.
         14    1    1    2    0    0 -0.15505907841E-01  0.35526322984E-02 -0.18509988676E-01  0.24406434705E-01  0.00000000000E+00 0.  1.
     999901    1    3    3    0    0 -0.14975682460E-01 -0.91553141492E-01  0.10467130102E+00  0.89104563858E+00  0.88000000000E+00 0.  1.
        -11    1    4    4    0    0  0.11593424076E-01  0.21996064007E-01 -0.34628436619E-01  0.42633602443E-01  0.51100000000E-03 0.  1.
         11    1    4    4    0    0  0.18888166225E-01  0.66004445187E-01 -0.51532875723E-01  0.85844324268E-01  0.51100000000E-03 0. -1.
</event>
<event>
 8    1  0.1088270E+005  0.1043930E+01  0.7957747E-01            NaN
         13   -1    0    0    0    0  0.00000000000E+00  0.00000000000E+00  0.74505805969E-08  0.10566000000E+00  0.10566000000E+00 0. -1.
     999900   -1    0    0    0    0 -0.00000000000E+00 -0.00000000000E+00 -0.74505805969E-08  0.93827000000E+00  0.93827000000E+00 0.  1.
     999902    2    1    2    0    0  0.17797821242E-01  0.14852461846E-01 -0.47799411530E-02  0.10202613308E+01  0.10199867535E+01 0.  0.
     999903    2    3    3    0    0  0.40110702315E-01 -0.11302156230E+00 -0.46102977200E-01  0.12977987450E+00  0.18291783266E-01 0.  0.
         14    1    1    2    0    0 -0.17797821242E-01 -0.14852461846E-01  0.47799411530E-02  0.23668669191E-01  0.00000000000E+00 0. -1.
     999901    1    3    3    0    0 -0.22312881073E-01  0.12787402415E+00  0.41323036047E-01  0.89048145630E+00  0.88000000000E+00 0. -1.
        -11    1    4    4    0    0  0.34381740140E-01 -0.99933521571E-01 -0.33911475810E-01  0.11099127038E+00  0.51100000000E-03 0.  1.
         11    1    4    4    0    0  0.57289621755E-02 -0.13088040728E-01 -0.12191501390E-01  0.18788604122E-01  0.51100000000E-03 0. -1.
</event>
<event>
 8    1  0.1088270E+005  0.1043930E+01  0.7957747E-01            NaN
         13   -1    0    0    0    0  0.00000000000E+00  0.00000000000E+00  0.74505805969E-08  0.10566000000E+00  0.10566000000E+00 0.  1.
     999900   -1    0    0    0    0 -0.00000000000E+00 -0.00000000000E+00 -0.74505805969E-08  0.93827000000E+00  0.93827000000E+00 0. -1.
     999902    2    1    2    0    0  0.16604482364E-01 -0.87766355492E-02  0.19743952747E-01  0.10166800122E+01  0.10163147570E+01 0.  0.
     999903    2    3    3    0    0 -0.37958749658E-01  0.71637530267E-01 -0.92122323408E-01  0.12429128069E+00  0.19723021230E-01 0.  0.
         14    1    1    2    0    0 -0.16604482364E-01  0.87766355492E-02 -0.19743952747E-01  0.27249987821E-01  0.00000000000E+00 0. -1.
     999901    1    3    3    0    0  0.54563232022E-01 -0.80414165816E-01  0.11186627616E+00  0.89238873149E+00  0.88000000000E+00 0.  1.
        -11    1    4    4    0    0 -0.30581553911E-01  0.41394474882E-01 -0.65679885308E-01  0.83443648324E-01  0.51100000000E-03 0. -1.
         11    1    4    4    0    0 -0.73771957471E-02  0.30243055384E-01 -0.26442438100E-01  0.40847632364E-01  0.51100000000E-03 0.  1.
</event>
<event>
 8    1  0.1088270E+005  0.1043930E+01  0.7957747E-01            NaN
         13   -1    0    0    0    0  0.00000000000E+00  0.00000000000E+00  0.74505805969E-08  0.10566000000E+00  0.10566000000E+00 0. -1.
     999900   -1    0    0    0    0 -0.00000000000E+00 -0.00000000000E+00 -0.74505805969E-08  0.93827000000E+00  0.93827000000E+00 0.  1.
     999902    2    1    2    0    0  0.16516037714E-01  0.16905940767E-01 -0.51984398519E-02  0.10197305349E+01  0.10194433528E+01 0.  0.
     999903    2    3    3    0    0  0.68210258215E-01 -0.16826506344E-02 -0.11093402919E+00  0.13170021839E+00  0.19573401657E-01 0.  0.
         14    1    1    2    0    0 -0.16516037714E-01 -0.16905940767E-01  0.51984398519E-02  0.24199465116E-01  0.00000000000E+00 0. -1.
     999901    1    3    3    0    0 -0.51694220501E-01  0.18588591402E-01  0.10573558934E+00  0.88803031650E+00  0.88000000000E+00 0. -1.
        -11    1    4    4    0    0  0.32393946718E-01  0.11275442972E-02 -0.35069429215E-01  0.47757356779E-01  0.51100000000E-03 0.  1.
         11    1    4    4    0    0  0.35816311497E-01 -0.28101949316E-02 -0.75864599975E-01  0.83942861609E-01  0.51100000000E-03 0. -1.
</event>
<event>
 8    1  0.1088270E+005  0.1043930E+01  0.7957747E-01            NaN
         13   -1    0    0    0    0  0.00000000000E+00  0.00000000000E+00  0.74505805969E-08  0.10566000000E+00  0.10566000000E+00 0.  1.
     999900   -1    0    0    0    0 -0.00000000000E+00 -0.00000000000E+00 -0.74505805969E-08  0.93827000000E+00  0.93827000000E+00 0.  1.
     999902    2    1    2    0    0  0.69752366296E-02 -0.20615190456E-01  0.10415022462E-01  0.10198029882E+01  0.10195175438E+01 0.  0.
     999903    2    3    3    0    0 -0.59542365947E-02  0.10462058893E+00  0.72088697615E-01  0.12870545490E+00  0.19682307697E-01 0.  0.
         14    1    1    2    0    0 -0.69752366296E-02  0.20615190456E-01 -0.10415022462E-01  0.24127011760E-01  0.00000000000E+00 0. -1.
     999901    1    3    3    0    0  0.12929473224E-01 -0.12523577938E+00 -0.61673675153E-01  0.89109753334E+00  0.88000000000E+00 0.  1.
        -11    1    4    4    0    0 -0.61133683716E-02  0.57819629124E-01  0.51112293387E-01  0.77415828105E-01  0.51100000000E-03 0. -1.
         11    1    4    4    0    0  0.15913177692E-03  0.46800959805E-01  0.20976404228E-01  0.51289626797E-01  0.51100000000E-03 0.  1.
</event>
<event>
 8    1  0.1088270E+005  0.1043930E+01  0.7957747E-01            NaN
         13   -1    0    0    0    0  0.00000000000E+00  0.00000000000E+00  0.74505805969E-08  0.10566000000E+00  0.10566000000E+00 0. -1.
     999900   -1    0    0    0    0 -0.00000000000E+00 -0.00000000000E+00 -0.74505805969E-08  0.93827000000E+00  0.93827000000E+00 0. -1.
     999902    2    1    2    0    0  0.38627881462E-02 -0.98305549347E-02 -0.22562800416E-01  0.10190173344E+01  0.10187127598E+01 0.  0.
     999903    2    3    3    0    0  0.11558602846E+00  0.80667452473E-02  0.51978756186E-01  0.12864727686E+00  0.20570084968E-01 0.  0.
         14    1    1    2    0    0 -0.38627881462E-02  0.98305549347E-02  0.22562800416E-01  0.24912665558E-01  0.00000000000E+00 0. -1.
     999901    1    3    3    0    0 -0.11172324031E+00 -0.17897300182E-01 -0.74541556602E-01  0.89037005758E+00  0.88000000000E+00 0. -1.
        -11    1    4    4    0    0  0.17116378400E-01  0.85828833230E-02  0.98927190130E-02  0.21558369747E-01  0.51100000000E-03 0.  1.
         11    1    4    4    0    0  0.98469650056E-01 -0.51613807569E-03  0.42086037173E-01  0.10708890711E+00  0.51100000000E-03 0. -1.
</event>
<event>
 8    1  0.1329645E+005  0.1043930E+01  0.7957747E-01            NaN
         13   -1    0    0    0    0  0.00000000000E+00  0.00000000000E+00  0.74505805969E-08  0.10566000000E+00  0.10566000000E+00 0. -1.
     999900   -1    0    0    0    0 -0.00000000000E+00 -0.00000000000E+00 -0.74505805969E-08  0.93827000000E+00  0.93827000000E+00 0. -1.
     999902    2    1    2    0    0 -0.26702496551E-02  0.13069031678E-01  0.18624037621E-01  0.10210218224E+01  0.10207648002E+01 0.  0.
     999903    2    3    3    0    0 -0.78445509328E-01 -0.63213302333E-01 -0.78336679013E-01  0.12919097242E+00  0.20101058440E-01 0.  0.
         14    1    1    2    0    0  0.26702496551E-02 -0.13069031678E-01 -0.18624037621E-01  0.22908177569E-01  0.00000000000E+00 0.  1.
     999901    1    3    3    0    0  0.75775259673E-01  0.76282334011E-01  0.96960716635E-01  0.89183085001E+00  0.88000000000E+00 0.  1.
        -11    1    4    4    0    0 -0.37228059118E-01 -0.33829992572E-01 -0.26997531628E-01  0.57092246567E-01  0.51100000000E-03 0. -1.
         11    1    4    4    0    0 -0.41217450210E-01 -0.29383309762E-01 -0.51339147385E-01  0.72098725853E-01  0.51100000000E-03 0.  1.
</event>
<event>
 8    1  0.1088270E+005  0.1043930E+01  0.7957747E-01            NaN
         13   -1    0    0    0    0  0.00000000000E+00  0.00000000000E+00  0.74505805969E-08  0.10566000000E+00  0.10566000000E+00 0. -1.
     999900   -1    0    0    0    0 -0.00000000000E+00 -0.00000000000E+00 -0.74505805969E-08  0.93827000000E+00  0.93827000000E+00 0. -1.
     999902    2    1    2    0    0 -0.13099025822E-01 -0.14871159124E-01 -0.13551280739E-01  0.10199222292E+01  0.10196396326E+01 0.  0.
     999903    2    3    3    0    0  0.58000846244E-01  0.10989945889E+00  0.21348966461E-01  0.12759889864E+00  0.19588551138E-01 0.  0.
         14    1    1    2    0    0  0.13099025822E-01  0.14871159124E-01  0.13551280739E-01  0.24007770843E-01  0.00000000000E+00 0. -1.
     999901    1    3    3    0    0 -0.71099872066E-01 -0.12477061802E+00 -0.34900247200E-01  0.89232333052E+00  0.88000000000E+00 0. -1.
        -11    1    4    4    0    0  0.16640269639E-01  0.36226547797E-01 -0.20707807317E-02  0.39922557443E-01  0.51100000000E-03 0.  1.
         11    1    4    4    0    0  0.41360576605E-01  0.73672911095E-01  0.23419747193E-01  0.87676341198E-01  0.51100000000E-03 0. -1.
</event>
<event>
 8    1  0.1088270E+005  0.1043930E+01  0.7957747E-01            NaN
         13   -1    0    0    0    0  0.00000000000E+00  0.00000000000E+00  0.74505805969E-08  0.10566000000E+00  0.10566000000E+00 0. -1.
     999900   -1    0    0    0    0 -0.00000000000E+00 -0.00000000000E+00 -0.74505805969E-08  0.93827000000E+00  0.93827000000E+00 0.  1.
     999902    2    1    2    0    0  0.66940574509E-02  0.89253047208E-02 -0.20365456249E-01  0.10207088183E+01  0.10204446426E+01 0.  0.
     999903    2    3    3    0    0  0.50652986397E-01 -0.11773219935E+00  0.68881051093E-02  0.13013750318E+00  0.21487855827E-01 0.  0.
         14    1    1    2    0    0 -0.66940574509E-02 -0.89253047208E-02  0.20365456249E-01  0.23221181661E-01  0.00000000000E+00 0. -1.
     999901    1    3    3    0    0 -0.43958928946E-01  0.12665750407E+00 -0.27253561358E-01  0.89057131516E+00  0.88000000000E+00 0. -1.
        -11    1    4    4    0    0  0.23278510238E-01 -0.79815996001E-01  0.60332542337E-02  0.83361523103E-01  0.51100000000E-03 0.  1.
         11    1    4    4    0    0  0.27374476159E-01 -0.37916203349E-01  0.85485087560E-03  0.46775980080E-01  0.51100000000E-03 0. -1.
</event>
<event>
 8    1  0.1088270E+005  0.1043930E+01  0.7957747E-01            NaN
         13   -1    0    0    0    0  0.00000000000E+00  0.00000000000E+00  0.74505805969E-08  0.10566000000E+00  0.10566000000E+00 0. -1.
     999900   -1    0    0    0    0 -0.00000000000E+00 -0.00000000000E+00 -0.74505805969E-08  0.93827000000E+00  0.93827000000E+00 0. -1.
     999902    2    1    2    0    0  0.53075095638E-02 -0.15558910899E-01 -0.17114064489E-01  0.10201994170E+01  0.10199233843E+01 0.  0.
     999903    2    3    3    0    0 -0.45927047057E-01  0.99520432527E-01  0.61755777047E-01  0.12773726824E+00  0.22122919244E-01 0.  0.
         14    1    1    2    0    0 -0.53075095638E-02  0.15558910899E-01  0.17114064489E-01  0.23730582999E-01  0.00000000000E+00 0.  1.
     999901    1    3    3    0    0  0.51234556620E-01 -0.11507934343E+00 -0.78869841536E-01  0.89246214877E+00  0.88000000000E+00 0.  1.
        -11    1    4    4    0    0 -0.47092807906E-01  0.84763092816E-01  0.54670793615E-01  0.11131788381E+00  0.51100000000E-03 0.  1.
         11    1    4    4    0    0  0.11657608498E-02  0.14757339711E-01  0.70849834317E-02  0.16419384426E-01  0.51100000000E-03 0. -1.
</event>
<event>
 8    1  0.1088270E+005  0.1043930E+01  0.7957747E-01            NaN
         13   -1    0    0    0    0  0.00000000000E+00  0.00000000000E+00  0.74505805969E-08  0.10566000000E+00  0.10566000000E+00 0.  1.
     999900   -1    0    0    0    0 -0.00000000000E+00 -0.00000000000E+00 -0.74505805969E-08  0.93827000000E+00  0.93827000000E+00 0. -1.
     999902    2    1    2    0    0 -0.17389703359E-01 -0.11046840349E-01  0.10797641555E-01  0.10206700875E+01  0.10204050196E+01 0.  0.
     999903    2    3    3    0    0  0.10334589629E+00  0.69558755634E-01 -0.22682937513E-01  0.12814821313E+00  0.19714312234E-01 0.  0.
         14    1    1    2    0    0  0.17389703359E-01  0.11046840349E-01 -0.10797641555E-01  0.23259912463E-01  0.00000000000E+00 0.  1.
     999901    1    3    3    0    0 -0.12073559965E+00 -0.80605595983E-01  0.33480579069E-01  0.89252187441E+00  0.88000000000E+00 0.  1.
        -11    1    4    4    0    0  0.15368913402E-01  0.18665995063E-01 -0.78927683563E-02  0.25439728461E-01  0.51100000000E-03 0.  1.
         11    1    4    4    0    0  0.87976982893E-01  0.50892760571E-01 -0.14790169157E-01  0.10270848467E+00  0.51100000000E-03 0. -1.
</event>
<event>
 8    1  0.1088270E+005  0.1043930E+01  0.7957747E-01            NaN
         13   -1    0    0    0    0  0.00000000000E+00  0.00000000000E+00  0.74505805969E-08  0.10566000000E+00  0.10566000000E+00 0. -1.
     999900   -1    0    0    0    0 -0.00000000000E+00 -0.00000000000E+00 -0.74505805969E-08  0.93827000000E+00  0.93827000000E+00 0.  1.
     999902    2    1    2    0    0 -0.12231536366E-01  0.14602738570E-01 -0.13688952469E-01  0.10204728502E+01  0.10202032151E+01 0.  0.
     999903    2    3    3    0    0 -0.56931828457E-01  0.11902068961E+00  0.40813732014E-03  0.13306090950E+00  0.17259241379E-01 0.  0.
         14    1    1    2    0    0  0.12231536366E-01 -0.14602738570E-01  0.13688952469E-01  0.23457149770E-01  0.00000000000E+00 0. -1.
     999901    1    3    3    0    0  0.44700292091E-01 -0.10441795104E+00 -0.14097089789E-01  0.88741194073E+00  0.88000000000E+00 0.  1.
        -11    1    4    4    0    0 -0.28719125083E-01  0.51599820157E-01 -0.75707300784E-02  0.59539118742E-01  0.51100000000E-03 0.  1.
         11    1    4    4    0    0 -0.28212703375E-01  0.67420869457E-01  0.79788673986E-02  0.73521790756E-01  0.51100000000E-03 0. -1.
</event>
<event>
 8    1  0.1088270E+005  0.1043930E+01  0.7957747E-01            NaN
         13   -1    0    0    0    0  0.00000000000E+00  0.00000000000E+00  0.74505805969E-08  0.10566000000E+00  0.10566000000E+00 0.  1.
     999900   -1    0    0    0    0 -0.00000000000E+00 -0.00000000000E+00 -0.74505805969E-08  0.93827000000E+00  0.93827000000E+00 0. -1.
     999902    2    1    2    0    0  0.15612620530E-01 -0.76605577355E-03  0.15653817827E-01  0.10218080025E+01  0.10215685054E+01 0.  0.
     999903    2    3    3    0    0 -0.93320520259E-01 -0.85269670034E-01  0.30308060670E-01  0.13095333599E+00  0.15829135700E-01 0.  0.
         14    1    1    2    0    0 -0.15612620530E-01  0.76605577355E-03 -0.15653817827E-01  0.22121997510E-01  0.00000000000E+00 0.  1.
     999901    1    3    3    0    0  0.10893314079E+00  0.84503614260E-01 -0.14654242843E-01  0.89085466650E+00  0.88000000000E+00 0.  1.
        -11    1    4    4    0    0 -0.71785224958E-01 -0.64943072549E-01  0.16210307963E-01  0.98151700951E-01  0.51100000000E-03 0. -1.
         11    1    4    4    0    0 -0.21535295302E-01 -0.20326597485E-01  0.14097752707E-01  0.32801635042E-01  0.51100000000E-03 0.  1.
</event>
<event>
 8    1  0.1088270E+005  0.1043930E+01  0.7957747E-01            NaN
         13   -1    0    0    0    0  0.00000000000E+00  0.00000000000E+00  0.74505805969E-08  0.10566000000E+00  0.10566000000E+00 0.  1.
     999900   -1    0    0    0    0 -0.00000000000E+00 -0.00000000000E+00 -0.74505805969E-08  0.93827000000E+00  0.93827000000E+00 0.  1.
     999902    2    1    2    0    0 -0.31038941998E-02  0.16859881280E-01 -0.14527881024E-01  0.10214589279E+01  0.10212117274E+01 0.  0.
     999903    2    3    3    0    0 -0.35120024042E-01 -0.12080424638E+00  0.77747253899E-02  0.12990194658E+00  0.31416354639E-01 0.  0.
         14    1    1    2    0    0  0.31038941998E-02 -0.16859881280E-01  0.14527881024E-01  0.22471072138E-01  0.00000000000E+00 0.  1.
     999901    1    3    3    0    0  0.32016129842E-01  0.13766412766E+00 -0.22302606414E-01  0.89155698128E+00  0.88000000000E+00 0.  1.
        -11    1    4    4    0    0 -0.14537810090E-01 -0.76561169434E-01 -0.86582656536E-02  0.78410377326E-01  0.51100000000E-03 0. -1.
         11    1    4    4    0    0 -0.20582213952E-01 -0.44243076947E-01  0.16432991044E-01  0.51491569257E-01  0.51100000000E-03 0.  1.
</event>
<event>
 8    1  0.1088270E+005  0.1043930E+01  0.7957747E-01            NaN
         13   -1    0    0    0    0  0.00000000000E+00  0.00000000000E+00  0.74505805969E-08  0.10566000000E+00  0.10566000000E+00 0. -1.
     999900   -1    0    0    0    0 -0.00000000000E+00 -0.00000000000E+00 -0.74505805969E-08  0.93827000000E+00  0.93827000000E+00 0.  1.
     999902    2    1    2    0    0  0.10253230111E-01  0.11093197796E-01 -0.18198350692E-01  0.10202790437E+01  0.10200048820E+01 0.  0.
     999903    2    3    3    0    0  0.10802416776E+00  0.18831929886E-01  0.68172418035E-01  0.13062801443E+00  0.19807502909E-01 0.  0.
         14    1    1    2    0    0 -0.10253230111E-01 -0.11093197796E-01  0.18198350692E-01  0.23650956280E-01  0.00000000000E+00 0. -1.
     999901    1    3    3    0    0 -0.97770937644E-01 -0.77387320900E-02 -0.86370768726E-01  0.88965102929E+00  0.88000000000E+00 0.  1.
        -11    1    4    4    0    0  0.41861847805E-01  0.13503186545E-01  0.18495125748E-01  0.47718771421E-01  0.51100000000E-03 0. -1.
         11    1    4    4    0    0  0.66162319950E-01  0.53287433405E-02  0.49677292286E-01  0.82909243011E-01  0.51100000000E-03 0.  1.
</event>
<event>
 8    1  0.1088270E+005  0.1043930E+01  0.7957747E-01            NaN
         13   -1    0    0    0    0  0.00000000000E+00  0.00000000000E+00  0.74505805969E-08  0.10566000000E+00  0.10566000000E+00 0. -1.
     999900   -1    0    0    0    0 -0.00000000000E+00 -0.00000000000E+00 -0.74505805969E-08  0.93827000000E+00  0.93827000000E+00 0.  1.
     999902    2    1    2    0    0 -0.78929138123E-02  0.46698008164E-02 -0.21755585073E-01  0.10203204551E+01  0.10200472639E+01 0.  0.
     999903    2    3    3    0    0  0.73295536311E-01 -0.10507487060E+00 -0.27687816337E-02  0.12959268747E+00  0.19329625400E-01 0.  0.
         14    1    1    2    0    0  0.78929138123E-02 -0.46698008164E-02  0.21755585073E-01  0.23609544892E-01  0.00000000000E+00 0. -1.
     999901    1    3    3    0    0 -0.81188450123E-01  0.10974467142E+00 -0.18986803440E-01  0.89072776764E+00  0.88000000000E+00 0.  1.
        -11    1    4    4    0    0  0.31625716480E-01 -0.29687120188E-01  0.67691068687E-03  0.43384679058E-01  0.51100000000E-03 0. -1.
         11    1    4    4    0    0  0.41669819831E-01 -0.75387750416E-01 -0.34456923206E-02  0.86208008411E-01  0.51100000000E-03 0.  1.
</event>
<event>
 8    1  0.1088270E+005  0.1043930E+01  0.7957747E-01            NaN
         13   -1    0    0    0    0  0.00000000000E+00  0.00000000000E+00  0.74505805969E-08  0.10566000000E+00  0.10566000000E+00 0. -1.
     999900   -1    0    0    0    0 -0.00000000000E+00 -0.00000000000E+00 -0.74505805969E-08  0.93827000000E+00  0.93827000000E+00 0. -1.
     999902    2    1    2    0    0 -0.16442727273E-02 -0.22769038586E-01 -0.33876590961E-02  0.10208516772E+01  0.10205907788E+01 0.  0.
     999903    2    3    3    0    0  0.91553599448E-01 -0.29705200779E-01  0.86959228193E-01  0.13130318845E+00  0.20350906713E-01 0.  0.
         14    1    1    2    0    0  0.16442727273E-02  0.22769038586E-01  0.33876590961E-02  0.23078322840E-01  0.00000000000E+00 0. -1.
     999901    1    3    3    0    0 -0.93197872175E-01  0.69361621928E-02 -0.90346887289E-01  0.88954848871E+00  0.88000000000E+00 0. -1.
        -11    1    4    4    0    0  0.52769990369E-01 -0.18922430116E-01  0.63508312554E-01  0.84713028098E-01  0.51100000000E-03 0. -1.
         11    1    4    4    0    0  0.38783609079E-01 -0.10782770663E-01  0.23450915639E-01  0.46590160352E-01  0.51100000000E-03 0.  1.
</event>
<event>
 8    1  0.1088270E+005  0.1043930E+01  0.7957747E-01            NaN
         13   -1    0    0    0    0  0.00000000000E+00  0.00000000000E+00  0.74505805969E-08  0.10566000000E+00  0.10566000000E+00 0.  1.
     999900   -1    0    0    0    0 -0.00000000000E+00 -0.00000000000E+00 -0.74505805969E-08  0.93827000000E+00  0.93827000000E+00 0. -1.
     999902    2    1    2    0    0 -0.20356795119E-02 -0.21390902483E-01  0.78652310755E-02  0.10210482046E+01  0.10207917807E+01 0.  0.
     999903    2    3    3    0    0 -0.49958542671E-01 -0.11971159768E+00  0.28929560546E-01  0.13402663448E+00  0.17305972098E-01 0.  0.
         14    1    1    2    0    0  0.20356795119E-02  0.21390902483E-01 -0.78652310755E-02  0.22881795384E-01  0.00000000000E+00 0.  1.
     999901    1    3    3    0    0  0.47922863160E-01  0.98320695199E-01 -0.21064329470E-01  0.88702157014E+00  0.88000000000E+00 0. -1.
        -11    1    4    4    0    0 -0.25637436497E-01 -0.71079877495E-01  0.24645921752E-01  0.79481505489E-01  0.51100000000E-03 0. -1.
         11    1    4    4    0    0 -0.24321106175E-01 -0.48631720187E-01  0.42836387937E-02  0.54545128987E-01  0.51100000000E-03 0.  1.
</event>
<event>
 8    1  0.1088270E+005  0.1043930E+01  0.7957747E-01            NaN
         13   -1    0    0    0    0  0.00000000000E+00  0.00000000000E+00  0.74505805969E-08  0.10566000000E+00  0.10566000000E+00 0. -1.
     999900   -1    0    0    0    0 -0.00000000000E+00 -0.00000000000E+00 -0.74505805969E-08  0.93827000000E+00  0.93827000000E+00 0. -1.
     999902    2    1    2    0    0  0.10436990515E-01  0.24357197202E-02  0.21179158328E-01  0.10201935249E+01  0.10199173535E+01 0.  0.
     999903    2    3    3    0    0 -0.54521337373E-01  0.10548858332E+00  0.52206822804E-01  0.13126034801E+00  0.20082558898E-01 0.  0.
         14    1    1    2    0    0 -0.10436990515E-01 -0.24357197202E-02 -0.21179158328E-01  0.23736475077E-01  0.00000000000E+00 0.  1.
     999901    1    3    3    0    0  0.64958327889E-01 -0.10305286360E+00 -0.31027664476E-01  0.88893317692E+00  0.88000000000E+00 0. -1.
        -11    1    4    4    0    0 -0.18234068982E-01  0.42012290035E-01  0.10160721159E-01  0.46914978004E-01  0.51100000000E-03 0.  1.
         11    1    4    4    0    0 -0.36287268392E-01  0.63476293285E-01  0.42046101645E-01  0.84345370004E-01  0.51100000000E-03 0. -1.
</event>
<event>
 8    1  0.1088270E+005  0.1043930E+01  0.7957747E-01            NaN
         13   -1    0    0    0    0  0.00000000000E+00  0.00000000000E+00  0.74505805969E-08  0.10566000000E+00  0.10566000000E+00 0.  1.
     999900   -1    0    0    0    0 -0.00000000000E+00 -0.00000000000E+00 -0.74505805969E-08  0.93827000000E+00  0.93827000000E+00 0. -1.
     999902    2    1    2    0    0 -0.13249868924E-02  0.23651802585E-01 -0.16591434815E-02  0.10201830820E+01  0.10199066647E+01 0.  0.
     999903    2    3    3    0    0  0.20398185164E-01  0.12852475551E+00  0.21781083075E-01  0.13338001670E+00  0.19522155097E-01 0.  0.
         14    1    1    2    0    0  0.13249868924E-02 -0.23651802585E-01  0.16591434815E-02  0.23746917966E-01  0.00000000000E+00 0.  1.
     999901    1    3    3    0    0 -0.21723172056E-01 -0.10487295292E+00 -0.23440226556E-01  0.88680306533E+00  0.88000000000E+00 0.  1.
        -11    1    4    4    0    0  0.44270965671E-02  0.85633176416E-01  0.12139061871E-01  0.86604030110E-01  0.51100000000E-03 0.  1.
         11    1    4    4    0    0  0.15971088597E-01  0.42891579091E-01  0.96420212035E-02  0.46775986594E-01  0.51100000000E-03 0. -1.
</event>
<event>
 8    1  0.1088270E+005  0.1043930E+01  0.7957747E-01            NaN
         13   -1    0    0    0    0  0.00000000000E+00  0.00000000000E+00  0.74505805969E-08  0.10566000000E+00  0.10566000000E+00 0. -1.
     999900   -1    0    0    0    0 -0.00000000000E+00 -0.00000000000E+00 -0.74505805969E-08  0.93827000000E+00  0.93827000000E+00 0.  1.
     999902    2    1    2    0    0 -0.11852666530E-01  0.19916685171E-01 -0.92723315236E-02  0.10189673042E+01  0.10186614898E+01 0.  0.
     999903    2    3    3    0    0  0.52730706276E-01 -0.10207645062E+00 -0.50151005377E-01  0.12726982003E+00  0.21962572576E-01 0.  0.
         14    1    1    2    0    0  0.11852666530E-01 -0.19916685171E-01  0.92723315236E-02  0.24962695847E-01  0.00000000000E+00 0. -1.
     999901    1    3    3    0    0 -0.64583372806E-01  0.12199313579E+00  0.40878673853E-01  0.89169748413E+00  0.88000000000E+00 0.  1.
        -11    1    4    4    0    0  0.15824294641E-01 -0.39374930907E-01 -0.80092261106E-02  0.43187988014E-01  0.51100000000E-03 0. -1.
         11    1    4    4    0    0  0.36906411635E-01 -0.62701519710E-01 -0.42141779266E-01  0.84081832012E-01  0.51100000000E-03 0.  1.
</event>
<event>
 8    1  0.1088270E+005  0.1043930E+01  0.7957747E-01            NaN
         13   -1    0    0    0    0  0.00000000000E+00  0.00000000000E+00  0.74505805969E-08  0.10566000000E+00  0.10566000000E+00 0.  1.
     999900   -1    0    0    0    0 -0.00000000000E+00 -0.00000000000E+00 -0.74505805969E-08  0.93827000000E+00  0.93827000000E+00 0. -1.
     999902    2    1    2    0    0 -0.86869610733E-02 -0.57242182300E-02 -0.21089737942E-01  0.10204138988E+01  0.10201428909E+01 0.  0.
     999903    2    3    3    0    0  0.58962503396E-01 -0.10080525318E+00 -0.58174336342E-01  0.13193648175E+00  0.19613921893E-01 0.  0.
         14    1    1    2    0    0  0.86869610733E-02  0.57242182300E-02  0.21089737942E-01  0.23516101155E-01  0.00000000000E+00 0.  1.
     999901    1    3    3    0    0 -0.67649464469E-01  0.95081034951E-01  0.37084598400E-01  0.88847741710E+00  0.88000000000E+00 0.  1.
        -11    1    4    4    0    0  0.39202399625E-01 -0.48542633880E-01 -0.27426899168E-01  0.68159455392E-01  0.51100000000E-03 0.  1.
         11    1    4    4    0    0  0.19760103771E-01 -0.52262619301E-01 -0.30747437174E-01  0.63777026358E-01  0.51100000000E-03 0. -1.
</event>
<event>
 8    1  0.1088270E+005  0.1043930E+01  0.7957747E-01            NaN
         13   -1    0    0    0    0  0.00000000000E+00  0.00000000000E+00  0.74505805969E-08  0.10566000000E+00  0.10566000000E+00 0. -1.
     999900   -1    0    0    0    0 -0.00000000000E+00 -0.00000000000E+00 -0.74505805969E-08  0.93827000000E+00  0.93827000000E+00 0.  1.
     999902    2    1    2    0    0  0.68215972398E-02 -0.21428945847E-01  0.79581233781E-02  0.10200749033E+01  0.10197959319E+01 0.  0.
     999903    2    3    3    0    0  0.84094025322E-01  0.45548734970E-01 -0.84825487036E-01  0.12930791011E+00  0.19459702284E-01 0.  0.
         14    1    1    2    0    0 -0.68215972398E-02  0.21428945847E-01 -0.79581233781E-02  0.23855096662E-01  0.00000000000E+00 0. -1.
     999901    1    3    3    0    0 -0.77272428082E-01 -0.66977680818E-01  0.92783610414E-01  0.89076699323E+00  0.88000000000E+00 0. -1.
        -11    1    4    4    0    0  0.68301828296E-01  0.27981420697E-01 -0.67324301379E-01  0.99904566112E-01  0.51100000000E-03 0.  1.
         11    1    4    4    0    0  0.15792197026E-01  0.17567314273E-01 -0.17501185657E-01  0.29403343995E-01  0.51100000000E-03 0. -1.
</event>
<event>
 8    1  0.1088270E+005  0.1043930E+01  0.7957747E-01            NaN
         13   -1    0    0    0    0  0.00000000000E+00  0.00000000000E+00  0.74505805969E-08  0.10566000000E+00  0.10566000000E+00 0. -1.
     999900   -1    0    0    0    0 -0.00000000000E+00 -0.00000000000E+00 -0.74505805969E-08  0.93827000000E+00  0.93827000000E+00 0. -1.
     999902    2    1    2    0    0  0.22835328505E-01  0.10495957227E-01 -0.14320427775E-01  0.10150043713E+01  0.10145921258E+01 0.  0.
     999903    2    3    3    0    0 -0.18574660580E-01 -0.98251001221E-01 -0.72861539764E-01  0.12541584281E+00  0.20543913803E-01 0.  0.
         14    1    1    2    0    0 -0.22835328505E-01 -0.10495957227E-01  0.14320427775E-01  0.28925628735E-01  0.00000000000E+00 0.  1.
     999901    1    3    3    0    0  0.41409989085E-01  0.10874695845E+00  0.58541111989E-01  0.88958852846E+00  0.88000000000E+00 0. -1.
        -11    1    4    4    0    0 -0.21685260671E-01 -0.70980555171E-01 -0.48082750006E-01  0.88434731367E-01  0.51100000000E-03 0.  1.
         11    1    4    4    0    0  0.31106000919E-02 -0.27270446050E-01 -0.24778789757E-01  0.36981111443E-01  0.51100000000E-03 0. -1.
</event>
<event>
 8    1  0.1088270E+005  0.1043930E+01  0.7957747E-01            NaN
         13   -1    0    0    0    0  0.00000000000E+00  0.00000000000E+00  0.74505805969E-08  0.10566000000E+00  0.10566000000E+00 0. -1.
     999900   -1    0    0    0    0 -0.00000000000E+00 -0.00000000000E+00 -0.74505805969E-08  0.93827000000E+00  0.93827000000E+00 0. -1.
     999902    2    1    2    0    0 -0.51628978633E-02  0.24693954764E-01 -0.70779284759E-02  0.10177280156E+01  0.10173906672E+01 0.  0.
     999903    2    3    3    0    0  0.14610199472E-01 -0.10021552455E+00  0.70864218168E-01  0.12527727093E+00  0.20397252362E-01 0.  0.
         14    1    1    2    0    0  0.51628978633E-02 -0.24693954764E-01  0.70779284759E-02  0.26201984424E-01  0.00000000000E+00 0. -1.
     999901    1    3    3    0    0 -0.19773097335E-01  0.12490947932E+00 -0.77942146644E-01  0.89245074465E+00  0.88000000000E+00 0.  1.
        -11    1    4    4    0    0  0.10346339047E-01 -0.29048799758E-01  0.30370640703E-01  0.43284136087E-01  0.51100000000E-03 0.  1.
         11    1    4    4    0    0  0.42638604245E-02 -0.71166724796E-01  0.40493577466E-01  0.81993134840E-01  0.51100000000E-03 0. -1.
</event>
<event>
 8    1  0.1088270E+005  0.1043930E+01  0.7957747E-01            NaN
         13   -1    0    0    0    0  0.00000000000E+00  0.00000000000E+00  0.74505805969E-08  0.10566000000E+00  0.10566000000E+00 0.  1.
     999900   -1    0    0    0    0 -0.00000000000E+00 -0.00000000000E+00 -0.74505805969E-08  0.93827000000E+00  0.93827000000E+00 0. -1.
     999902    2    1    2    0    0  0.21266427409E-01 -0.88587765434E-02  0.52512896497E-02  0.10203013119E+01  0.10200276723E+01 0.  0.
     999903    2    3    3    0    0 -0.65931547848E-01 -0.88617018286E-01  0.66937740081E-01  0.13026194080E+00  0.16957807675E-01 0.  0.
         14    1    1    2    0    0 -0.21266427409E-01  0.88587765434E-02 -0.52512896497E-02  0.23628688063E-01  0.00000000000E+00 0.  1.
     999901    1    3    3    0    0  0.87197975257E-01  0.79758241743E-01 -0.61686450432E-01  0.89003937114E+00  0.88000000000E+00 0. -1.
        -11    1    4    4    0    0 -0.46407749601E-01 -0.65193243811E-01  0.56758466989E-01  0.98110259186E-01  0.51100000000E-03 0. -1.
         11    1    4    4    0    0 -0.19523798247E-01 -0.23423774475E-01  0.10179273093E-01  0.32151681610E-01  0.51100000000E-03 0.  1.
</event>
<event>
 8    1  0.1088270E+005  0.1043930E+01  0.7957747E-01            NaN
         13   -1    0    0    0    0  0.00000000000E+00  0.00000000000E+00  0.74505805969E-08  0.10566000000E+00  0.10566000000E+00 0. -1.
     999900   -1    0    0    0    0 -0.00000000000E+00 -0.00000000000E+00 -0.74505805969E-08  0.93827000000E+00  0.93827000000E+00 0. -1.
     999902    2    1    2    0    0  0.21138797126E-01 -0.41944571813E-02 -0.11962237101E-01  0.10192817276E+01  0.10189836618E+01 0.  0.
     999903    2    3    3    0    0 -0.34506910559E-01  0.83755187369E-01  0.87271102480E-01  0.12760979218E+00  0.21502452071E-01 0.  0.
         14    1    1    2    0    0 -0.21138797126E-01  0.41944571813E-02  0.11962237101E-01  0.24648272382E-01  0.00000000000E+00 0. -1.
     999901    1    3    3    0    0  0.55645707684E-01 -0.87949644550E-01 -0.99233339581E-01  0.89167193544E+00  0.88000000000E+00 0.  1.
        -11    1    4    4    0    0 -0.15489293077E-01  0.53411840002E-01  0.64515970699E-01  0.85178133630E-01  0.51100000000E-03 0.  1.
         11    1    4    4    0    0 -0.19017617481E-01  0.30343347367E-01  0.22755131781E-01  0.42431658552E-01  0.51100000000E-03 0. -1.
</event>
<event>
 8    1  0.1088270E+005  0.1043930E+01  0.7957747E-01            NaN
         13   -1    0    0    0    0  0.00000000000E+00  0.00000000000E+00  0.74505805969E-08  0.10566000000E+00  0.10566000000E+00 0.  1.
     999900   -1    0    0    0    0 -0.00000000000E+00 -0.00000000000E+00 -0.74505805969E-08  0.93827000000E+00  0.93827000000E+00 0.  1.
     999902    2    1    2    0    0  0.65278338551E-03 -0.25271815956E-02 -0.23388758747E-01  0.10203960499E+01  0.10201246256E+01 0.  0.
     999903    2    3    3    0    0 -0.68155771999E-01  0.10131811910E-01  0.10616180405E+00  0.12816389638E+00  0.20193880925E-01 0.  0.
         14    1    1    2    0    0 -0.65278338551E-03  0.25271815956E-02  0.23388758747E-01  0.23533950129E-01  0.00000000000E+00 0.  1.
     999901    1    3    3    0    0  0.68808555384E-01 -0.12658993506E-01 -0.12955056279E+00  0.89223215350E+00  0.88000000000E+00 0.  1.
        -11    1    4    4    0    0 -0.15757226849E-01 -0.58911997295E-02  0.28895854879E-01  0.33439916005E-01  0.51100000000E-03 0. -1.
         11    1    4    4    0    0 -0.52398545149E-01  0.16023011640E-01  0.77265949167E-01  0.94723980371E-01  0.51100000000E-03 0.  1.
</event>
<event>
 8    1  0.1088270E+005  0.1043930E+01  0.7957747E-01            NaN
         13   -1    0    0    0    0  0.00000000000E+00  0.00000000000E+00  0.74505805969E-08  0.10566000000E+00  0.10566000000E+00 0.  1.
     999900   -1    0    0    0    0 -0.00000000000E+00 -0.00000000000E+00 -0.74505805969E-08  0.93827000000E+00  0.93827000000E+00 0. -1.
     999902    2    1    2    0    0 -0.62039976608E-02  0.19895837169E-01 -0.86571687751E-02  0.10213627562E+01  0.10211134115E+01 0.  0.
     999903    2    3    3    0    0  0.12116123062E+00 -0.37392787507E-01 -0.20401117284E-01  0.13027252042E+00  0.21827955190E-01 0.  0.
         14    1    1    2    0    0  0.62039976608E-02 -0.19895837169E-01  0.86571687751E-02  0.22567243847E-01  0.00000000000E+00 0. -1.
     999901    1    3    3    0    0 -0.12736522828E+00  0.57288624676E-01  0.11743948509E-01  0.89109023573E+00  0.88000000000E+00 0. -1.
        -11    1    4    4    0    0  0.94454358411E-01 -0.28292155736E-01 -0.65026217345E-02  0.98816077182E-01  0.51100000000E-03 0.  1.
         11    1    4    4    0    0  0.26706872207E-01 -0.91006317706E-02 -0.13898495549E-01  0.31456443239E-01  0.51100000000E-03 0. -1.
</event>
<event>
 8    1  0.1088270E+005  0.1043930E+01  0.7957747E-01            NaN
         13   -1    0    0    0    0  0.00000000000E+00  0.00000000000E+00  0.74505805969E-08  0.10566000000E+00  0.10566000000E+00 0. -1.
     999900   -1    0    0    0    0 -0.00000000000E+00 -0.00000000000E+00 -0.74505805969E-08  0.93827000000E+00  0.93827000000E+00 0.  1.
     999902    2    1    2    0    0 -0.16279236030E-01 -0.15662589240E-01 -0.68524435065E-02  0.10203230898E+01  0.10200499602E+01 0.  0.
     999903    2    3    3    0    0  0.81737442044E-02 -0.13069903661E+00  0.16916217220E-02  0.13245804740E+00  0.19829888334E-01 0.  0.
         14    1    1    2    0    0  0.16279236030E-01  0.15662589240E-01  0.68524435065E-02  0.23606910205E-01  0.00000000000E+00 0. -1.
     999901    1    3    3    0    0 -0.24452980234E-01  0.11503644737E+00 -0.85440652285E-02  0.88786504240E+00  0.88000000000E+00 0. -1.
        -11    1    4    4    0    0  0.16708350582E-02 -0.10836726801E+00  0.69581088508E-02  0.10860447903E+00  0.51100000000E-03 0. -1.
         11    1    4    4    0    0  0.65029091463E-02 -0.22331768596E-01 -0.52664871288E-02  0.23853568363E-01  0.51100000000E-03 0.  1.
</event>
<event>
 8    1  0.1088270E+005  0.1043930E+01  0.7957747E-01            NaN
         13   -1    0    0    0    0  0.00000000000E+00  0.00000000000E+00  0.74505805969E-08  0.10566000000E+00  0.10566000000E+00 0. -1.
     999900   -1    0    0    0    0 -0.00000000000E+00 -0.00000000000E+00 -0.74505805969E-08  0.93827000000E+00  0.93827000000E+00 0. -1.
     999902    2    1    2    0    0 -0.18920442889E-01  0.10893597704E-01  0.11133952853E-01  0.10194224800E+01  0.10191278498E+01 0.  0.
     999903    2    3    3    0    0 -0.33362761906E-01  0.66403527684E-01  0.10779251524E+00  0.13227378301E+00  0.18831488466E-01 0.  0.
         14    1    1    2    0    0  0.18920442889E-01 -0.10893597704E-01 -0.11133952853E-01  0.24507519993E-01  0.00000000000E+00 0.  1.
     999901    1    3    3    0    0  0.14442319016E-01 -0.55509929980E-01 -0.96658562390E-01  0.88714869700E+00  0.88000000000E+00 0. -1.
        -11    1    4    4    0    0 -0.60696313478E-02  0.15650017713E-01  0.39457903989E-01  0.42882989487E-01  0.51100000000E-03 0. -1.
         11    1    4    4    0    0 -0.27293130558E-01  0.50753509971E-01  0.68334611254E-01  0.89390793521E-01  0.51100000000E-03 0.  1.
</event>
<event>
 8    1  0.1088270E+005  0.1043930E+01  0.7957747E-01            NaN
         13   -1    0    0    0    0  0.00000000000E+00  0.00000000000E+00  0.74505805969E-08  0.10566000000E+00  0.10566000000E+00 0. -1.
     999900   -1    0    0    0    0 -0.00000000000E+00 -0.00000000000E+00 -0.74505805969E-08  0.93827000000E+00  0.93827000000E+00 0.  1.
     999902    2    1    2    0    0 -0.81752963236E-02  0.10140328135E-01 -0.19285141025E-01  0.10206581632E+01  0.10203928203E+01 0.  0.
     999903    2    3    3    0    0 -0.99698791550E-01 -0.30383170807E-01  0.74918931345E-01  0.12998812810E+00  0.20520259920E-01 0.  0.
         14    1    1    2    0    0  0.81752963236E-02 -0.10140328135E-01  0.19285141025E-01  0.23271836821E-01  0.00000000000E+00 0. -1.
     999901    1    3    3    0    0  0.91523495226E-01  0.40523498941E-01 -0.94204072370E-01  0.89067003508E+00  0.88000000000E+00 0.  1.
        -11    1    4    4    0    0 -0.86726346127E-01 -0.19468289116E-01  0.58694203966E-01  0.10651640293E+00  0.51100000000E-03 0.  1.
         11    1    4    4    0    0 -0.12972445422E-01 -0.10914881690E-01  0.16224727379E-01  0.23471725162E-01  0.51100000000E-03 0. -1.
</event>
<event>
 8    1  0.1088270E+005  0.1043930E+01  0.7957747E-01            NaN
         13   -1    0    0    0    0  0.00000000000E+00  0.00000000000E+00  0.74505805969E-08  0.10566000000E+00  0.10566000000E+00 0.  1.
     999900   -1    0    0    0    0 -0.00000000000E+00 -0.00000000000E+00 -0.74505805969E-08  0.93827000000E+00  0.93827000000E+00 0.  1.
     999902    2    1    2    0    0  0.75834522691E-02  0.18454263311E-01  0.12304604097E-01  0.10204891838E+01  0.10202199284E+01 0.  0.
     999903    2    3    3    0    0 -0.86565395494E-01 -0.53342697329E-01  0.78643812864E-01  0.13008494991E+00  0.19955797044E-01 0.  0.
         14    1    1    2    0    0 -0.75834522691E-02 -0.18454263311E-01 -0.12304604097E-01  0.23440816211E-01  0.00000000000E+00 0. -1.
     999901    1    3    3    0    0  0.94148847763E-01  0.71796960639E-01 -0.66339208767E-01  0.89040423388E+00  0.88000000000E+00 0.  1.
        -11    1    4    4    0    0 -0.30835750234E-01 -0.86090116593E-02  0.27467657673E-01  0.42186394884E-01  0.51100000000E-03 0. -1.
         11    1    4    4    0    0 -0.55729645260E-01 -0.44733685669E-01  0.51176155191E-01  0.87898555025E-01  0.51100000000E-03 0.  1.
</event>
<event>
 8    1  0.1088270E+005  0.1043930E+01  0.7957747E-01            NaN
         13   -1    0    0    0    0  0.00000000000E+00  0.00000000000E+00  0.74505805969E-08  0.10566000000E+00  0.10566000000E+00 0.  1.
     999900   -1    0    0    0    0 -0.00000000000E+00 -0.00000000000E+00 -0.74505805969E-08  0.93827000000E+00  0.93827000000E+00 0. -1.
     999902    2    1    2    0    0 -0.21596061563E-01  0.52703258338E-02 -0.43518086656E-02  0.10212781911E+01  0.10210269532E+01 0.  0.
     999903    2    3    3    0    0 -0.86057480987E-02  0.20565575192E-01 -0.12887032393E+00  0.13228575378E+00  0.19873562361E-01 0.  0.
         14    1    1    2    0    0  0.21596061563E-01 -0.52703258338E-02  0.43518086656E-02  0.22651808937E-01  0.00000000000E+00 0.  1.
     999901    1    3    3    0    0 -0.12990313465E-01 -0.15295249358E-01  0.12451851526E+00  0.88899243728E+00  0.88000000000E+00 0.  1.
        -11    1    4    4    0    0  0.58368124643E-02  0.35882903382E-02 -0.19746825168E-01  0.20907951419E-01  0.51100000000E-03 0. -1.
         11    1    4    4    0    0 -0.14442560563E-01  0.16977284854E-01 -0.10912349876E+00  0.11137780237E+00  0.51100000000E-03 0.  1.
</event>
<event>
 8    1  0.1088270E+005  0.1043930E+01  0.7957747E-01            NaN
         13   -1    0    0    0    0  0.00000000000E+00  0.00000000000E+00  0.74505805969E-08  0.10566000000E+00  0.10566000000E+00 0.  1.
     999900   -1    0    0    0    0 -0.00000000000E+00 -0.00000000000E+00 -0.74505805969E-08  0.93827000000E+00  0.93827000000E+00 0. -1.
     999902    2    1    2    0    0 -0.13598658954E-01 -0.16859049816E-01  0.13490680931E-02  0.10222281321E+01  0.10219977412E+01 0.  0.
     999903    2    3    3    0    0  0.11256456482E+00  0.26474773178E-01 -0.56627627185E-01  0.13028851729E+00  0.19917698421E-01 0.  0.
         14    1    1    2    0    0  0.13598658954E-01  0.16859049816E-01 -0.13490680931E-02  0.21701867909E-01  0.00000000000E+00 0. -1.
     999901    1    3    3    0    0 -0.12616322377E+00 -0.43333822993E-01  0.57976695278E-01  0.89193961480E+00  0.88000000000E+00 0.  1.
        -11    1    4    4    0    0  0.14710760991E-01  0.97302127215E-02 -0.47466791236E-02  0.18272263468E-01  0.51100000000E-03 0.  1.
         11    1    4    4    0    0  0.97853803829E-01  0.16744560456E-01 -0.51880948061E-01  0.11201625383E+00  0.51100000000E-03 0. -1.
</event>
<event>
 8    1  0.1088270E+005  0.1043930E+01  0.7957747E-01            NaN
         13   -1    0    0    0    0  0.00000000000E+00  0.00000000000E+00  0.74505805969E-08  0.10566000000E+00  0.10566000000E+00 0.  1.
     999900   -1    0    0    0    0 -0.00000000000E+00 -0.00000000000E+00 -0.74505805969E-08  0.93827000000E+00  0.93827000000E+00 0.  1.
     999902    2    1    2    0    0 -0.21168640949E-01  0.73088994847E-02  0.81883714231E-02  0.10200850677E+01  0.10198063368E+01 0.  0.
     999903    2    3    3    0    0 -0.94093579282E-01  0.90625304801E-01  0.11928984751E-01  0.13313881100E+00  0.22739718240E-01 0.  0.
         14    1    1    2    0    0  0.21168640949E-01 -0.73088994847E-02 -0.81883714231E-02  0.23844932331E-01  0.00000000000E+00 0. -1.
     999901    1    3    3    0    0  0.72924938334E-01 -0.83316405317E-01 -0.37406133279E-02  0.88694625667E+00  0.88000000000E+00 0.  1.
        -11    1    4    4    0    0 -0.39968514446E-01  0.48257160978E-01  0.14634830415E-01  0.64348077788E-01  0.51100000000E-03 0. -1.
         11    1    4    4    0    0 -0.54125064836E-01  0.42368143823E-01 -0.27058456643E-02  0.68790733215E-01  0.51100000000E-03 0.  1.
</event>
<event>
 8    1  0.1088270E+005  0.1043930E+01  0.7957747E-01            NaN
         13   -1    0    0    0    0  0.00000000000E+00  0.00000000000E+00  0.74505805969E-08  0.10566000000E+00  0.10566000000E+00 0.  1.
     999900   -1    0    0    0    0 -0.00000000000E+00 -0.00000000000E+00 -0.74505805969E-08  0.93827000000E+00  0.93827000000E+00 0. -1.
     999902    2    1    2    0    0 -0.78812585040E-02  0.19687226419E-01 -0.11202932356E-01  0.10199465304E+01  0.10196645125E+01 0.  0.
     999903    2    3    3    0    0 -0.12941966074E+00 -0.19346021064E-02  0.74861153180E-02  0.13113363268E+00  0.19667140781E-01 0.  0.
         14    1    1    2    0    0  0.78812585040E-02 -0.19687226419E-01  0.11202932356E-01  0.23983469579E-01  0.00000000000E+00 0. -1.
     999901    1    3    3    0    0  0.12153840223E+00  0.21621828525E-01 -0.18689047674E-01  0.88881289774E+00  0.88000000000E+00 0.  1.
        -11    1    4    4    0    0 -0.10666226276E+00  0.42459487982E-02  0.10890060477E-01  0.10730200798E+00  0.51100000000E-03 0.  1.
         11    1    4    4    0    0 -0.22757397974E-01 -0.61805509046E-02 -0.34039451590E-02  0.23831624697E-01  0.51100000000E-03 0. -1.
</event>
<event>
 8    1  0.1088270E+005  0.1043930E+01  0.7957747E-01            NaN
         13   -1    0    0    0    0  0.00000000000E+00  0.00000000000E+00  0.74505805969E-08  0.10566000000E+00  0.10566000000E+00 0.  1.
     999900   -1    0    0    0    0 -0.00000000000E+00 -0.00000000000E+00 -0.74505805969E-08  0.93827000000E+00  0.93827000000E+00 0. -1.
     999902    2    1    2    0    0 -0.19163105493E-02  0.12908173479E-01  0.19156709835E-01  0.10207508559E+01  0.10204876467E+01 0.  0.
     999903    2    3    3    0    0  0.98452231353E-01 -0.60795947291E-01  0.58418955478E-01  0.13111741143E+00  0.19748725401E-01 0.  0.
         14    1    1    2    0    0  0.19163105493E-02 -0.12908173479E-01 -0.19156709835E-01  0.23179144082E-01  0.00000000000E+00 0. -1.
     999901    1    3    3    0    0 -0.10036854190E+00  0.73704120770E-01 -0.39262245643E-01  0.88963344449E+00  0.88000000000E+00 0. -1.
        -11    1    4    4    0    0  0.25801855944E-01 -0.64609687708E-02  0.14984819020E-01  0.30533355689E-01  0.51100000000E-03 0.  1.
         11    1    4    4    0    0  0.72650375410E-01 -0.54334978520E-01  0.43434136458E-01  0.10058405574E+00  0.51100000000E-03 0. -1.
</event>
<event>
 8    1  0.1088270E+005  0.1043930E+01  0.7957747E-01            NaN
         13   -1    0    0    0    0  0.00000000000E+00  0.00000000000E+00  0.74505805969E-08  0.10566000000E+00  0.10566000000E+00 0.  1.
     999900   -1    0    0    0    0 -0.00000000000E+00 -0.00000000000E+00 -0.74505805969E-08  0.93827000000E+00  0.93827000000E+00 0. -1.
     999902    2    1    2    0    0  0.22500923908E-01 -0.12588177649E-01 -0.16124824570E-02  0.10180968064E+01  0.10177690078E+01 0.  0.
     999903    2    3    3    0    0 -0.24586070831E-01  0.46789104795E-01  0.11397725871E+00  0.12730848415E+00  0.20565491162E-01 0.  0.
         14    1    1    2    0    0 -0.22500923908E-01  0.12588177649E-01  0.16124824570E-02  0.25833193626E-01  0.00000000000E+00 0. -1.
     999901    1    3    3    0    0  0.47086994740E-01 -0.59377282444E-01 -0.11558974117E+00  0.89078832222E+00  0.88000000000E+00 0. -1.
        -11    1    4    4    0    0 -0.53221222572E-02  0.23653273034E-01  0.33289139850E-01  0.41185316115E-01  0.51100000000E-03 0. -1.
         11    1    4    4    0    0 -0.19263948574E-01  0.23135831761E-01  0.80688118863E-01  0.86123168037E-01  0.51100000000E-03 0.  1.
</event>
<event>
 8    1  0.1088270E+005  0.1043930E+01  0.7957747E-01            NaN
         13   -1    0    0    0    0  0.00000000000E+00  0.00000000000E+00  0.74505805969E-08  0.10566000000E+00  0.10566000000E+00 0.  1.
     999900   -1    0    0    0    0 -0.00000000000E+00 -0.00000000000E+00 -0.74505805969E-08  0.93827000000E+00  0.93827000000E+00 0.  1.
     999902    2    1    2    0    0  0.20318734022E-01  0.97290790634E-02  0.52203551679E-02  0.10208051640E+01  0.10205432009E+01 0.  0.
     999903    2    3    3    0    0 -0.76473962406E-01 -0.67248679800E-01 -0.75748415197E-01  0.12847655681E+00  0.19943705389E-01 0.  0.
         14    1    1    2    0    0 -0.20318734022E-01 -0.97290790634E-02 -0.52203551679E-02  0.23124835994E-01  0.00000000000E+00 0.  1.
     999901    1    3    3    0    0  0.96792696428E-01  0.76977758864E-01  0.80968770364E-01  0.89232860719E+00  0.88000000000E+00 0. -1.
        -11    1    4    4    0    0 -0.33780720642E-01 -0.42938532882E-01 -0.40342775026E-01  0.67916531941E-01  0.51100000000E-03 0. -1.
         11    1    4    4    0    0 -0.42693241764E-01 -0.24310146919E-01 -0.35405640170E-01  0.60560024871E-01  0.51100000000E-03 0.  1.
</event>
<event>
 8    1  0.1088270E+005  0.1043930E+01  0.7957747E-01            NaN
         13   -1    0    0    0    0  0.00000000000E+00  0.00000000000E+00  0.74505805969E-08  0.10566000000E+00  0.10566000000E+00 0. -1.
     999900   -1    0    0    0    0 -0.00000000000E+00 -0.00000000000E+00 -0.74505805969E-08  0.93827000000E+00  0.93827000000E+00 0.  1.
     999902    2    1    2    0    0  0.20985526400E-01 -0.57794237864E-02 -0.60030257214E-03  0.10221549128E+01  0.10219229479E+01 0.  0.
     999903    2    3    3    0    0  0.45141217462E-01 -0.11939286898E+00  0.35026234276E-01  0.13380770456E+00  0.19628500572E-01 0.  0.
         14    1    1    2    0    0 -0.20985526400E-01  0.57794237864E-02  0.60030257214E-03  0.21775087159E-01  0.00000000000E+00 0.  1.
     999901    1    3    3    0    0 -0.24155691062E-01  0.11361344519E+00 -0.35626536849E-01  0.88834720828E+00  0.88000000000E+00 0. -1.
        -11    1    4    4    0    0  0.29687602951E-01 -0.73283782068E-01  0.11915305633E-01  0.79963129707E-01  0.51100000000E-03 0. -1.
         11    1    4    4    0    0  0.15453614511E-01 -0.46109086909E-01  0.23110928643E-01  0.53844574850E-01  0.51100000000E-03 0.  1.
</event>
<event>
 8    1  0.1088270E+005  0.1043930E+01  0.7957747E-01            NaN
         13   -1    0    0    0    0  0.00000000000E+00  0.00000000000E+00  0.74505805969E-08  0.10566000000E+00  0.10566000000E+00 0.  1.
     999900   -1    0    0    0    0 -0.00000000000E+00 -0.00000000000E+00 -0.74505805969E-08  0.93827000000E+00  0.93827000000E+00 0.  1.
     999902    2    1    2    0    0 -0.13620653385E-01  0.15488140859E-01 -0.12189431912E-01  0.10199719751E+01  0.10196905624E+01 0.  0.
     999903    2    3    3    0    0 -0.79298520605E-01  0.53206757858E-01 -0.90807160665E-01  0.13322678986E+00  0.19601598290E-01 0.  0.
         14    1    1    2    0    0  0.13620653385E-01 -0.15488140859E-01  0.12189431912E-01  0.23958024882E-01  0.00000000000E+00 0.  1.
     999901    1    3    3    0    0  0.65677867220E-01 -0.37718616999E-01  0.78617728753E-01  0.88674518526E+00  0.88000000000E+00 0. -1.
        -11    1    4    4    0    0 -0.59277686341E-01  0.42428934025E-01 -0.57267805344E-01  0.92703404416E-01  0.51100000000E-03 0.  1.
         11    1    4    4    0    0 -0.20020834264E-01  0.10777823833E-01 -0.33539355321E-01  0.40523385440E-01  0.51100000000E-03 0. -1.
</event>
<event>
 8    1  0.1088270E+005  0.1043930E+01  0.7957747E-01            NaN
         13   -1    0    0    0    0  0.00000000000E+00  0.00000000000E+00  0.74505805969E-08  0.10566000000E+00  0.10566000000E+00 0.  1.
     999900   -1    0    0    0    0 -0.00000000000E+00 -0.00000000000E+00 -0.74505805969E-08  0.93827000000E+00  0.93827000000E+00 0.  1.
     999902    2    1    2    0    0 -0.14102527457E-01  0.12906229908E-01  0.15178326347E-01  0.10195202962E+01  0.10192280415E+01 0.  0.
     999903    2    3    3    0    0 -0.10955078009E+00 -0.60583406677E-01 -0.29518083445E-01  0.13018972507E+00  0.20157496862E-01 0.  0.
         14    1    1    2    0    0  0.14102527457E-01 -0.12906229908E-01 -0.15178326347E-01  0.24409703845E-01  0.00000000000E+00 0. -1.
     999901    1    3    3    0    0  0.95448252638E-01  0.73489636586E-01  0.44696409791E-01  0.88933057108E+00  0.88000000000E+00 0.  1.
        -11    1    4    4    0    0 -0.45730936460E-01 -0.28813568544E-01 -0.22512255259E-01  0.58554274307E-01  0.51100000000E-03 0. -1.
         11    1    4    4    0    0 -0.63819843635E-01 -0.31769838133E-01 -0.70058281855E-02  0.71635450764E-01  0.51100000000E-03 0.  1.
</event>
<event>
 8    1  0.1088270E+005  0.1043930E+01  0.7957747E-01            NaN
         13   -1    0    0    0    0  0.00000000000E+00  0.00000000000E+00  0.74505805969E-08  0.10566000000E+00  0.10566000000E+00 0.  1.
     999900   -1    0    0    0    0 -0.00000000000E+00 -0.00000000000E+00 -0.74505805969E-08  0.93827000000E+00  0.93827000000E+00 0. -1.
     999902    2    1    2    0    0  0.65231611923E-02 -0.22509097321E-01 -0.51920711555E-03  0.10204889960E+01  0.10202197362E+01 0.  0.
     999903    2    3    3    0    0 -0.12579626835E+00 -0.11112870840E-02  0.25791783485E-01  0.12995063860E+00  0.19900157940E-01 0.  0.
         14    1    1    2    0    0 -0.65231611923E-02  0.22509097321E-01  0.51920711555E-03  0.23441004035E-01  0.00000000000E+00 0.  1.
     999901    1    3    3    0    0  0.13231942954E+00 -0.21397810237E-01 -0.26310990600E-01  0.89053835737E+00  0.88000000000E+00 0. -1.
        -11    1    4    4    0    0 -0.52517535393E-01 -0.76789441212E-02  0.40573099706E-02  0.53233265838E-01  0.51100000000E-03 0. -1.
         11    1    4    4    0    0 -0.73278732959E-01  0.65676570372E-02  0.21734473514E-01  0.76717372759E-01  0.51100000000E-03 0.  1.
</event>
<event>
 8    1  0.1088270E+005  0.1043930E+01  0.7957747E-01            NaN
         13   -1    0    0    0    0  0.00000000000E+00  0.00000000000E+00  0.74505805969E-08  0.10566000000E+00  0.10566000000E+00 0. -1.
     999900   -1    0    0    0    0 -0.00000000000E+00 -0.00000000000E+00 -0.74505805969E-08  0.93827000000E+00  0.93827000000E+00 0. -1.
     999902    2    1    2    0    0  0.22608870726E-01 -0.68082009855E-02 -0.44586944750E-02  0.10199010052E+01  0.10196179028E+01 0.  0.
     999903    2    3    3    0    0  0.47209567273E-01  0.90315318849E-01 -0.79772783350E-01  0.13101946955E+00  0.20415787462E-01 0.  0.
         14    1    1    2    0    0 -0.22608870726E-01  0.68082009855E-02  0.44586944750E-02  0.24028994831E-01  0.00000000000E+00 0. -1.
     999901    1    3    3    0    0 -0.24600696547E-01 -0.97123519834E-01  0.75314088875E-01  0.88888153562E+00  0.88000000000E+00 0.  1.
        -11    1    4    4    0    0  0.17233947085E-01  0.28424104527E-01 -0.14726071993E-01  0.36360101315E-01  0.51100000000E-03 0. -1.
         11    1    4    4    0    0  0.29975620188E-01  0.61891214322E-01 -0.65046711357E-01  0.94659368238E-01  0.51100000000E-03 0.  1.
</event>
<event>
 8    1  0.1088270E+005  0.1043930E+01  0.7957747E-01            NaN
         13   -1    0    0    0    0  0.00000000000E+00  0.00000000000E+00  0.74505805969E-08  0.10566000000E+00  0.10566000000E+00 0. -1.
     999900   -1    0    0    0    0 -0.00000000000E+00 -0.00000000000E+00 -0.74505805969E-08  0.93827000000E+00  0.93827000000E+00 0. -1.
     999902    2    1    2    0    0 -0.18324526101E-01 -0.88498015106E-02  0.11299172071E-01  0.10206538634E+01  0.10203884213E+01 0.  0.
     999903    2    3    3    0    0  0.16850198884E-01 -0.39946450941E-01 -0.12048004589E+00  0.12960390683E+00  0.20052008957E-01 0.  0.
         14    1    1    2    0    0  0.18324526101E-01  0.88498015106E-02 -0.11299172071E-01  0.23276136559E-01  0.00000000000E+00 0. -1.
     999901    1    3    3    0    0 -0.35174724985E-01  0.31096649431E-01  0.13177921796E+00  0.89104995661E+00  0.88000000000E+00 0.  1.
        -11    1    4    4    0    0 -0.13141767283E-02 -0.18987336556E-01 -0.36601830295E-01  0.41257740025E-01  0.51100000000E-03 0.  1.
         11    1    4    4    0    0  0.18164375612E-01 -0.20959114385E-01 -0.83878215596E-01  0.88346166809E-01  0.51100000000E-03 0. -1.
</event>
<event>
 8    1  0.1088270E+005  0.1043930E+01  0.7957747E-01            NaN
         13   -1    0    0    0    0  0.00000000000E+00  0.00000000000E+00  0.74505805969E-08  0.10566000000E+00  0.10566000000E+00 0. -1.
     999900   -1    0    0    0    0 -0.00000000000E+00 -0.00000000000E+00 -0.74505805969E-08  0.93827000000E+00  0.93827000000E+00 0. -1.
     999902    2    1    2    0    0  0.32288941136E-02  0.65991364680E-02  0.22514225232E-01  0.10202474179E+01  0.10199725138E+01 0.  0.
     999903    2    3    3    0    0 -0.71996590141E-01 -0.58072640463E-01 -0.86230175713E-01  0.12802174183E+00  0.19949501650E-01 0.  0.
         14    1    1    2    0    0 -0.32288941136E-02 -0.65991364680E-02 -0.22514225232E-01  0.23682582146E-01  0.00000000000E+00 0.  1.
     999901    1    3    3    0    0  0.75225484255E-01  0.64671776932E-01  0.10874440095E+00  0.89222567602E+00  0.88000000000E+00 0.  1.
        -11    1    4    4    0    0 -0.57001388552E-01 -0.34562557183E-01 -0.63047524453E-01  0.91755000499E-01  0.51100000000E-03 0.  1.
         11    1    4    4    0    0 -0.14995201589E-01 -0.23510083281E-01 -0.23182651260E-01  0.36266741334E-01  0.51100000000E-03 0. -1.
</event>
<event>
 8    1  0.1088270E+005  0.1043930E+01  0.7957747E-01            NaN
         13   -1    0    0    0    0  0.00000000000E+00  0.00000000000E+00  0.74505805969E-08  0.10566000000E+00  0.10566000000E+00 0. -1.
     999900   -1    0    0    0    0 -0.00000000000E+00 -0.00000000000E+00 -0.74505805969E-08  0.93827000000E+00  0.93827000000E+00 0. -1.
     999902    2    1    2    0    0  0.47063590817E-02 -0.47371067749E-02  0.22883775488E-01  0.10200918546E+01  0.10198132842E+01 0.  0.
     999903    2    3    3    0    0  0.10173157660E+00 -0.59713532532E-01 -0.50456664979E-01  0.13002718253E+00  0.21122819672E-01 0.  0.
         14    1    1    2    0    0 -0.47063590817E-02  0.47371067749E-02 -0.22883775488E-01  0.23838145418E-01  0.00000000000E+00 0.  1.
     999901    1    3    3    0    0 -0.97025217521E-01  0.54976425757E-01  0.73340440467E-01  0.89006467205E+00  0.88000000000E+00 0.  1.
        -11    1    4    4    0    0  0.54562473552E-01 -0.39107979928E-01 -0.37701156202E-01  0.76994388849E-01  0.51100000000E-03 0.  1.
         11    1    4    4    0    0  0.47169103050E-01 -0.20605552603E-01 -0.12755508777E-01  0.53032793683E-01  0.51100000000E-03 0. -1.
</event>
<event>
 8    1  0.1088270E+005  0.1043930E+01  0.7957747E-01            NaN
         13   -1    0    0    0    0  0.00000000000E+00  0.00000000000E+00  0.74505805969E-08  0.10566000000E+00  0.10566000000E+00 0.  1.
     999900   -1    0    0    0    0 -0.00000000000E+00 -0.00000000000E+00 -0.74505805969E-08  0.93827000000E+00  0.93827000000E+00 0.  1.
     999902    2    1    2    0    0 -0.18079786897E-02 -0.14534896532E-01 -0.18400249785E-01  0.10204118964E+01  0.10201408418E+01 0.  0.
     999903    2    3    3    0    0  0.65842792021E-01 -0.11285661336E+00 -0.42217859928E-02  0.13224253440E+00  0.19959358422E-01 0.  0.
         14    1    1    2    0    0  0.18079786897E-02  0.14534896532E-01  0.18400249785E-01  0.23518103586E-01  0.00000000000E+00 0.  1.
     999901    1    3    3    0    0 -0.67650770711E-01  0.98321716827E-01 -0.14178463792E-01  0.88816936201E+00  0.88000000000E+00 0.  1.
        -11    1    4    4    0    0  0.76506359227E-02 -0.13019211237E-01 -0.69934722725E-02  0.16649380369E-01  0.51100000000E-03 0. -1.
         11    1    4    4    0    0  0.58192156098E-01 -0.99837402122E-01  0.27716862797E-02  0.11559315403E+00  0.51100000000E-03 0.  1.
</event>
<event>
 8    1  0.1088270E+005  0.1043930E+01  0.7957747E-01            NaN
         13   -1    0    0    0    0  0.00000000000E+00  0.00000000000E+00  0.74505805969E-08  0.10566000000E+00  0.10566000000E+00 0.  1.
     999900   -1    0    0    0    0 -0.00000000000E+00 -0.00000000000E+00 -0.74505805969E-08  0.93827000000E+00  0.93827000000E+00 0.  1.
     999902    2    1    2    0    0  0.39099480325E-02 -0.72280988201E-03  0.23022991385E-01  0.10205661758E+01  0.10202987067E+01 0.  0.
     999903    2    3    3    0    0  0.76342783168E-01 -0.94316092860E-01 -0.43154388801E-01  0.13018105473E+00  0.19001574228E-01 0.  0.
         14    1    1    2    0    0 -0.39099480325E-02  0.72280988201E-03 -0.23022991385E-01  0.23363824174E-01  0.00000000000E+00 0. -1.
     999901    1    3    3    0    0 -0.72432835136E-01  0.93593282978E-01  0.66177380185E-01  0.89038512110E+00  0.88000000000E+00 0.  1.
        -11    1    4    4    0    0  0.49065231368E-01 -0.72652258126E-01 -0.35026839321E-01  0.94408093582E-01  0.51100000000E-03 0.  1.
         11    1    4    4    0    0  0.27277551801E-01 -0.21663834734E-01 -0.81275494798E-02  0.35772961146E-01  0.51100000000E-03 0. -1.
</event>
<event>
 8    1  0.1088270E+005  0.1043930E+01  0.7957747E-01            NaN
         13   -1    0    0    0    0  0.00000000000E+00  0.00000000000E+00  0.74505805969E-08  0.10566000000E+00  0.10566000000E+00 0. -1.
     999900   -1    0    0    0    0 -0.00000000000E+00 -0.00000000000E+00 -0.74505805969E-08  0.93827000000E+00  0.93827000000E+00 0. -1.
     999902    2    1    2    0    0  0.22221053229E-01  0.80498388520E-02  0.13888925353E-02  0.10202550315E+01  0.10199803062E+01 0.  0.
     999903    2    3    3    0    0  0.10816427514E+00 -0.56505533809E-01  0.47568571253E-01  0.13251284128E+00  0.20112144735E-01 0.  0.
         14    1    1    2    0    0 -0.22221053229E-01 -0.80498388520E-02 -0.13888925353E-02  0.23674968524E-01  0.00000000000E+00 0.  1.
     999901    1    3    3    0    0 -0.85943221906E-01  0.64555372661E-01 -0.46179678717E-01  0.88774219020E+00  0.88000000000E+00 0. -1.
        -11    1    4    4    0    0  0.67167303456E-01 -0.43312752144E-01  0.24174680784E-01  0.83499206367E-01  0.51100000000E-03 0. -1.
         11    1    4    4    0    0  0.40996971679E-01 -0.13192781665E-01  0.23393890468E-01  0.49013634911E-01  0.51100000000E-03 0.  1.
</event>
<event>
 8    1  0.1088270E+005  0.1043930E+01  0.7957747E-01            NaN
         13   -1    0    0    0    0  0.00000000000E+00  0.00000000000E+00  0.74505805969E-08  0.10566000000E+00  0.10566000000E+00 0.  1.
     999900   -1    0    0    0    0 -0.00000000000E+00 -0.00000000000E+00 -0.74505805969E-08  0.93827000000E+00  0.93827000000E+00 0. -1.
     999902    2    1    2    0    0  0.21501186790E-01  0.34878272699E-02  0.47471795873E-02  0.10216364654E+01  0.10213931984E+01 0.  0.
     999903    2    3    3    0    0 -0.94303913423E-01  0.82682970461E-01  0.26208933190E-01  0.13026488246E+00  0.23501696385E-01 0.  0.
         14    1    1    2    0    0 -0.21501186790E-01 -0.34878272699E-02 -0.47471795873E-02  0.22293534634E-01  0.00000000000E+00 0. -1.
     999901    1    3    3    0    0  0.11580510021E+00 -0.79195143191E-01 -0.21461753602E-01  0.89137158290E+00  0.88000000000E+00 0. -1.
        -11    1    4    4    0    0 -0.54917222998E-01  0.33064340767E-01  0.10093240577E-01  0.64894426868E-01  0.51100000000E-03 0.  1.
         11    1    4    4    0    0 -0.39386690425E-01  0.49618629693E-01  0.16115692612E-01  0.65370455595E-01  0.51100000000E-03 0. -1.
</event>
<event>
 8    1  0.1088270E+005  0.1043930E+01  0.7957747E-01            NaN
         13   -1    0    0    0    0  0.00000000000E+00  0.00000000000E+00  0.74505805969E-08  0.10566000000E+00  0.10566000000E+00 0.  1.
     999900   -1    0    0    0    0 -0.00000000000E+00 -0.00000000000E+00 -0.74505805969E-08  0.93827000000E+00  0.93827000000E+00 0. -1.
     999902    2    1    2    0    0 -0.12985971346E-01 -0.21394729296E-01  0.20106945806E-02  0.10188219777E+01  0.10185125475E+01 0.  0.
     999903    2    3    3    0    0 -0.87334367662E-01  0.68593559312E-01  0.62354849768E-01  0.12906527316E+00  0.20912897768E-01 0.  0.
         14    1    1    2    0    0  0.12985971346E-01  0.21394729296E-01 -0.20106945806E-02  0.25108022346E-01  0.00000000000E+00 0. -1.
     999901    1    3    3    0    0  0.74348396315E-01 -0.89988288608E-01 -0.60344155187E-01  0.88975670449E+00  0.88000000000E+00 0.  1.
        -11    1    4    4    0    0 -0.56361222037E-01  0.54668694601E-01  0.49092614315E-01  0.92604532395E-01  0.51100000000E-03 0.  1.
         11    1    4    4    0    0 -0.30973145625E-01  0.13924864711E-01  0.13262235453E-01  0.36460740768E-01  0.51100000000E-03 0. -1.
</event>
<event>
 8    1  0.1088270E+005  0.1043930E+01  0.7957747E-01            NaN
         13   -1    0    0    0    0  0.00000000000E+00  0.00000000000E+00  0.74505805969E-08  0.10566000000E+00  0.10566000000E+00 0. -1.
     999900   -1    0    0    0    0 -0.00000000000E+00 -0.00000000000E+00 -0.74505805969E-08  0.93827000000E+00  0.93827000000E+00 0. -1.
     999902    2    1    2    0    0 -0.63427778739E-02 -0.18985064608E-01 -0.12350944382E-01  0.10204095974E+01  0.10201384892E+01 0.  0.
     999903    2    3    3    0    0 -0.33624057991E-01 -0.71714976238E-01 -0.10565354253E+00  0.13348790606E+00  0.19563612216E-01 0.  0.
         14    1    1    2    0    0  0.63427778739E-02  0.18985064608E-01  0.12350944382E-01  0.23520402557E-01  0.00000000000E+00 0. -1.
     999901    1    3    3    0    0  0.27281280117E-01  0.52729911630E-01  0.93302598146E-01  0.88692169138E+00  0.88000000000E+00 0.  1.
        -11    1    4    4    0    0 -0.73669884416E-02 -0.37859421371E-01 -0.54317219614E-01  0.66620040325E-01  0.51100000000E-03 0.  1.
         11    1    4    4    0    0 -0.26257069549E-01 -0.33855554868E-01 -0.51336322913E-01  0.66867865735E-01  0.51100000000E-03 0. -1.
</event>
<event>
 8    1  0.1088270E+005  0.1043930E+01  0.7957747E-01            NaN
         13   -1    0    0    0    0  0.00000000000E+00  0.00000000000E+00  0.74505805969E-08  0.10566000000E+00  0.10566000000E+00 0. -1.
     999900   -1    0    0    0    0 -0.00000000000E+00 -0.00000000000E+00 -0.74505805969E-08  0.93827000000E+00  0.93827000000E+00 0. -1.
     999902    2    1    2    0    0 -0.87961358916E-02  0.20541434193E-01  0.19632298302E-01  0.10141852582E+01  0.10137489770E+01 0.  0.
     999903    2    3    3    0    0 -0.11419239233E+00 -0.16414993950E-01  0.48058889024E-01  0.12667062766E+00  0.20650341510E-01 0.  0.
         14    1    1    2    0    0  0.87961358916E-02 -0.20541434193E-01 -0.19632298302E-01  0.29744741753E-01  0.00000000000E+00 0.  1.
     999901    1    3    3    0    0  0.10539625644E+00  0.36956428143E-01 -0.28426590722E-01  0.88751463059E+00  0.88000000000E+00 0. -1.
        -11    1    4    4    0    0 -0.91921246425E-01 -0.47589944703E-02  0.38485464669E-01  0.99767508160E-01  0.51100000000E-03 0.  1.
         11    1    4    4    0    0 -0.22271145905E-01 -0.11655999480E-01  0.95734243553E-02  0.26903119497E-01  0.51100000000E-03 0. -1.
</event>
<event>
 8    1  0.1208966E+005  0.1043930E+01  0.7957747E-01            NaN
         13   -1    0    0    0    0  0.00000000000E+00  0.00000000000E+00  0.74505805969E-08  0.10566000000E+00  0.10566000000E+00 0.  1.
     999900   -1    0    0    0    0 -0.00000000000E+00 -0.00000000000E+00 -0.74505805969E-08  0.93827000000E+00  0.93827000000E+00 0.  1.
     999902    2    1    2    0    0  0.21751162280E-01  0.53501908585E-02  0.69300842843E-02  0.10204829603E+01  0.10202135603E+01 0.  0.
     999903    2    3    3    0    0  0.18694386316E-02  0.25556039251E-01 -0.12602017323E+00  0.13004524197E+00  0.19341017407E-01 0.  0.
         14    1    1    2    0    0 -0.21751162280E-01 -0.53501908585E-02 -0.69300842843E-02  0.23447039705E-01  0.00000000000E+00 0. -1.
     999901    1    3    3    0    0  0.19881723649E-01 -0.20205848393E-01  0.13295025752E+00  0.89043771833E+00  0.88000000000E+00 0. -1.
        -11    1    4    4    0    0 -0.30965051166E-02  0.23915646423E-01 -0.75664742222E-01  0.79416376298E-01  0.51100000000E-03 0.  1.
         11    1    4    4    0    0  0.49659437482E-02  0.16403928283E-02 -0.50355431010E-01  0.50628865671E-01  0.51100000000E-03 0. -1.
</event>
<event>
 8    1  0.1088270E+005  0.1043930E+01  0.7957747E-01            NaN
         13   -1    0    0    0    0  0.00000000000E+00  0.00000000000E+00  0.74505805969E-08  0.10566000000E+00  0.10566000000E+00 0.  1.
     999900   -1    0    0    0    0 -0.00000000000E+00 -0.00000000000E+00 -0.74505805969E-08  0.93827000000E+00  0.93827000000E+00 0. -1.
     999902    2    1    2    0    0  0.66731471134E-04 -0.14977068184E-01  0.17477867490E-01  0.10209127700E+01  0.10206532668E+01 0.  0.
     999903    2    3    3    0    0 -0.10917827817E+00 -0.30776494548E-01  0.65307999651E-01  0.13272820836E+00  0.22012574492E-01 0.  0.
         14    1    1    2    0    0 -0.66731471134E-04  0.14977068184E-01 -0.17477867490E-01  0.23017229992E-01  0.00000000000E+00 0. -1.
     999901    1    3    3    0    0  0.10924500964E+00  0.15799426365E-01 -0.47830132160E-01  0.88818456165E+00  0.88000000000E+00 0. -1.
        -11    1    4    4    0    0 -0.24376858023E-01 -0.83706045939E-02  0.49381229029E-02  0.26247750515E-01  0.51100000000E-03 0. -1.
         11    1    4    4    0    0 -0.84801420147E-01 -0.22405889955E-01  0.60369876748E-01  0.10648045785E+00  0.51100000000E-03 0.  1.
</event>
<event>
 8    1  0.1088270E+005  0.1043930E+01  0.7957747E-01            NaN
         13   -1    0    0    0    0  0.00000000000E+00  0.00000000000E+00  0.74505805969E-08  0.10566000000E+00  0.10566000000E+00 0. -1.
     999900   -1    0    0    0    0 -0.00000000000E+00 -0.00000000000E+00 -0.74505805969E-08  0.93827000000E+00  0.93827000000E+00 0.  1.
     999902    2    1    2    0    0 -0.26491351821E-02  0.22694234726E-01 -0.59972687812E-02  0.10203076919E+01  0.10200342017E+01 0.  0.
     999903    2    3    3    0    0 -0.48565361147E-01  0.11383518280E+00 -0.46859706369E-01  0.13346795947E+00  0.17344191461E-01 0.  0.
         14    1    1    2    0    0  0.26491351821E-02 -0.22694234726E-01  0.59972687812E-02  0.23622308098E-01  0.00000000000E+00 0. -1.
     999901    1    3    3    0    0  0.45916225965E-01 -0.91140948069E-01  0.40862437588E-01  0.88683973244E+00  0.88000000000E+00 0. -1.
        -11    1    4    4    0    0 -0.29104742517E-01  0.76922319586E-01 -0.38910840902E-01  0.90985954675E-01  0.51100000000E-03 0.  1.
         11    1    4    4    0    0 -0.19460618630E-01  0.36912863210E-01 -0.79488654678E-02  0.42482004791E-01  0.51100000000E-03 0. -1.
</event>
<event>
 8    1  0.1088270E+005  0.1043930E+01  0.7957747E-01            NaN
         13   -1    0    0    0    0  0.00000000000E+00  0.00000000000E+00  0.74505805969E-08  0.10566000000E+00  0.10566000000E+00 0.  1.
     999900   -1    0    0    0    0 -0.00000000000E+00 -0.00000000000E+00 -0.74505805969E-08  0.93827000000E+00  0.93827000000E+00 0. -1.
     999902    2    1    2    0    0  0.15327089544E-01 -0.75465893435E-02 -0.13925797655E-01  0.10218891623E+01  0.10216514384E+01 0.  0.
     999903    2    3    3    0    0 -0.80768599824E-01  0.82448633998E-01  0.55012877654E-01  0.12942848382E+00  0.20099048510E-01 0.  0.
         14    1    1    2    0    0 -0.15327089544E-01  0.75465893435E-02  0.13925797655E-01  0.22040837664E-01  0.00000000000E+00 0.  1.
     999901    1    3    3    0    0  0.96095689368E-01 -0.89995223342E-01 -0.68938675309E-01  0.89246067851E+00  0.88000000000E+00 0. -1.
        -11    1    4    4    0    0 -0.13421759180E-01  0.26056565153E-01  0.13839532657E-01  0.32417310070E-01  0.51100000000E-03 0. -1.
         11    1    4    4    0    0 -0.67346840645E-01  0.56392068846E-01  0.41173344997E-01  0.97011173752E-01  0.51100000000E-03 0.  1.
</event>
<event>
 8    1  0.1088270E+005  0.1043930E+01  0.7957747E-01            NaN
         13   -1    0    0    0    0  0.00000000000E+00  0.00000000000E+00  0.74505805969E-08  0.10566000000E+00  0.10566000000E+00 0.  1.
     999900   -1    0    0    0    0 -0.00000000000E+00 -0.00000000000E+00 -0.74505805969E-08  0.93827000000E+00  0.93827000000E+00 0. -1.
     999902    2    1    2    0    0  0.13922531435E-01 -0.18490624241E-01 -0.38056046138E-02  0.10204731739E+01  0.10202035463E+01 0.  0.
     999903    2    3    3    0    0  0.49388635805E-01  0.11259856586E+00 -0.35186696184E-01  0.12950348120E+00  0.20380718158E-01 0.  0.
         14    1    1    2    0    0 -0.13922531435E-01  0.18490624241E-01  0.38056046138E-02  0.23456826147E-01  0.00000000000E+00 0.  1.
     999901    1    3    3    0    0 -0.35466104370E-01 -0.13108919011E+00  0.31381091570E-01  0.89096969266E+00  0.88000000000E+00 0.  1.
        -11    1    4    4    0    0  0.40853027298E-02  0.12412991050E-01  0.24130747297E-02  0.13298725347E-01  0.51100000000E-03 0.  1.
         11    1    4    4    0    0  0.45303333075E-01  0.10018557481E+00 -0.37599770914E-01  0.11620475585E+00  0.51100000000E-03 0. -1.
</event>
<event>
 8    1  0.1088270E+005  0.1043930E+01  0.7957747E-01            NaN
         13   -1    0    0    0    0  0.00000000000E+00  0.00000000000E+00  0.74505805969E-08  0.10566000000E+00  0.10566000000E+00 0.  1.
     999900   -1    0    0    0    0 -0.00000000000E+00 -0.00000000000E+00 -0.74505805969E-08  0.93827000000E+00  0.93827000000E+00 0.  1.
     999902    2    1    2    0    0  0.20708847329E-01 -0.86800226787E-02 -0.14092284455E-02  0.10214314428E+01  0.10211836305E+01 0.  0.
     999903    2    3    3    0    0  0.33520320224E-01  0.12528389278E+00  0.19069757066E-02  0.13119469805E+00  0.19716657508E-01 0.  0.
         14    1    1    2    0    0 -0.20708847329E-01  0.86800226787E-02  0.14092284455E-02  0.22498557203E-01  0.00000000000E+00 0. -1.
     999901    1    3    3    0    0 -0.12811472895E-01 -0.13396391546E+00 -0.33162041520E-02  0.89023674474E+00  0.88000000000E+00 0.  1.
        -11    1    4    4    0    0  0.19641447792E-01  0.10173084104E+00 -0.16325155952E-02  0.10362372662E+00  0.51100000000E-03 0.  1.
         11    1    4    4    0    0  0.13878872432E-01  0.23553051736E-01  0.35394913017E-02  0.27570971433E-01  0.51100000000E-03 0. -1.
</event>
<event>
 8    1  0.1088270E+005  0.1043930E+01  0.7957747E-01            NaN
         13   -1    0    0    0    0  0.00000000000E+00  0.00000000000E+00  0.74505805969E-08  0.10566000000E+00  0.10566000000E+00 0. -1.
     999900   -1    0    0    0    0 -0.00000000000E+00 -0.00000000000E+00 -0.74505805969E-08  0.93827000000E+00  0.93827000000E+00 0.  1.
     999902    2    1    2    0    0  0.13134635209E-01  0.15389284355E-01 -0.74666849316E-02  0.10223638205E+01  0.10221363321E+01 0.  0.
     999903    2    3    3    0    0 -0.83614745510E-01 -0.87299257692E-01  0.42916820147E-01  0.12970269950E+00  0.19192465846E-01 0.  0.
         14    1    1    2    0    0 -0.13134635209E-01 -0.15389284355E-01  0.74666849316E-02  0.21566179516E-01  0.00000000000E+00 0.  1.
     999901    1    3    3    0    0  0.96749380719E-01  0.10268854205E+00 -0.50383505078E-01  0.89266112099E+00  0.88000000000E+00 0.  1.
        -11    1    4    4    0    0 -0.56485255564E-01 -0.69720239262E-01  0.35723360262E-01  0.96581134018E-01  0.51100000000E-03 0. -1.
         11    1    4    4    0    0 -0.27129489946E-01 -0.17579018431E-01  0.71934598843E-02  0.33121565480E-01  0.51100000000E-03 0.  1.
</event>
<event>
 8    1  0.1088270E+005  0.1043930E+01  0.7957747E-01            NaN
         13   -1    0    0    0    0  0.00000000000E+00  0.00000000000E+00  0.74505805969E-08  0.10566000000E+00  0.10566000000E+00 0.  1.
     999900   -1    0    0    0    0 -0.00000000000E+00 -0.00000000000E+00 -0.74505805969E-08  0.93827000000E+00  0.93827000000E+00 0.  1.
     999902    2    1    2    0    0 -0.20032974738E-01  0.18093524029E-01  0.90960965815E-02  0.10154443078E+01  0.10150446825E+01 0.  0.
     999903    2    3    3    0    0  0.11388257947E+00  0.21788242452E-01  0.41059327538E-01  0.12473185432E+00  0.20692938095E-01 0.  0.
         14    1    1    2    0    0  0.20032974738E-01 -0.18093524029E-01 -0.90960965815E-02  0.28485692228E-01  0.00000000000E+00 0. -1.
     999901    1    3    3    0    0 -0.13391555421E+00 -0.36947184231E-02 -0.31963230956E-01  0.89071245345E+00  0.88000000000E+00 0.  1.
        -11    1    4    4    0    0  0.21796325509E-01  0.18236063432E-02  0.16367773318E-01  0.27323441770E-01  0.51100000000E-03 0.  1.
         11    1    4    4    0    0  0.92086253966E-01  0.19964636109E-01  0.24691554219E-01  0.97408412548E-01  0.51100000000E-03 0. -1.
</event>
<event>
 8    1  0.1088270E+005  0.1043930E+01  0.7957747E-01            NaN
         13   -1    0    0    0    0  0.00000000000E+00  0.00000000000E+00  0.74505805969E-08  0.10566000000E+00  0.10566000000E+00 0.  1.
     999900   -1    0    0    0    0 -0.00000000000E+00 -0.00000000000E+00 -0.74505805969E-08  0.93827000000E+00  0.93827000000E+00 0. -1.
     999902    2    1    2    0    0  0.24127109144E-02  0.21519670325E-01  0.84309040681E-02  0.10206921531E+01  0.10204275937E+01 0.  0.
     999903    2    3    3    0    0 -0.52343835094E-01  0.31597253687E-01 -0.11362060054E+00  0.13052564801E+00  0.19724107292E-01 0.  0.
         14    1    1    2    0    0 -0.24127109144E-02 -0.21519670325E-01 -0.84309040681E-02  0.23237846894E-01  0.00000000000E+00 0. -1.
     999901    1    3    3    0    0  0.54756546009E-01 -0.10077583362E-01  0.12205150461E+00  0.89016650510E+00  0.88000000000E+00 0.  1.
        -11    1    4    4    0    0 -0.47215356496E-02 -0.12471762887E-02 -0.18967467379E-01  0.19592710056E-01  0.51100000000E-03 0.  1.
         11    1    4    4    0    0 -0.47622299445E-01  0.32844429976E-01 -0.94653133162E-01  0.11093293795E+00  0.51100000000E-03 0. -1.
</event>
<event>
 8    1  0.1088270E+005  0.1043930E+01  0.7957747E-01            NaN
         13   -1    0    0    0    0  0.00000000000E+00  0.00000000000E+00  0.74505805969E-08  0.10566000000E+00  0.10566000000E+00 0.  1.
     999900   -1    0    0    0    0 -0.00000000000E+00 -0.00000000000E+00 -0.74505805969E-08  0.93827000000E+00  0.93827000000E+00 0. -1.
     999902    2    1    2    0    0 -0.17271944752E-01  0.12244261767E-01 -0.10120230067E-01  0.10204638312E+01  0.10201939863E+01 0.  0.
     999903    2    3    3    0    0 -0.80779062512E-01  0.19152368968E-01 -0.10240574631E+00  0.13333503984E+00  0.19980635469E-01 0.  0.
         14    1    1    2    0    0  0.17271944752E-01 -0.12244261767E-01  0.10120230067E-01  0.23466168804E-01  0.00000000000E+00 0.  1.
     999901    1    3    3    0    0  0.63507117760E-01 -0.69081072010E-02  0.92285516241E-01  0.88712879136E+00  0.88000000000E+00 0.  1.
        -11    1    4    4    0    0 -0.20350163743E-01 -0.35764342089E-02 -0.21466581626E-01  0.29799249885E-01  0.51100000000E-03 0. -1.
         11    1    4    4    0    0 -0.60428898770E-01  0.22728803177E-01 -0.80939164682E-01  0.10353578995E+00  0.51100000000E-03 0.  1.
</event>
<event>
 8    1  0.1088270E+005  0.1043930E+01  0.7957747E-01            NaN
         13   -1    0    0    0    0  0.00000000000E+00  0.00000000000E+00  0.74505805969E-08  0.10566000000E+00  0.10566000000E+00 0. -1.
     999900   -1    0    0    0    0 -0.00000000000E+00 -0.00000000000E+00 -0.74505805969E-08  0.93827000000E+00  0.93827000000E+00 0. -1.
     999902    2    1    2    0    0 -0.20705649856E-01  0.60284873041E-02 -0.84427230717E-02  0.10207708513E+01  0.10205081013E+01 0.  0.
     999903    2    3    3    0    0  0.45845714017E-01 -0.42858603693E-01 -0.11294172165E+00  0.13074890079E+00  0.20018820267E-01 0.  0.
         14    1    1    2    0    0  0.20705649856E-01 -0.60284873041E-02  0.84427230717E-02  0.23159148689E-01  0.00000000000E+00 0. -1.
     999901    1    3    3    0    0 -0.66551363873E-01  0.48887090998E-01  0.10449899858E+00  0.89002195052E+00  0.88000000000E+00 0.  1.
        -11    1    4    4    0    0  0.42532571711E-01 -0.30198484669E-01 -0.82489574895E-01  0.97599996004E-01  0.51100000000E-03 0. -1.
         11    1    4    4    0    0  0.33131423053E-02 -0.12660119024E-01 -0.30452146756E-01  0.33148904789E-01  0.51100000000E-03 0.  1.
</event>
<event>
 8    1  0.1088270E+005  0.1043930E+01  0.7957747E-01            NaN
         13   -1    0    0    0    0  0.00000000000E+00  0.00000000000E+00  0.74505805969E-08  0.10566000000E+00  0.10566000000E+00 0. -1.
     999900   -1    0    0    0    0 -0.00000000000E+00 -0.00000000000E+00 -0.74505805969E-08  0.93827000000E+00  0.93827000000E+00 0.  1.
     999902    2    1    2    0    0  0.61788399547E-02  0.21446609698E-01 -0.81243951696E-02  0.10201783490E+01  0.10199018201E+01 0.  0.
     999903    2    3    3    0    0  0.96755155701E-02 -0.87233193323E-01 -0.92925062376E-01  0.12944007118E+00  0.20406351729E-01 0.  0.
         14    1    1    2    0    0 -0.61788399547E-02 -0.21446609698E-01  0.81243951696E-02  0.23751651050E-01  0.00000000000E+00 0. -1.
     999901    1    3    3    0    0 -0.34966756154E-02  0.10867980302E+00  0.84800667206E-01  0.89073827777E+00  0.88000000000E+00 0. -1.
        -11    1    4    4    0    0 -0.20231663549E-02 -0.12160029448E-01 -0.52105032853E-02  0.13392907965E-01  0.51100000000E-03 0.  1.
         11    1    4    4    0    0  0.11698681925E-01 -0.75073163875E-01 -0.87714559091E-01  0.11604716322E+00  0.51100000000E-03 0. -1.
</event>
<event>
 8    1  0.1088270E+005  0.1043930E+01  0.7957747E-01            NaN
         13   -1    0    0    0    0  0.00000000000E+00  0.00000000000E+00  0.74505805969E-08  0.10566000000E+00  0.10566000000E+00 0.  1.
     999900   -1    0    0    0    0 -0.00000000000E+00 -0.00000000000E+00 -0.74505805969E-08  0.93827000000E+00  0.93827000000E+00 0.  1.
     999902    2    1    2    0    0  0.20458127165E-01 -0.68822011307E-02  0.23673219035E-02  0.10222158601E+01  0.10219852057E+01 0.  0.
     999903    2    3    3    0    0  0.33350560800E-04  0.12983716795E+00  0.44054285153E-03  0.13142235434E+00  0.20345757531E-01 0.  0.
         14    1    1    2    0    0 -0.20458127165E-01  0.68822011307E-02 -0.23673219035E-02  0.21714139921E-01  0.00000000000E+00 0.  1.
     999901    1    3    3    0    0  0.20424776604E-01 -0.13671936908E+00  0.19267790520E-02  0.89079350573E+00  0.88000000000E+00 0.  1.
        -11    1    4    4    0    0 -0.82077720921E-02  0.57361022568E-01 -0.56568953785E-02  0.58222985316E-01  0.51100000000E-03 0. -1.
         11    1    4    4    0    0  0.82411226529E-02  0.72476145383E-01  0.60974382300E-02  0.73199369028E-01  0.51100000000E-03 0.  1.
</event>
<event>
 8    1  0.1088270E+005  0.1043930E+01  0.7957747E-01            NaN
         13   -1    0    0    0    0  0.00000000000E+00  0.00000000000E+00  0.74505805969E-08  0.10566000000E+00  0.10566000000E+00 0. -1.
     999900   -1    0    0    0    0 -0.00000000000E+00 -0.00000000000E+00 -0.74505805969E-08  0.93827000000E+00  0.93827000000E+00 0. -1.
     999902    2    1    2    0    0  0.12333583432E-01 -0.84197659484E-02  0.18804785601E-01  0.10199168848E+01  0.10196341610E+01 0.  0.
     999903    2    3    3    0    0  0.68977425819E-01 -0.12360322009E-01  0.11150754359E+00  0.13322761896E+00  0.20124694864E-01 0.  0.
         14    1    1    2    0    0 -0.12333583432E-01  0.84197659484E-02 -0.18804785601E-01  0.24013115175E-01  0.00000000000E+00 0.  1.
     999901    1    3    3    0    0 -0.56643842387E-01  0.39405560606E-02 -0.92702757989E-01  0.88668926587E+00  0.88000000000E+00 0. -1.
        -11    1    4    4    0    0  0.37260079363E-01 -0.50964620816E-02  0.41385878470E-01  0.55922620625E-01  0.51100000000E-03 0. -1.
         11    1    4    4    0    0  0.31717346457E-01 -0.72638599275E-02  0.70121665120E-01  0.77304998334E-01  0.51100000000E-03 0.  1.
</event>
<event>
 8    1  0.1088270E+005  0.1043930E+01  0.7957747E-01            NaN
         13   -1    0    0    0    0  0.00000000000E+00  0.00000000000E+00  0.74505805969E-08  0.10566000000E+00  0.10566000000E+00 0.  1.
     999900   -1    0    0    0    0 -0.00000000000E+00 -0.00000000000E+00 -0.74505805969E-08  0.93827000000E+00  0.93827000000E+00 0. -1.
     999902    2    1    2    0    0 -0.22263317596E-01  0.24185445779E-02  0.69615186444E-03  0.10215248824E+01  0.10212791470E+01 0.  0.
     999903    2    3    3    0    0  0.23161133015E-01  0.11407118854E+00 -0.57549873987E-01  0.13140000735E+00  0.20132058960E-01 0.  0.
         14    1    1    2    0    0  0.22263317596E-01 -0.24185445779E-02 -0.69615186444E-03  0.22405117622E-01  0.00000000000E+00 0.  1.
     999901    1    3    3    0    0 -0.45424450610E-01 -0.11165264396E+00  0.58246025851E-01  0.89012487503E+00  0.88000000000E+00 0.  1.
        -11    1    4    4    0    0  0.16145932897E-01  0.52525676860E-01 -0.36518376511E-01  0.65980988343E-01  0.51100000000E-03 0. -1.
         11    1    4    4    0    0  0.70152001179E-02  0.61545511680E-01 -0.21031497476E-01  0.65419019007E-01  0.51100000000E-03 0.  1.
</event>
<event>
 8    1  0.1088270E+005  0.1043930E+01  0.7957747E-01            NaN
         13   -1    0    0    0    0  0.00000000000E+00  0.00000000000E+00  0.74505805969E-08  0.10566000000E+00  0.10566000000E+00 0.  1.
     999900   -1    0    0    0    0 -0.00000000000E+00 -0.00000000000E+00 -0.74505805969E-08  0.93827000000E+00  0.93827000000E+00 0.  1.
     999902    2    1    2    0    0  0.96341923303E-04 -0.31963123031E-02  0.26012154300E-01  0.10177220267E+01  0.10173845221E+01 0.  0.
     999903    2    3    3    0    0  0.89824015464E-01 -0.84284108015E-01 -0.27275156164E-01  0.12785359626E+00  0.20747127847E-01 0.  0.
         14    1    1    2    0    0 -0.96341923303E-04  0.31963123031E-02 -0.26012154300E-01  0.26207973318E-01  0.00000000000E+00 0. -1.
     999901    1    3    3    0    0 -0.89727673541E-01  0.81087795712E-01  0.53287310464E-01  0.88986843043E+00  0.88000000000E+00 0. -1.
        -11    1    4    4    0    0  0.79144358370E-01 -0.81974085443E-01 -0.25607423584E-01  0.11678861849E+00  0.51100000000E-03 0. -1.
         11    1    4    4    0    0  0.10679657094E-01 -0.23100225717E-02 -0.16677325801E-02  0.11064977762E-01  0.51100000000E-03 0.  1.
</event>
<event>
 8    1  0.1088270E+005  0.1043930E+01  0.7957747E-01            NaN
         13   -1    0    0    0    0  0.00000000000E+00  0.00000000000E+00  0.74505805969E-08  0.10566000000E+00  0.10566000000E+00 0.  1.
     999900   -1    0    0    0    0 -0.00000000000E+00 -0.00000000000E+00 -0.74505805969E-08  0.93827000000E+00  0.93827000000E+00 0. -1.
     999902    2    1    2    0    0  0.23727099401E-01  0.89632699805E-03  0.72842457683E-02  0.10190937586E+01  0.10187910728E+01 0.  0.
     999903    2    3    3    0    0 -0.10897744763E+00 -0.56869741509E-01 -0.23949581175E-01  0.12672445874E+00  0.19371484519E-01 0.  0.
         14    1    1    2    0    0 -0.23727099401E-01 -0.89632699805E-03 -0.72842457683E-02  0.24836241352E-01  0.00000000000E+00 0. -1.
     999901    1    3    3    0    0  0.13270454703E+00  0.57766068507E-01  0.31233826944E-01  0.89236929991E+00  0.88000000000E+00 0. -1.
        -11    1    4    4    0    0 -0.50871262368E-01 -0.35020639599E-01 -0.18148693220E-01  0.64373649263E-01  0.51100000000E-03 0.  1.
         11    1    4    4    0    0 -0.58106185265E-01 -0.21849101910E-01 -0.58008879557E-02  0.62350809477E-01  0.51100000000E-03 0. -1.
</event>
<event>
 8    1  0.1088270E+005  0.1043930E+01  0.7957747E-01            NaN
         13   -1    0    0    0    0  0.00000000000E+00  0.00000000000E+00  0.74505805969E-08  0.10566000000E+00  0.10566000000E+00 0. -1.
     999900   -1    0    0    0    0 -0.00000000000E+00 -0.00000000000E+00 -0.74505805969E-08  0.93827000000E+00  0.93827000000E+00 0. -1.
     999902    2    1    2    0    0  0.12524375221E-01  0.25634293450E-01 -0.82153375043E-02  0.10142404607E+01  0.10138058213E+01 0.  0.
     999903    2    3    3    0    0 -0.75208300917E-01 -0.54201512006E-01 -0.79061044123E-01  0.12345996445E+00  0.19940453703E-01 0.  0.
         14    1    1    2    0    0 -0.12524375221E-01 -0.25634293450E-01  0.82153375043E-02  0.29689539331E-01  0.00000000000E+00 0. -1.
     999901    1    3    3    0    0  0.87732676138E-01  0.79835805457E-01  0.70845706619E-01  0.89078049622E+00  0.88000000000E+00 0.  1.
        -11    1    4    4    0    0 -0.12949395961E-01 -0.12468413827E-02 -0.12542182815E-01  0.18077857726E-01  0.51100000000E-03 0.  1.
         11    1    4    4    0    0 -0.62258904956E-01 -0.52954670624E-01 -0.66518861308E-01  0.10538210673E+00  0.51100000000E-03 0. -1.
</event>
<event>
 8    1  0.1088270E+005  0.1043930E+01  0.7957747E-01            NaN
         13   -1    0    0    0    0  0.00000000000E+00  0.00000000000E+00  0.74505805969E-08  0.10566000000E+00  0.10566000000E+00 0.  1.
     999900   -1    0    0    0    0 -0.00000000000E+00 -0.00000000000E+00 -0.74505805969E-08  0.93827000000E+00  0.93827000000E+00 0. -1.
     999902    2    1    2    0    0 -0.54060208715E-02 -0.12111263180E-01  0.19222286810E-01  0.10205761124E+01  0.10203088734E+01 0.  0.
     999903    2    3    3    0    0 -0.20147351291E-01 -0.26621544233E-01  0.12785292691E+00  0.13365533177E+00  0.20068742144E-01 0.  0.
         14    1    1    2    0    0  0.54060208715E-02  0.12111263180E-01 -0.19222286810E-01  0.23353887635E-01  0.00000000000E+00 0. -1.
     999901    1    3    3    0    0  0.14741330419E-01  0.14510281053E-01 -0.10863064010E+00  0.88692078059E+00  0.88000000000E+00 0. -1.
        -11    1    4    4    0    0  0.34275651461E-02 -0.84976826656E-02  0.27783483042E-01  0.29259901990E-01  0.51100000000E-03 0.  1.
         11    1    4    4    0    0 -0.23574916437E-01 -0.18123861567E-01  0.10006944386E+00  0.10439542978E+00  0.51100000000E-03 0. -1.
</event>
<event>
 8    1  0.1088270E+005  0.1043930E+01  0.7957747E-01            NaN
         13   -1    0    0    0    0  0.00000000000E+00  0.00000000000E+00  0.74505805969E-08  0.10566000000E+00  0.10566000000E+00 0. -1.
     999900   -1    0    0    0    0 -0.00000000000E+00 -0.00000000000E+00 -0.74505805969E-08  0.93827000000E+00  0.93827000000E+00 0.  1.
     999902    2    1    2    0    0 -0.20012407000E-01 -0.11043080155E-01  0.67522562138E-02  0.10200964309E+01  0.10198179687E+01 0.  0.
     999903    2    3    3    0    0  0.69817619767E-01  0.47978522755E-01  0.94289980451E-01  0.12924524438E+00  0.25244684693E-01 0.  0.
         14    1    1    2    0    0  0.20012407000E-01  0.11043080155E-01 -0.67522562138E-02  0.23833569124E-01  0.00000000000E+00 0.  1.
     999901    1    3    3    0    0 -0.89830026767E-01 -0.59021602910E-01 -0.87537724237E-01  0.89085118650E+00  0.88000000000E+00 0.  1.
        -11    1    4    4    0    0  0.21401659127E-01  0.18023665999E-02  0.23472607919E-01  0.31819867729E-01  0.51100000000E-03 0. -1.
         11    1    4    4    0    0  0.48415960640E-01  0.46176156155E-01  0.70817372532E-01  0.97425376649E-01  0.51100000000E-03 0.  1.
</event>
<event>
 7    1  0.1088270E+005  0.1043930E+01  0.7957747E-01            NaN
         13   -1    0    0    0    0  0.00000000000E+00  0.00000000000E+00  0.74505805969E-08  0.10566000000E+00  0.10566000000E+00 0. -1.
     999900   -1    0    0    0    0 -0.00000000000E+00 -0.00000000000E+00 -0.74505805969E-08  0.93827000000E+00  0.93827000000E+00 0.  1.
     999903    2    1    2    0    0  0.33178748580E-01  0.10117895309E+00  0.49354525083E-01  0.11941181129E+00  0.22029562518E-01 0.  0.
         14    1    1    2    0    0 -0.10314183860E-01 -0.38483938873E-01 -0.10181466464E-01  0.41122478029E-01  0.00000000000E+00 0.  1.
     999901    1    1    2    0    0 -0.22864564720E-01 -0.62695014212E-01 -0.39173058619E-01  0.88339571068E+00  0.88000000000E+00 0.  1.
        -11    1    3    3    0    0  0.13914850080E-01  0.19198169645E-01  0.50278288719E-02  0.24243204298E-01  0.51100000000E-03 0.  1.
         11    1    3    3    0    0  0.19263898500E-01  0.81980783440E-01  0.44326696211E-01  0.95168606992E-01  0.51100000000E-03 0. -1.
</event>
<event>
 8    1  0.1088270E+005  0.1043930E+01  0.7957747E-01            NaN
         13   -1    0    0    0    0  0.00000000000E+00  0.00000000000E+00  0.74505805969E-08  0.10566000000E+00  0.10566000000E+00 0. -1.
     999900   -1    0    0    0    0 -0.00000000000E+00 -0.00000000000E+00 -0.74505805969E-08  0.93827000000E+00  0.93827000000E+00 0. -1.
     999902    2    1    2    0    0 -0.65824158301E-02 -0.17484618527E-01  0.19407819195E-01  0.10169911149E+01  0.10166342628E+01 0.  0.
     999903    2    3    3    0    0  0.39944996819E-01 -0.10374928423E+00  0.64997890053E-01  0.13037685425E+00  0.20344081780E-01 0.  0.
         14    1    1    2    0    0  0.65824158301E-02  0.17484618527E-01 -0.19407819195E-01  0.26938885075E-01  0.00000000000E+00 0.  1.
     999901    1    3    3    0    0 -0.46527412649E-01  0.86264665700E-01 -0.45590070859E-01  0.88661426068E+00  0.88000000000E+00 0. -1.
        -11    1    4    4    0    0  0.45798701176E-02 -0.23714523999E-01  0.22853129013E-01  0.33254781392E-01  0.51100000000E-03 0. -1.
         11    1    4    4    0    0  0.35365126702E-01 -0.80034760228E-01  0.42144761041E-01  0.97122072855E-01  0.51100000000E-03 0.  1.
</event>
<event>
 8    1  0.1088270E+005  0.1043930E+01  0.7957747E-01            NaN
         13   -1    0    0    0    0  0.00000000000E+00  0.00000000000E+00  0.74505805969E-08  0.10566000000E+00  0.10566000000E+00 0.  1.
     999900   -1    0    0    0    0 -0.00000000000E+00 -0.00000000000E+00 -0.74505805969E-08  0.93827000000E+00  0.93827000000E+00 0. -1.
     999902    2    1    2    0    0  0.22656894889E-01  0.72462336945E-02  0.16141019283E-02  0.10200878501E+01  0.10198091850E+01 0.  0.
     999903    2    3    3    0    0  0.46784895530E-01 -0.10788223936E+00  0.51934426911E-01  0.13083599550E+00  0.24361219202E-01 0.  0.
         14    1    1    2    0    0 -0.22656894889E-01 -0.72462336945E-02 -0.16141019283E-02  0.23842149941E-01  0.00000000000E+00 0.  1.
     999901    1    3    3    0    0 -0.24128000641E-01  0.11512847306E+00 -0.50320324983E-01  0.88925185456E+00  0.88000000000E+00 0. -1.
        -11    1    4    4    0    0  0.40678509535E-01 -0.79757325281E-01  0.29260156920E-01  0.94193364830E-01  0.51100000000E-03 0. -1.
         11    1    4    4    0    0  0.61063859947E-02 -0.28124914082E-01  0.22674269991E-01  0.36642630673E-01  0.51100000000E-03 0.  1.
</event>
<event>
 8    1  0.1088270E+005  0.1043930E+01  0.7957747E-01            NaN
         13   -1    0    0    0    0  0.00000000000E+00  0.00000000000E+00  0.74505805969E-08  0.10566000000E+00  0.10566000000E+00 0.  1.
     999900   -1    0    0    0    0 -0.00000000000E+00 -0.00000000000E+00 -0.74505805969E-08  0.93827000000E+00  0.93827000000E+00 0. -1.
     999902    2    1    2    0    0 -0.11124121984E-01  0.73448623414E-02 -0.19945404162E-01  0.10199401638E+01  0.10196579944E+01 0.  0.
     999903    2    3    3    0    0 -0.69690195304E-01 -0.23925389850E-01  0.10361101290E+00  0.12883186411E+00  0.20814889265E-01 0.  0.
         14    1    1    2    0    0  0.11124121984E-01 -0.73448623414E-02  0.19945404162E-01  0.23989836179E-01  0.00000000000E+00 0.  1.
     999901    1    3    3    0    0  0.58566073320E-01  0.31270252191E-01 -0.12355641706E+00  0.89110829971E+00  0.88000000000E+00 0. -1.
        -11    1    4    4    0    0 -0.31403614529E-01 -0.11060888537E-01  0.64594815153E-01  0.72672426176E-01  0.51100000000E-03 0.  1.
         11    1    4    4    0    0 -0.38286580775E-01 -0.12864501313E-01  0.39016197746E-01  0.56159437934E-01  0.51100000000E-03 0. -1.
</event>
<event>
 8    1  0.1088270E+005  0.1043930E+01  0.7957747E-01            NaN
         13   -1    0    0    0    0  0.00000000000E+00  0.00000000000E+00  0.74505805969E-08  0.10566000000E+00  0.10566000000E+00 0. -1.
     999900   -1    0    0    0    0 -0.00000000000E+00 -0.00000000000E+00 -0.74505805969E-08  0.93827000000E+00  0.93827000000E+00 0.  1.
     999902    2    1    2    0    0 -0.16369814349E-01 -0.59673545589E-02 -0.15454242637E-01  0.10206402220E+01  0.10203744651E+01 0.  0.
     999903    2    3    3    0    0  0.42228214968E-01  0.13096346920E-01 -0.12183558086E+00  0.13209413832E+00  0.25499336716E-01 0.  0.
         14    1    1    2    0    0  0.16369814349E-01  0.59673545589E-02  0.15454242637E-01  0.23289777967E-01  0.00000000000E+00 0. -1.
     999901    1    3    3    0    0 -0.58598029317E-01 -0.19063701479E-01  0.10638133823E+00  0.88854608371E+00  0.88000000000E+00 0. -1.
        -11    1    4    4    0    0  0.30738871859E-01 -0.14831172509E-02 -0.91375352868E-01  0.96419884426E-01  0.51100000000E-03 0.  1.
         11    1    4    4    0    0  0.11489343109E-01  0.14579464171E-01 -0.30460227996E-01  0.35674253897E-01  0.51100000000E-03 0. -1.
</event>
<event>
 8    1  0.1350443E+005  0.1043930E+01  0.7957747E-01            NaN
         13   -1    0    0    0    0  0.00000000000E+00  0.00000000000E+00  0.74505805969E-08  0.10566000000E+00  0.10566000000E+00 0.  1.
     999900   -1    0    0    0    0 -0.00000000000E+00 -0.00000000000E+00 -0.74505805969E-08  0.93827000000E+00  0.93827000000E+00 0.  1.
     999902    2    1    2    0    0 -0.21380537007E-01 -0.11341644151E-01  0.30210590207E-02  0.10195396935E+01  0.10192479088E+01 0.  0.
     999903    2    3    3    0    0 -0.82951765038E-01 -0.10075606441E+00 -0.14042950260E-01  0.13270423236E+00  0.19504589142E-01 0.  0.
         14    1    1    2    0    0  0.21380537007E-01  0.11341644151E-01 -0.30210590207E-02  0.24390306524E-01  0.00000000000E+00 0.  1.
     999901    1    3    3    0    0  0.61571228032E-01  0.89414420257E-01  0.17064009281E-01  0.88683546111E+00  0.88000000000E+00 0. -1.
        -11    1    4    4    0    0 -0.46949775067E-01 -0.42119795737E-01 -0.89403629202E-02  0.63706748323E-01  0.51100000000E-03 0. -1.
         11    1    4    4    0    0 -0.36001989972E-01 -0.58636268670E-01 -0.51025873399E-02  0.68997484042E-01  0.51100000000E-03 0.  1.
</event>
<event>
 8    1  0.1088270E+005  0.1043930E+01  0.7957747E-01            NaN
         13   -1    0    0    0    0  0.00000000000E+00  0.00000000000E+00  0.74505805969E-08  0.10566000000E+00  0.10566000000E+00 0.  1.
     999900   -1    0    0    0    0 -0.00000000000E+00 -0.00000000000E+00 -0.74505805969E-08  0.93827000000E+00  0.93827000000E+00 0. -1.
     999902    2    1    2    0    0 -0.13020541905E-01 -0.52834965901E-02  0.18658874447E-01  0.10205718442E+01  0.10203045064E+01 0.  0.
     999903    2    3    3    0    0  0.12707075889E+00  0.91975400339E-02  0.11458815857E-01  0.12934397555E+00  0.19156905840E-01 0.  0.
         14    1    1    2    0    0  0.13020541905E-01  0.52834965901E-02 -0.18658874447E-01  0.23358155821E-01  0.00000000000E+00 0. -1.
     999901    1    3    3    0    0 -0.14009130080E+00 -0.14481036624E-01  0.72000585898E-02  0.89122786863E+00  0.88000000000E+00 0. -1.
        -11    1    4    4    0    0  0.56290015214E-01 -0.13777705148E-02 -0.27606469086E-02  0.56376824642E-01  0.51100000000E-03 0. -1.
         11    1    4    4    0    0  0.70780743679E-01  0.10575310549E-01  0.14219462766E-01  0.72967150906E-01  0.51100000000E-03 0.  1.
</event>
<event>
 8    1  0.1088270E+005  0.1043930E+01  0.7957747E-01            NaN
         13   -1    0    0    0    0  0.00000000000E+00  0.00000000000E+00  0.74505805969E-08  0.10566000000E+00  0.10566000000E+00 0. -1.
     999900   -1    0    0    0    0 -0.00000000000E+00 -0.00000000000E+00 -0.74505805969E-08  0.93827000000E+00  0.93827000000E+00 0.  1.
     999902    2    1    2    0    0  0.16251794676E-01  0.33133837519E-02  0.17176243923E-01  0.10200527578E+01  0.10197732620E+01 0.  0.
     999903    2    3    3    0    0 -0.15468307650E-01 -0.82771190876E-01  0.98895849567E-01  0.13151755146E+00  0.20643127154E-01 0.  0.
         14    1    1    2    0    0 -0.16251794676E-01 -0.33133837519E-02 -0.17176243923E-01  0.23877242249E-01  0.00000000000E+00 0.  1.
     999901    1    3    3    0    0  0.31720102326E-01  0.86084574628E-01 -0.81719605644E-01  0.88853520630E+00  0.88000000000E+00 0. -1.
        -11    1    4    4    0    0 -0.12696958692E-01 -0.66543134701E-01  0.90450253087E-01  0.11300757028E+00  0.51100000000E-03 0. -1.
         11    1    4    4    0    0 -0.27713489574E-02 -0.16228056174E-01  0.84455964806E-02  0.18509981177E-01  0.51100000000E-03 0.  1.
</event>
<event>
 8    1  0.1088270E+005  0.1043930E+01  0.7957747E-01            NaN
         13   -1    0    0    0    0  0.00000000000E+00  0.00000000000E+00  0.74505805969E-08  0.10566000000E+00  0.10566000000E+00 0. -1.
     999900   -1    0    0    0    0 -0.00000000000E+00 -0.00000000000E+00 -0.74505805969E-08  0.93827000000E+00  0.93827000000E+00 0.  1.
     999902    2    1    2    0    0  0.12733509220E-01 -0.21681084148E-01  0.74548018706E-02  0.10177043306E+01  0.10173663640E+01 0.  0.
     999903    2    3    3    0    0  0.17116423640E-01  0.49421874324E-01 -0.11328413908E+00  0.12660796511E+00  0.21465950771E-01 0.  0.
         14    1    1    2    0    0 -0.12733509220E-01  0.21681084148E-01 -0.74548018706E-02  0.26225669444E-01  0.00000000000E+00 0.  1.
     999901    1    3    3    0    0 -0.43829144202E-02 -0.71102958472E-01  0.12073894095E+00  0.89109636544E+00  0.88000000000E+00 0. -1.
        -11    1    4    4    0    0  0.40579250428E-02  0.38633619389E-01 -0.87710927959E-01  0.95929616424E-01  0.51100000000E-03 0.  1.
         11    1    4    4    0    0  0.13058498597E-01  0.10788254936E-01 -0.25573211123E-01  0.30678348689E-01  0.51100000000E-03 0. -1.
</event>
<event>
 8    1  0.1088270E+005  0.1043930E+01  0.7957747E-01            NaN
         13   -1    0    0    0    0  0.00000000000E+00  0.00000000000E+00  0.74505805969E-08  0.10566000000E+00  0.10566000000E+00 0. -1.
     999900   -1    0    0    0    0 -0.00000000000E+00 -0.00000000000E+00 -0.74505805969E-08  0.93827000000E+00  0.93827000000E+00 0.  1.
     999902    2    1    2    0    0  0.17805485646E-01  0.16247752295E-02 -0.16176653741E-01  0.10198186056E+01  0.10195335350E+01 0.  0.
     999903    2    3    3    0    0 -0.58411505256E-01 -0.10235296993E+00  0.45360232824E-01  0.12829900985E+00  0.22694730843E-01 0.  0.
         14    1    1    2    0    0 -0.17805485646E-01 -0.16247752295E-02  0.16176653741E-01  0.24111394400E-01  0.00000000000E+00 0. -1.
     999901    1    3    3    0    0  0.76216990902E-01  0.10397774516E+00 -0.61536886566E-01  0.89151959575E+00  0.88000000000E+00 0.  1.
        -11    1    4    4    0    0 -0.59555453388E-01 -0.96735792431E-01  0.40006172644E-01  0.12043845124E+00  0.51100000000E-03 0.  1.
         11    1    4    4    0    0  0.11439481317E-02 -0.56171774988E-02  0.53540601804E-02  0.78605586187E-02  0.51100000000E-03 0. -1.
</event>
<event>
 8    1  0.1088270E+005  0.1043930E+01  0.7957747E-01            NaN
         13   -1    0    0    0    0  0.00000000000E+00  0.00000000000E+00  0.74505805969E-08  0.10566000000E+00  0.10566000000E+00 0.  1.
     999900   -1    0    0    0    0 -0.00000000000E+00 -0.00000000000E+00 -0.74505805969E-08  0.93827000000E+00  0.93827000000E+00 0.  1.
     999902    2    1    2    0    0 -0.12606099842E-01 -0.73450404856E-02  0.20031561542E-01  0.10191484175E+01  0.10188470788E+01 0.  0.
     999903    2    3    3    0    0 -0.14223309030E-01 -0.17314025080E-01  0.12890644004E+00  0.13238140460E+00  0.20146662667E-01 0.  0.
         14    1    1    2    0    0  0.12606099842E-01  0.73450404856E-02 -0.20031561542E-01  0.24781582491E-01  0.00000000000E+00 0. -1.
     999901    1    3    3    0    0  0.16172091885E-02  0.99689845946E-02 -0.10887487849E+00  0.88676701291E+00  0.88000000000E+00 0.  1.
        -11    1    4    4    0    0 -0.40120016751E-02 -0.38391568354E-02  0.87163214891E-01  0.87341413052E-01  0.51100000000E-03 0. -1.
         11    1    4    4    0    0 -0.10211307355E-01 -0.13474868245E-01  0.41743225144E-01  0.45039991547E-01  0.51100000000E-03 0.  1.
</event>
<event>
 8    1  0.1088270E+005  0.1043930E+01  0.7957747E-01            NaN
         13   -1    0    0    0    0  0.00000000000E+00  0.00000000000E+00  0.74505805969E-08  0.10566000000E+00  0.10566000000E+00 0.  1.
     999900   -1    0    0    0    0 -0.00000000000E+00 -0.00000000000E+00 -0.74505805969E-08  0.93827000000E+00  0.93827000000E+00 0.  1.
     999902    2    1    2    0    0 -0.17202686400E-02 -0.19442670608E-01  0.14076704037E-01  0.10198648725E+01  0.10195809079E+01 0.  0.
     999903    2    3    3    0    0  0.75251462769E-01  0.10009109013E+00  0.20480126961E-01  0.12843121193E+00  0.19852748570E-01 0.  0.
         14    1    1    2    0    0  0.17202686400E-02  0.19442670608E-01 -0.14076704037E-01  0.24065127491E-01  0.00000000000E+00 0. -1.
     999901    1    3    3    0    0 -0.76971731409E-01 -0.11953376073E+00 -0.64034229234E-02  0.89143366058E+00  0.88000000000E+00 0. -1.
        -11    1    4    4    0    0  0.44570878362E-01  0.74021987469E-01  0.16540004349E-01  0.87975284551E-01  0.51100000000E-03 0. -1.
         11    1    4    4    0    0  0.30680584406E-01  0.26069102656E-01  0.39401226115E-02  0.40455927378E-01  0.51100000000E-03 0.  1.
</event>
<event>
 8    1  0.1088270E+005  0.1043930E+01  0.7957747E-01            NaN
         13   -1    0    0    0    0  0.00000000000E+00  0.00000000000E+00  0.74505805969E-08  0.10566000000E+00  0.10566000000E+00 0. -1.
     999900   -1    0    0    0    0 -0.00000000000E+00 -0.00000000000E+00 -0.74505805969E-08  0.93827000000E+00  0.93827000000E+00 0.  1.
     999902    2    1    2    0    0 -0.88735247600E-02 -0.11866986920E-01  0.19254867669E-01  0.10196336063E+01  0.10193440912E+01 0.  0.
     999903    2    3    3    0    0 -0.84145659522E-01  0.31635455851E-01  0.94779040470E-01  0.13213022176E+00  0.19850312533E-01 0.  0.
         14    1    1    2    0    0  0.88735247600E-02  0.11866986920E-01 -0.19254867669E-01  0.24296393749E-01  0.00000000000E+00 0.  1.
     999901    1    3    3    0    0  0.75272134762E-01 -0.43502442771E-01 -0.75524172801E-01  0.88750338449E+00  0.88000000000E+00 0. -1.
        -11    1    4    4    0    0 -0.63539725152E-01  0.27908623973E-01  0.82657731333E-01  0.10792937336E+00  0.51100000000E-03 0. -1.
         11    1    4    4    0    0 -0.20605934370E-01  0.37268318782E-02  0.12121309137E-01  0.24200848401E-01  0.51100000000E-03 0.  1.
</event>
<event>
 8    1  0.1088270E+005  0.1043930E+01  0.7957747E-01            NaN
         13   -1    0    0    0    0  0.00000000000E+00  0.00000000000E+00  0.74505805969E-08  0.10566000000E+00  0.10566000000E+00 0. -1.
     999900   -1    0    0    0    0 -0.00000000000E+00 -0.00000000000E+00 -0.74505805969E-08  0.93827000000E+00  0.93827000000E+00 0.  1.
     999902    2    1    2    0    0 -0.61178699002E-03 -0.66917513735E-02  0.22081304615E-01  0.10208488858E+01  0.10205879236E+01 0.  0.
     999903    2    3    3    0    0 -0.10264436340E+00 -0.69085866006E-02  0.81396721805E-01  0.13296994563E+00  0.21725243663E-01 0.  0.
         14    1    1    2    0    0  0.61178699002E-03  0.66917513735E-02 -0.22081304615E-01  0.23081114212E-01  0.00000000000E+00 0.  1.
     999901    1    3    3    0    0  0.10203257641E+00  0.21683522706E-03 -0.59315417190E-01  0.88787894016E+00  0.88000000000E+00 0.  1.
        -11    1    4    4    0    0 -0.40058540488E-01 -0.12199470538E-01  0.38694272526E-01  0.57017730530E-01  0.51100000000E-03 0.  1.
         11    1    4    4    0    0 -0.62585822913E-01  0.52908839372E-02  0.42702449279E-01  0.75952215096E-01  0.51100000000E-03 0. -1.
</event>
<event>
 8    1  0.1088270E+005  0.1043930E+01  0.7957747E-01            NaN
         13   -1    0    0    0    0  0.00000000000E+00  0.00000000000E+00  0.74505805969E-08  0.10566000000E+00  0.10566000000E+00 0.  1.
     999900   -1    0    0    0    0 -0.00000000000E+00 -0.00000000000E+00 -0.74505805969E-08  0.93827000000E+00  0.93827000000E+00 0. -1.
     999902    2    1    2    0    0 -0.70952664299E-02 -0.84497893494E-02  0.15187131370E-01  0.10251579275E+01  0.10249860417E+01 0.  0.
     999903    2    3    3    0    0 -0.30159727915E-01 -0.13101197988E+00  0.10652070509E-01  0.13635309703E+00  0.20123429242E-01 0.  0.
         14    1    1    2    0    0  0.70952664299E-02  0.84497893494E-02 -0.15187131370E-01  0.18772072475E-01  0.00000000000E+00 0. -1.
     999901    1    3    3    0    0  0.23064461485E-01  0.12256219053E+00  0.45350608608E-02  0.88880483049E+00  0.88000000000E+00 0. -1.
        -11    1    4    4    0    0 -0.83078445418E-02 -0.48851478539E-01  0.13245823150E-01  0.51295225784E-01  0.51100000000E-03 0.  1.
         11    1    4    4    0    0 -0.21851883373E-01 -0.82160501340E-01 -0.25937526416E-02  0.85057871248E-01  0.51100000000E-03 0. -1.
</event>
<event>
 8    1  0.1088270E+005  0.1043930E+01  0.7957747E-01            NaN
         13   -1    0    0    0    0  0.00000000000E+00  0.00000000000E+00  0.74505805969E-08  0.10566000000E+00  0.10566000000E+00 0. -1.
     999900   -1    0    0    0    0 -0.00000000000E+00 -0.00000000000E+00 -0.74505805969E-08  0.93827000000E+00  0.93827000000E+00 0.  1.
     999902    2    1    2    0    0 -0.23683866264E-01 -0.27305325110E-02 -0.40499457621E-02  0.10197477050E+01  0.10194609353E+01 0.  0.
     999903    2    3    3    0    0  0.51446851093E-01  0.61126262323E-02 -0.11695235164E+00  0.12931534972E+00  0.18985900882E-01 0.  0.
         14    1    1    2    0    0  0.23683866264E-01  0.27305325110E-02  0.40499457621E-02  0.24182294963E-01  0.00000000000E+00 0. -1.
     999901    1    3    3    0    0 -0.75130717356E-01 -0.88431587432E-02  0.11290240588E+00  0.89043235532E+00  0.88000000000E+00 0. -1.
        -11    1    4    4    0    0  0.14280570284E-01  0.81015513342E-02 -0.51045642290E-01  0.53623581934E-01  0.51100000000E-03 0. -1.
         11    1    4    4    0    0  0.37166280808E-01 -0.19889251020E-02 -0.65906709348E-01  0.75691767784E-01  0.51100000000E-03 0.  1.
</event>
<event>
 8    1  0.1315756E+005  0.1043930E+01  0.7957747E-01            NaN
         13   -1    0    0    0    0  0.00000000000E+00  0.00000000000E+00  0.74505805969E-08  0.10566000000E+00  0.10566000000E+00 0.  1.
     999900   -1    0    0    0    0 -0.00000000000E+00 -0.00000000000E+00 -0.74505805969E-08  0.93827000000E+00  0.93827000000E+00 0.  1.
     999902    2    1    2    0    0  0.53300559331E-02 -0.10457044119E-01  0.19104123991E-01  0.10215084296E+01  0.10212623291E+01 0.  0.
     999903    2    3    3    0    0 -0.22118830514E-01  0.12536200659E+00 -0.16788249194E-01  0.12994322254E+00  0.19962976079E-01 0.  0.
         14    1    1    2    0    0 -0.53300559331E-02  0.10457044119E-01 -0.19104123991E-01  0.22421570450E-01  0.00000000000E+00 0. -1.
     999901    1    3    3    0    0  0.27448886447E-01 -0.13581905071E+00  0.35892373185E-01  0.89156520701E+00  0.88000000000E+00 0. -1.
        -11    1    4    4    0    0 -0.21747110949E-01  0.67975462454E-01 -0.68527936237E-02  0.71699527418E-01  0.51100000000E-03 0. -1.
         11    1    4    4    0    0 -0.37171956442E-03  0.57386544132E-01 -0.99354555699E-02  0.58243695120E-01  0.51100000000E-03 0.  1.
</event>
<event>
 8    1  0.1088270E+005  0.1043930E+01  0.7957747E-01            NaN
         13   -1    0    0    0    0  0.00000000000E+00  0.00000000000E+00  0.74505805969E-08  0.10566000000E+00  0.10566000000E+00 0. -1.
     999900   -1    0    0    0    0 -0.00000000000E+00 -0.00000000000E+00 -0.74505805969E-08  0.93827000000E+00  0.93827000000E+00 0.  1.
     999902    2    1    2    0    0 -0.48169236133E-02 -0.74169489483E-02 -0.21848534122E-01  0.10203594182E+01  0.10200871384E+01 0.  0.
     999903    2    3    3    0    0  0.23936535235E-01  0.12468557943E+00 -0.19648028485E-01  0.13003212912E+00  0.20071326366E-01 0.  0.
         14    1    1    2    0    0  0.48169236133E-02  0.74169489483E-02  0.21848534122E-01  0.23570581836E-01  0.00000000000E+00 0. -1.
     999901    1    3    3    0    0 -0.28753458848E-01 -0.13210252838E+00 -0.22005056374E-02  0.89032728905E+00  0.88000000000E+00 0.  1.
        -11    1    4    4    0    0  0.18331849675E-01  0.84064963645E-01 -0.22466291369E-01  0.88926768715E-01  0.51100000000E-03 0.  1.
         11    1    4    4    0    0  0.56046855602E-02  0.40620615785E-01  0.28182628848E-02  0.41105360401E-01  0.51100000000E-03 0. -1.
</event>
<event>
 8    1  0.1088270E+005  0.1043930E+01  0.7957747E-01            NaN
         13   -1    0    0    0    0  0.00000000000E+00  0.00000000000E+00  0.74505805969E-08  0.10566000000E+00  0.10566000000E+00 0. -1.
     999900   -1    0    0    0    0 -0.00000000000E+00 -0.00000000000E+00 -0.74505805969E-08  0.93827000000E+00  0.93827000000E+00 0.  1.
     999902    2    1    2    0    0 -0.69088404505E-02  0.18090260331E-01  0.13958690483E-01  0.10200587907E+01  0.10197794378E+01 0.  0.
     999903    2    3    3    0    0 -0.15687313935E-01  0.45397774895E-01  0.12244553560E+00  0.13293300617E+00  0.19267204167E-01 0.  0.
         14    1    1    2    0    0  0.69088404505E-02 -0.18090260331E-01 -0.13958690483E-01  0.23871209337E-01  0.00000000000E+00 0.  1.
     999901    1    3    3    0    0  0.87784734847E-02 -0.27307514564E-01 -0.10848684512E+00  0.88712578449E+00  0.88000000000E+00 0.  1.
        -11    1    4    4    0    0 -0.16810098887E-01  0.36963286199E-01  0.80880937997E-01  0.90503321505E-01  0.51100000000E-03 0.  1.
         11    1    4    4    0    0  0.11227849518E-02  0.84344886960E-02  0.41564597606E-01  0.42429684664E-01  0.51100000000E-03 0. -1.
</event>
<event>
 8    1  0.1088270E+005  0.1043930E+01  0.7957747E-01            NaN
         13   -1    0    0    0    0  0.00000000000E+00  0.00000000000E+00  0.74505805969E-08  0.10566000000E+00  0.10566000000E+00 0. -1.
     999900   -1    0    0    0    0 -0.00000000000E+00 -0.00000000000E+00 -0.74505805969E-08  0.93827000000E+00  0.93827000000E+00 0. -1.
     999902    2    1    2    0    0  0.29698266142E-02  0.24180749685E-03  0.23095121045E-01  0.10206434597E+01  0.10203777776E+01 0.  0.
     999903    2    3    3    0    0 -0.89988158153E-01 -0.88897492554E-01  0.28956461472E-01  0.13124964536E+00  0.19681462276E-01 0.  0.
         14    1    1    2    0    0 -0.29698266142E-02 -0.24180749685E-03 -0.23095121045E-01  0.23286540256E-01  0.00000000000E+00 0.  1.
     999901    1    3    3    0    0  0.92957984767E-01  0.89139300051E-01 -0.58613404270E-02  0.88939381438E+00  0.88000000000E+00 0. -1.
        -11    1    4    4    0    0 -0.44450149368E-01 -0.38273863089E-01  0.42535332401E-02  0.58813757239E-01  0.51100000000E-03 0. -1.
         11    1    4    4    0    0 -0.45538008785E-01 -0.50623629465E-01  0.24702928232E-01  0.72435888125E-01  0.51100000000E-03 0.  1.
</event>
<event>
 8    1  0.1088270E+005  0.1043930E+01  0.7957747E-01            NaN
         13   -1    0    0    0    0  0.00000000000E+00  0.00000000000E+00  0.74505805969E-08  0.10566000000E+00  0.10566000000E+00 0.  1.
     999900   -1    0    0    0    0 -0.00000000000E+00 -0.00000000000E+00 -0.74505805969E-08  0.93827000000E+00  0.93827000000E+00 0. -1.
     999902    2    1    2    0    0 -0.15082759708E-01 -0.14453531181E-01  0.12536565436E-01  0.10195669198E+01  0.10192757940E+01 0.  0.
     999903    2    3    3    0    0 -0.88878223443E-01  0.86534527196E-01 -0.31607100917E-01  0.12962702201E+00  0.20410610137E-01 0.  0.
         14    1    1    2    0    0  0.15082759708E-01  0.14453531181E-01 -0.12536565436E-01  0.24363080203E-01  0.00000000000E+00 0. -1.
     999901    1    3    3    0    0  0.73795463735E-01 -0.10098805838E+00  0.44143666353E-01  0.88993989779E+00  0.88000000000E+00 0. -1.
        -11    1    4    4    0    0 -0.26854792831E-01  0.16847036312E-01 -0.20834261668E-02  0.31774271291E-01  0.51100000000E-03 0. -1.
         11    1    4    4    0    0 -0.62023430613E-01  0.69687490883E-01 -0.29523674750E-01  0.97852750714E-01  0.51100000000E-03 0.  1.
</event>
<event>
 8    1  0.1088270E+005  0.1043930E+01  0.7957747E-01            NaN
         13   -1    0    0    0    0  0.00000000000E+00  0.00000000000E+00  0.74505805969E-08  0.10566000000E+00  0.10566000000E+00 0. -1.
     999900   -1    0    0    0    0 -0.00000000000E+00 -0.00000000000E+00 -0.74505805969E-08  0.93827000000E+00  0.93827000000E+00 0. -1.
     999902    2    1    2    0    0 -0.14091365046E-01 -0.58319176302E-02 -0.17964234065E-01  0.10203653753E+01  0.10200932347E+01 0.  0.
     999903    2    3    3    0    0 -0.52291466159E-01  0.94535598135E-01 -0.73370227394E-01  0.13210713016E+00  0.19943089621E-01 0.  0.
         14    1    1    2    0    0  0.14091365046E-01  0.58319176302E-02  0.17964234065E-01  0.23564624709E-01  0.00000000000E+00 0. -1.
     999901    1    3    3    0    0  0.38200101113E-01 -0.10036751576E+00  0.55405993329E-01  0.88825824513E+00  0.88000000000E+00 0. -1.
        -11    1    4    4    0    0 -0.17486222595E-01  0.49854412970E-01 -0.40940952901E-01  0.66840505823E-01  0.51100000000E-03 0. -1.
         11    1    4    4    0    0 -0.34805243564E-01  0.44681185165E-01 -0.32429274493E-01  0.65266624337E-01  0.51100000000E-03 0.  1.
</event>
<event>
 8    1  0.1088270E+005  0.1043930E+01  0.7957747E-01            NaN
         13   -1    0    0    0    0  0.00000000000E+00  0.00000000000E+00  0.74505805969E-08  0.10566000000E+00  0.10566000000E+00 0. -1.
     999900   -1    0    0    0    0 -0.00000000000E+00 -0.00000000000E+00 -0.74505805969E-08  0.93827000000E+00  0.93827000000E+00 0. -1.
     999902    2    1    2    0    0 -0.12288596858E-01 -0.20163201017E-01 -0.30281813030E-02  0.10201238208E+01  0.10198460058E+01 0.  0.
     999903    2    3    3    0    0  0.70185488420E-01 -0.43777302504E-02 -0.10768561086E+00  0.12995286336E+00  0.18611518034E-01 0.  0.
         14    1    1    2    0    0  0.12288596858E-01  0.20163201017E-01  0.30281813030E-02  0.23806179240E-01  0.00000000000E+00 0. -1.
     999901    1    3    3    0    0 -0.82474085278E-01 -0.15785470767E-01  0.10465742956E+00  0.89017095740E+00  0.88000000000E+00 0.  1.
        -11    1    4    4    0    0  0.37965191919E-01 -0.11305700330E-01 -0.63130587397E-01  0.74531247430E-01  0.51100000000E-03 0.  1.
         11    1    4    4    0    0  0.32220296501E-01  0.69279700796E-02 -0.44555023463E-01  0.55421615935E-01  0.51100000000E-03 0. -1.
</event>
<event>
 8    1  0.1088270E+005  0.1043930E+01  0.7957747E-01            NaN
         13   -1    0    0    0    0  0.00000000000E+00  0.00000000000E+00  0.74505805969E-08  0.10566000000E+00  0.10566000000E+00 0.  1.
     999900   -1    0    0    0    0 -0.00000000000E+00 -0.00000000000E+00 -0.74505805969E-08  0.93827000000E+00  0.93827000000E+00 0. -1.
     999902    2    1    2    0    0 -0.15646078823E-01 -0.17132651319E-01 -0.67501081984E-02  0.10197661534E+01  0.10194798262E+01 0.  0.
     999903    2    3    3    0    0 -0.12244349197E+00  0.31646727282E-01  0.28702598324E-01  0.13126066118E+00  0.20287876948E-01 0.  0.
         14    1    1    2    0    0  0.15646078823E-01  0.17132651319E-01  0.67501081984E-02  0.24163846640E-01  0.00000000000E+00 0. -1.
     999901    1    3    3    0    0  0.10679741314E+00 -0.48779378602E-01 -0.35452706522E-01  0.88850549218E+00  0.88000000000E+00 0.  1.
        -11    1    4    4    0    0 -0.12676242414E-01 -0.16485563254E-02  0.67758305044E-02  0.14476804195E-01  0.51100000000E-03 0.  1.
         11    1    4    4    0    0 -0.10976724955E+00  0.33295283608E-01  0.21926767820E-01  0.11678385699E+00  0.51100000000E-03 0. -1.
</event>
<event>
 8    1  0.1088270E+005  0.1043930E+01  0.7957747E-01            NaN
         13   -1    0    0    0    0  0.00000000000E+00  0.00000000000E+00  0.74505805969E-08  0.10566000000E+00  0.10566000000E+00 0.  1.
     999900   -1    0    0    0    0 -0.00000000000E+00 -0.00000000000E+00 -0.74505805969E-08  0.93827000000E+00  0.93827000000E+00 0. -1.
     999902    2    1    2    0    0 -0.18890099560E-01 -0.15819199181E-01  0.11014304673E-01  0.10169411536E+01  0.10165829587E+01 0.  0.
     999903    2    3    3    0    0 -0.49893841186E-01 -0.11276257476E+00 -0.34035091710E-01  0.12993004982E+00  0.22773597096E-01 0.  0.
         14    1    1    2    0    0  0.18890099560E-01  0.15819199181E-01 -0.11014304673E-01  0.26988846429E-01  0.00000000000E+00 0. -1.
     999901    1    3    3    0    0  0.31003741626E-01  0.96943375575E-01  0.45049396382E-01  0.88701110375E+00  0.88000000000E+00 0.  1.
        -11    1    4    4    0    0 -0.34339766515E-01 -0.62470786283E-01 -0.97441487846E-02  0.71951568848E-01  0.51100000000E-03 0.  1.
         11    1    4    4    0    0 -0.15554074672E-01 -0.50291788473E-01 -0.24290942925E-01  0.57978480973E-01  0.51100000000E-03 0. -1.
</event>
<event>
 8    1  0.1088270E+005  0.1043930E+01  0.7957747E-01            NaN
         13   -1    0    0    0    0  0.00000000000E+00  0.00000000000E+00  0.74505805969E-08  0.10566000000E+00  0.10566000000E+00 0.  1.
     999900   -1    0    0    0    0 -0.00000000000E+00 -0.00000000000E+00 -0.74505805969E-08  0.93827000000E+00  0.93827000000E+00 0.  1.
     999902    2    1    2    0    0 -0.93184651092E-02 -0.17058267714E-01  0.13922077502E-01  0.10200209529E+01  0.10197407033E+01 0.  0.
     999903    2    3    3    0    0  0.22182896642E-01  0.44220234363E-01  0.11961652427E+00  0.13102224277E+00  0.20278194984E-01 0.  0.
         14    1    1    2    0    0  0.93184651092E-02  0.17058267714E-01 -0.13922077502E-01  0.23909047061E-01  0.00000000000E+00 0. -1.
     999901    1    3    3    0    0 -0.31501361752E-01 -0.61278502076E-01 -0.10569444676E+00  0.88899871017E+00  0.88000000000E+00 0.  1.
        -11    1    4    4    0    0 -0.16478343229E-02  0.14017626243E-01  0.22543476285E-01  0.26602230122E-01  0.51100000000E-03 0.  1.
         11    1    4    4    0    0  0.23830730965E-01  0.30202608120E-01  0.97073047982E-01  0.10442001265E+00  0.51100000000E-03 0. -1.
</event>
<event>
 8    1  0.1088270E+005  0.1043930E+01  0.7957747E-01            NaN
         13   -1    0    0    0    0  0.00000000000E+00  0.00000000000E+00  0.74505805969E-08  0.10566000000E+00  0.10566000000E+00 0.  1.
     999900   -1    0    0    0    0 -0.00000000000E+00 -0.00000000000E+00 -0.74505805969E-08  0.93827000000E+00  0.93827000000E+00 0. -1.
     999902    2    1    2    0    0 -0.11068186759E-02  0.18563506968E-01  0.14905284366E-01  0.10200973262E+01  0.10198188852E+01 0.  0.
     999903    2    3    3    0    0  0.58647263813E-01 -0.10572928559E+00  0.40310351996E-01  0.12899426475E+00  0.19910109915E-01 0.  0.
         14    1    1    2    0    0  0.11068186759E-02 -0.18563506968E-01 -0.14905284366E-01  0.23832673802E-01  0.00000000000E+00 0.  1.
     999901    1    3    3    0    0 -0.59754082488E-01  0.12429279256E+00 -0.25405067630E-01  0.89110306145E+00  0.88000000000E+00 0. -1.
        -11    1    4    4    0    0  0.22824943293E-01 -0.41345255507E-01  0.56439245747E-02  0.47565987794E-01  0.51100000000E-03 0. -1.
         11    1    4    4    0    0  0.35822320519E-01 -0.64384030084E-01  0.34666427421E-01  0.81428276958E-01  0.51100000000E-03 0.  1.
</event>
<event>
 8    1  0.1088270E+005  0.1043930E+01  0.7957747E-01            NaN
         13   -1    0    0    0    0  0.00000000000E+00  0.00000000000E+00  0.74505805969E-08  0.10566000000E+00  0.10566000000E+00 0. -1.
     999900   -1    0    0    0    0 -0.00000000000E+00 -0.00000000000E+00 -0.74505805969E-08  0.93827000000E+00  0.93827000000E+00 0.  1.
     999902    2    1    2    0    0 -0.94329880987E-02 -0.17762118403E-01  0.14188888025E-01  0.10193170226E+01  0.10190198201E+01 0.  0.
     999903    2    3    3    0    0 -0.74790842392E-01  0.47201926252E-01 -0.90648705581E-01  0.12831595790E+00  0.20642317697E-01 0.  0.
         14    1    1    2    0    0  0.94329880987E-02  0.17762118403E-01 -0.14188888025E-01  0.24612977430E-01  0.00000000000E+00 0.  1.
     999901    1    3    3    0    0  0.65357854293E-01 -0.64964044654E-01  0.10483759361E+00  0.89100106467E+00  0.88000000000E+00 0. -1.
        -11    1    4    4    0    0 -0.23025655747E-01  0.20799422099E-01 -0.43757209786E-01  0.53644676451E-01  0.51100000000E-03 0. -1.
         11    1    4    4    0    0 -0.51765186645E-01  0.26402504153E-01 -0.46891495794E-01  0.74671281445E-01  0.51100000000E-03 0.  1.
</event>
<event>
 8    1  0.1088270E+005  0.1043930E+01  0.7957747E-01            NaN
         13   -1    0    0    0    0  0.00000000000E+00  0.00000000000E+00  0.74505805969E-08  0.10566000000E+00  0.10566000000E+00 0. -1.
     999900   -1    0    0    0    0 -0.00000000000E+00 -0.00000000000E+00 -0.74505805969E-08  0.93827000000E+00  0.93827000000E+00 0. -1.
     999902    2    1    2    0    0 -0.65890247965E-02  0.22396826416E-01  0.30991853447E-02  0.10203792456E+01  0.10201074291E+01 0.  0.
     999903    2    3    3    0    0 -0.93331872321E-02 -0.11401691776E+00 -0.53554704984E-01  0.12806433300E+00  0.21104526531E-01 0.  0.
         14    1    1    2    0    0  0.65890247965E-02 -0.22396826416E-01 -0.30991853447E-02  0.23550754364E-01  0.00000000000E+00 0.  1.
     999901    1    3    3    0    0  0.27441624355E-02  0.13641374418E+00  0.56653890328E-01  0.89231491264E+00  0.88000000000E+00 0. -1.
        -11    1    4    4    0    0 -0.85689152805E-02 -0.10164492992E+00 -0.39681672827E-01  0.10945325197E+00  0.51100000000E-03 0. -1.
         11    1    4    4    0    0 -0.76427195156E-03 -0.12371987846E-01 -0.13873032157E-01  0.18611081030E-01  0.51100000000E-03 0.  1.
</event>
<event>
 8    1  0.1088270E+005  0.1043930E+01  0.7957747E-01            NaN
         13   -1    0    0    0    0  0.00000000000E+00  0.00000000000E+00  0.74505805969E-08  0.10566000000E+00  0.10566000000E+00 0.  1.
     999900   -1    0    0    0    0 -0.00000000000E+00 -0.00000000000E+00 -0.74505805969E-08  0.93827000000E+00  0.93827000000E+00 0. -1.
     999902    2    1    2    0    0  0.23472772259E-01 -0.53111825815E-02 -0.37222100377E-02  0.10195776994E+01  0.10192868343E+01 0.  0.
     999903    2    3    3    0    0 -0.59472366319E-01 -0.11084642314E-01  0.11134912474E+00  0.12819975432E+00  0.19409218884E-01 0.  0.
         14    1    1    2    0    0 -0.23472772259E-01  0.53111825815E-02  0.37222100377E-02  0.24352300620E-01  0.00000000000E+00 0.  1.
     999901    1    3    3    0    0  0.82945138578E-01  0.57734597320E-02 -0.11507133477E+00  0.89137794506E+00  0.88000000000E+00 0. -1.
        -11    1    4    4    0    0 -0.23589720473E-01 -0.47689494186E-02  0.64520043897E-01  0.68864468168E-01  0.51100000000E-03 0.  1.
         11    1    4    4    0    0 -0.35882645846E-01 -0.63156928950E-02  0.46829080839E-01  0.59335286153E-01  0.51100000000E-03 0. -1.
</event>
<event>
 8    1  0.1088270E+005  0.1043930E+01  0.7957747E-01            NaN
         13   -1    0    0    0    0  0.00000000000E+00  0.00000000000E+00  0.74505805969E-08  0.10566000000E+00  0.10566000000E+00 0. -1.
     999900   -1    0    0    0    0 -0.00000000000E+00 -0.00000000000E+00 -0.74505805969E-08  0.93827000000E+00  0.93827000000E+00 0. -1.
     999902    2    1    2    0    0 -0.12581375577E-01 -0.23074039163E-01 -0.94453891277E-04  0.10176486146E+01  0.10173091918E+01 0.  0.
     999903    2    3    3    0    0  0.86678142413E-01  0.81049619183E-01  0.34876623918E-01  0.12528256620E+00  0.19929911062E-01 0.  0.
         14    1    1    2    0    0  0.12581375577E-01  0.23074039163E-01  0.94453891277E-04  0.26281385356E-01  0.00000000000E+00 0.  1.
     999901    1    3    3    0    0 -0.99259517990E-01 -0.10412365835E+00 -0.34971077809E-01  0.89236604845E+00  0.88000000000E+00 0. -1.
        -11    1    4    4    0    0  0.41930369455E-01  0.48010431717E-01  0.26482624000E-01  0.69027153579E-01  0.51100000000E-03 0. -1.
         11    1    4    4    0    0  0.44747772958E-01  0.33039187467E-01  0.83939999177E-02  0.56255412618E-01  0.51100000000E-03 0.  1.
</event>
<event>
 8    1  0.1088270E+005  0.1043930E+01  0.7957747E-01            NaN
         13   -1    0    0    0    0  0.00000000000E+00  0.00000000000E+00  0.74505805969E-08  0.10566000000E+00  0.10566000000E+00 0.  1.
     999900   -1    0    0    0    0 -0.00000000000E+00 -0.00000000000E+00 -0.74505805969E-08  0.93827000000E+00  0.93827000000E+00 0. -1.
     999902    2    1    2    0    0 -0.11988116030E-01 -0.31122541127E-02 -0.20944092189E-01  0.10195977981E+01  0.10193074187E+01 0.  0.
     999903    2    3    3    0    0  0.67435657687E-01  0.76652242003E-01  0.74261691480E-01  0.12733401876E+00  0.16613831031E-01 0.  0.
         14    1    1    2    0    0  0.11988116030E-01  0.31122541127E-02  0.20944092189E-01  0.24332201899E-01  0.00000000000E+00 0.  1.
     999901    1    3    3    0    0 -0.79423773718E-01 -0.79764496116E-01 -0.95205783669E-01  0.89226377934E+00  0.88000000000E+00 0.  1.
        -11    1    4    4    0    0  0.31480956609E-01  0.25581177299E-01  0.34833508388E-01  0.53470381415E-01  0.51100000000E-03 0. -1.
         11    1    4    4    0    0  0.35954701078E-01  0.51071064704E-01  0.39428183092E-01  0.73863637350E-01  0.51100000000E-03 0.  1.
</event>
<event>
 8    1  0.1088270E+005  0.1043930E+01  0.7957747E-01            NaN
         13   -1    0    0    0    0  0.00000000000E+00  0.00000000000E+00  0.74505805969E-08  0.10566000000E+00  0.10566000000E+00 0.  1.
     999900   -1    0    0    0    0 -0.00000000000E+00 -0.00000000000E+00 -0.74505805969E-08  0.93827000000E+00  0.93827000000E+00 0.  1.
     999902    2    1    2    0    0 -0.40361470426E-03 -0.19000547036E-01 -0.14336776421E-01  0.10201239745E+01  0.10198461631E+01 0.  0.
     999903    2    3    3    0    0  0.34679875248E-01 -0.82684856876E-01 -0.96505168935E-01  0.13331047250E+00  0.20468393744E-01 0.  0.
         14    1    1    2    0    0  0.40361470426E-03  0.19000547036E-01  0.14336776421E-01  0.23806025511E-01  0.00000000000E+00 0. -1.
     999901    1    3    3    0    0 -0.35083489952E-01  0.63684309840E-01  0.82168392514E-01  0.88681350199E+00  0.88000000000E+00 0. -1.
        -11    1    4    4    0    0  0.29896804751E-01 -0.67815292982E-01 -0.66943984884E-01  0.99872374206E-01  0.51100000000E-03 0. -1.
         11    1    4    4    0    0  0.47830704967E-02 -0.14869563894E-01 -0.29561184051E-01  0.33438098290E-01  0.51100000000E-03 0.  1.
</event>
<event>
 8    1  0.1088270E+005  0.1043930E+01  0.7957747E-01            NaN
         13   -1    0    0    0    0  0.00000000000E+00  0.00000000000E+00  0.74505805969E-08  0.10566000000E+00  0.10566000000E+00 0. -1.
     999900   -1    0    0    0    0 -0.00000000000E+00 -0.00000000000E+00 -0.74505805969E-08  0.93827000000E+00  0.93827000000E+00 0.  1.
     999902    2    1    2    0    0 -0.13797256960E-01  0.37368408595E-03  0.19605037027E-01  0.10199537322E+01  0.10196718857E+01 0.  0.
     999903    2    3    3    0    0 -0.58998347742E-01 -0.11212261570E+00 -0.23872291154E-01  0.13057820179E+00  0.20700108933E-01 0.  0.
         14    1    1    2    0    0  0.13797256960E-01 -0.37368408595E-03 -0.19605037027E-01  0.23976267771E-01  0.00000000000E+00 0.  1.
     999901    1    3    3    0    0  0.45201090782E-01  0.11249629979E+00  0.43477328181E-01  0.88937553044E+00  0.88000000000E+00 0. -1.
        -11    1    4    4    0    0 -0.25984549711E-01 -0.33279172193E-01 -0.14229043652E-01  0.44558129783E-01  0.51100000000E-03 0. -1.
         11    1    4    4    0    0 -0.33013798031E-01 -0.78843443511E-01 -0.96432475026E-02  0.86020072009E-01  0.51100000000E-03 0.  1.
</event>
<event>
 8    1  0.1088270E+005  0.1043930E+01  0.7957747E-01            NaN
         13   -1    0    0    0    0  0.00000000000E+00  0.00000000000E+00  0.74505805969E-08  0.10566000000E+00  0.10566000000E+00 0. -1.
     999900   -1    0    0    0    0 -0.00000000000E+00 -0.00000000000E+00 -0.74505805969E-08  0.93827000000E+00  0.93827000000E+00 0.  1.
     999902    2    1    2    0    0  0.32722756104E-02  0.20759029690E-01 -0.10424258413E-01  0.10204713073E+01  0.10202016363E+01 0.  0.
     999903    2    3    3    0    0 -0.21533157189E-01  0.11115142369E+00 -0.68104639175E-01  0.13361555760E+00  0.19913801982E-01 0.  0.
         14    1    1    2    0    0 -0.32722756104E-02 -0.20759029690E-01  0.10424258413E-01  0.23458692735E-01  0.00000000000E+00 0.  1.
     999901    1    3    3    0    0  0.24805432799E-01 -0.90392393997E-01  0.57680380762E-01  0.88685574966E+00  0.88000000000E+00 0.  1.
        -11    1    4    4    0    0 -0.11896531745E-01  0.58585374023E-01 -0.47425079807E-01  0.76309716503E-01  0.51100000000E-03 0.  1.
         11    1    4    4    0    0 -0.96366254444E-02  0.52566049664E-01 -0.20679559368E-01  0.57305841098E-01  0.51100000000E-03 0. -1.
</event>
<event>
 8    1  0.1088270E+005  0.1043930E+01  0.7957747E-01            NaN
         13   -1    0    0    0    0  0.00000000000E+00  0.00000000000E+00  0.74505805969E-08  0.10566000000E+00  0.10566000000E+00 0. -1.
     999900   -1    0    0    0    0 -0.00000000000E+00 -0.00000000000E+00 -0.74505805969E-08  0.93827000000E+00  0.93827000000E+00 0.  1.
     999902    2    1    2    0    0  0.59414873257E-02  0.19493447648E-01 -0.11987571131E-01  0.10202868692E+01  0.10200128910E+01 0.  0.
     999903    2    3    3    0    0 -0.15184135207E-01 -0.12549890955E+00 -0.51912213795E-02  0.12814603617E+00  0.20345111146E-01 0.  0.
         14    1    1    2    0    0 -0.59414873257E-02 -0.19493447648E-01  0.11987571131E-01  0.23643130809E-01  0.00000000000E+00 0. -1.
     999901    1    3    3    0    0  0.21125622533E-01  0.14499235719E+00 -0.67963497512E-02  0.89214083302E+00  0.88000000000E+00 0.  1.
        -11    1    4    4    0    0 -0.16948318489E-01 -0.11651608327E+00 -0.27759238690E-03  0.11774371040E+00  0.51100000000E-03 0.  1.
         11    1    4    4    0    0  0.17641832824E-02 -0.89828262769E-02 -0.49136289926E-02  0.10402325771E-01  0.51100000000E-03 0. -1.
</event>
<event>
 8    1  0.1088270E+005  0.1043930E+01  0.7957747E-01            NaN
         13   -1    0    0    0    0  0.00000000000E+00  0.00000000000E+00  0.74505805969E-08  0.10566000000E+00  0.10566000000E+00 0.  1.
     999900   -1    0    0    0    0 -0.00000000000E+00 -0.00000000000E+00 -0.74505805969E-08  0.93827000000E+00  0.93827000000E+00 0. -1.
     999902    2    1    2    0    0 -0.20464617319E-01  0.79786624233E-02  0.86562980227E-02  0.10203208680E+01  0.10200476865E+01 0.  0.
     999903    2    3    3    0    0  0.41035343276E-01  0.10669859682E+00 -0.58802583327E-01  0.13010821296E+00  0.20047775763E-01 0.  0.
         14    1    1    2    0    0  0.20464617319E-01 -0.79786624233E-02 -0.86562980227E-02  0.23609131952E-01  0.00000000000E+00 0. -1.
     999901    1    3    3    0    0 -0.61499960595E-01 -0.98719934398E-01  0.67458881350E-01  0.89021265509E+00  0.88000000000E+00 0.  1.
        -11    1    4    4    0    0  0.11852794875E-01  0.20905686570E-01 -0.44781959445E-02  0.24451008920E-01  0.51100000000E-03 0.  1.
         11    1    4    4    0    0  0.29182548401E-01  0.85792910251E-01 -0.54324387383E-01  0.10565720404E+00  0.51100000000E-03 0. -1.
</event>
<event>
 7    1  0.1088270E+005  0.1043930E+01  0.7957747E-01            NaN
         13   -1    0    0    0    0  0.00000000000E+00  0.00000000000E+00  0.74505805969E-08  0.10566000000E+00  0.10566000000E+00 0. -1.
     999900   -1    0    0    0    0 -0.00000000000E+00 -0.00000000000E+00 -0.74505805969E-08  0.93827000000E+00  0.93827000000E+00 0. -1.
     999903    2    1    2    0    0 -0.80923365812E-01  0.18025038142E-01  0.61352797718E-01  0.10530523879E+00  0.21249338670E-01 0.  0.
         14    1    1    2    0    0  0.48966972669E-01 -0.22405859172E-01  0.11366953249E-01  0.55036302236E-01  0.00000000000E+00 0.  1.
     999901    1    1    2    0    0  0.31956393144E-01  0.43808210304E-02 -0.72719750967E-01  0.88358845898E+00  0.88000000000E+00 0. -1.
        -11    1    3    3    0    0 -0.50748138776E-01  0.10096175020E-01  0.25220886296E-01  0.57564403635E-01  0.51100000000E-03 0.  1.
         11    1    3    3    0    0 -0.30175227036E-01  0.79288631220E-02  0.36131911423E-01  0.47740835153E-01  0.51100000000E-03 0. -1.
</event>
<event>
 8    1  0.1088270E+005  0.1043930E+01  0.7957747E-01            NaN
         13   -1    0    0    0    0  0.00000000000E+00  0.00000000000E+00  0.74505805969E-08  0.10566000000E+00  0.10566000000E+00 0. -1.
     999900   -1    0    0    0    0 -0.00000000000E+00 -0.00000000000E+00 -0.74505805969E-08  0.93827000000E+00  0.93827000000E+00 0.  1.
     999902    2    1    2    0    0 -0.58632744960E-02 -0.22602828098E-01 -0.31273867442E-02  0.10203705778E+01  0.10200985588E+01 0.  0.
     999903    2    3    3    0    0  0.92460007285E-01  0.83546888045E-01 -0.23807446831E-01  0.12831514520E+00  0.19210583359E-01 0.  0.
         14    1    1    2    0    0  0.58632744960E-02  0.22602828098E-01  0.31273867442E-02  0.23559422185E-01  0.00000000000E+00 0.  1.
     999901    1    3    3    0    0 -0.98323281781E-01 -0.10614971614E+00  0.20680060087E-01  0.89205543262E+00  0.88000000000E+00 0. -1.
        -11    1    4    4    0    0  0.32505867358E-01  0.38237276600E-01 -0.16393775369E-01  0.52799031490E-01  0.51100000000E-03 0.  1.
         11    1    4    4    0    0  0.59954139928E-01  0.45309611445E-01 -0.74136714619E-02  0.75516113707E-01  0.51100000000E-03 0. -1.
</event>
<event>
 8    1  0.1088270E+005  0.1043930E+01  0.7957747E-01            NaN
         13   -1    0    0    0    0  0.00000000000E+00  0.00000000000E+00  0.74505805969E-08  0.10566000000E+00  0.10566000000E+00 0. -1.
     999900   -1    0    0    0    0 -0.00000000000E+00 -0.00000000000E+00 -0.74505805969E-08  0.93827000000E+00  0.93827000000E+00 0. -1.
     999902    2    1    2    0    0  0.74086582710E-02 -0.22247241942E-01 -0.56233173510E-03  0.10204748469E+01  0.10202052582E+01 0.  0.
     999903    2    3    3    0    0 -0.47344886660E-01 -0.42431791895E-01  0.11280002295E+00  0.13128623347E+00  0.21684894868E-01 0.  0.
         14    1    1    2    0    0 -0.74086582710E-02  0.22247241942E-01  0.56233173510E-03  0.23455153130E-01  0.00000000000E+00 0. -1.
     999901    1    3    3    0    0  0.54753544931E-01  0.20184549954E-01 -0.11336235468E+00  0.88918861340E+00  0.88000000000E+00 0. -1.
        -11    1    4    4    0    0 -0.24199650745E-01 -0.18890563035E-01  0.75316578130E-01  0.81334645325E-01  0.51100000000E-03 0.  1.
         11    1    4    4    0    0 -0.23145235915E-01 -0.23541228860E-01  0.37483444819E-01  0.49951588146E-01  0.51100000000E-03 0. -1.
</event>
<event>
 8    1  0.1088270E+005  0.1043930E+01  0.7957747E-01            NaN
         13   -1    0    0    0    0  0.00000000000E+00  0.00000000000E+00  0.74505805969E-08  0.10566000000E+00  0.10566000000E+00 0. -1.
     999900   -1    0    0    0    0 -0.00000000000E+00 -0.00000000000E+00 -0.74505805969E-08  0.93827000000E+00  0.93827000000E+00 0.  1.
     999902    2    1    2    0    0  0.51887807023E-03  0.15740318259E-01 -0.18055422448E-01  0.10199711784E+01  0.10196897467E+01 0.  0.
     999903    2    3    3    0    0 -0.98530798418E-01 -0.79033162503E-01  0.14160855609E-01  0.12877493757E+00  0.20685640027E-01 0.  0.
         14    1    1    2    0    0 -0.51887807023E-03 -0.15740318259E-01  0.18055422448E-01  0.23958821614E-01  0.00000000000E+00 0.  1.
     999901    1    3    3    0    0  0.99049676488E-01  0.94773480762E-01 -0.32216278057E-01  0.89119624081E+00  0.88000000000E+00 0.  1.
        -11    1    4    4    0    0 -0.20703712458E-01 -0.13261600566E-01 -0.49888261362E-02  0.25093092004E-01  0.51100000000E-03 0.  1.
         11    1    4    4    0    0 -0.77827085960E-01 -0.65771561937E-01  0.19149681745E-01  0.10368184557E+00  0.51100000000E-03 0. -1.
</event>
<event>
 8    1  0.1088270E+005  0.1043930E+01  0.7957747E-01            NaN
         13   -1    0    0    0    0  0.00000000000E+00  0.00000000000E+00  0.74505805969E-08  0.10566000000E+00  0.10566000000E+00 0.  1.
     999900   -1    0    0    0    0 -0.00000000000E+00 -0.00000000000E+00 -0.74505805969E-08  0.93827000000E+00  0.93827000000E+00 0. -1.
     999902    2    1    2    0    0 -0.97250082869E-03 -0.61020327059E-02  0.26057605768E-01  0.10171497950E+01  0.10167971903E+01 0.  0.
     999903    2    3    3    0    0 -0.69542187022E-01 -0.92374194961E-01  0.55345979393E-01  0.12979276614E+00  0.20343968097E-01 0.  0.
         14    1    1    2    0    0  0.97250082869E-03  0.61020327059E-02 -0.26057605768E-01  0.26780204991E-01  0.00000000000E+00 0. -1.
     999901    1    3    3    0    0  0.68569686193E-01  0.86272162255E-01 -0.29288373625E-01  0.88735702886E+00  0.88000000000E+00 0. -1.
        -11    1    4    4    0    0 -0.38536709899E-01 -0.43685070358E-01  0.17734314344E-01  0.60895241261E-01  0.51100000000E-03 0. -1.
         11    1    4    4    0    0 -0.31005477123E-01 -0.48689124603E-01  0.37611665050E-01  0.68897524883E-01  0.51100000000E-03 0.  1.
</event>
<event>
 8    1  0.1088270E+005  0.1043930E+01  0.7957747E-01            NaN
         13   -1    0    0    0    0  0.00000000000E+00  0.00000000000E+00  0.74505805969E-08  0.10566000000E+00  0.10566000000E+00 0. -1.
     999900   -1    0    0    0    0 -0.00000000000E+00 -0.00000000000E+00 -0.74505805969E-08  0.93827000000E+00  0.93827000000E+00 0. -1.
     999902    2    1    2    0    0  0.19038157624E-02  0.20757535589E-01 -0.56294253147E-02  0.10223385612E+01  0.10221105339E+01 0.  0.
     999903    2    3    3    0    0  0.10110301510E+00 -0.64677654837E-01 -0.52623208202E-01  0.13141316114E+00  0.97569556319E-02 0.  0.
         14    1    1    2    0    0 -0.19038157624E-02 -0.20757535589E-01  0.56294253147E-02  0.21591438756E-01  0.00000000000E+00 0. -1.
     999901    1    3    3    0    0 -0.99199199337E-01  0.85435190426E-01  0.46993782888E-01  0.89092540010E+00  0.88000000000E+00 0.  1.
        -11    1    4    4    0    0  0.47181926418E-02 -0.55904735146E-02 -0.38938081911E-02  0.83028669236E-02  0.51100000000E-03 0.  1.
         11    1    4    4    0    0  0.96384822457E-01 -0.59087181322E-01 -0.48729400011E-01  0.12311029422E+00  0.51100000000E-03 0. -1.
</event>
<event>
 8    1  0.1088270E+005  0.1043930E+01  0.7957747E-01            NaN
         13   -1    0    0    0    0  0.00000000000E+00  0.00000000000E+00  0.74505805969E-08  0.10566000000E+00  0.10566000000E+00 0. -1.
     999900   -1    0    0    0    0 -0.00000000000E+00 -0.00000000000E+00 -0.74505805969E-08  0.93827000000E+00  0.93827000000E+00 0. -1.
     999902    2    1    2    0    0  0.11956883686E-01  0.12478909694E-01 -0.16368818535E-01  0.10201260408E+01  0.10198482782E+01 0.  0.
     999903    2    3    3    0    0  0.42284626974E-01 -0.90061481720E-02  0.12040198458E+00  0.12878568361E+00  0.14832869904E-01 0.  0.
         14    1    1    2    0    0 -0.11956883686E-01 -0.12478909694E-01  0.16368818535E-01  0.23803959226E-01  0.00000000000E+00 0. -1.
     999901    1    3    3    0    0 -0.30327743289E-01  0.21485057866E-01 -0.13677080311E+00  0.89134035716E+00  0.88000000000E+00 0. -1.
        -11    1    4    4    0    0  0.96910442341E-02  0.41472981336E-02  0.27303471217E-01  0.29272121236E-01  0.51100000000E-03 0.  1.
         11    1    4    4    0    0  0.32593582740E-01 -0.13153446306E-01  0.93098513360E-01  0.99513562374E-01  0.51100000000E-03 0. -1.
</event>
<event>
 8    1  0.1088270E+005  0.1043930E+01  0.7957747E-01            NaN
         13   -1    0    0    0    0  0.00000000000E+00  0.00000000000E+00  0.74505805969E-08  0.10566000000E+00  0.10566000000E+00 0.  1.
     999900   -1    0    0    0    0 -0.00000000000E+00 -0.00000000000E+00 -0.74505805969E-08  0.93827000000E+00  0.93827000000E+00 0.  1.
     999902    2    1    2    0    0  0.23723470878E-01 -0.64176519427E-02 -0.44636489968E-02  0.10189517397E+01  0.10186455391E+01 0.  0.
     999903    2    3    3    0    0 -0.44725425364E-01 -0.11343475038E+00  0.36669672805E-01  0.12887878708E+00  0.19931647902E-01 0.  0.
         14    1    1    2    0    0 -0.23723470878E-01  0.64176519427E-02  0.44636489968E-02  0.24978260335E-01  0.00000000000E+00 0.  1.
     999901    1    3    3    0    0  0.68448896242E-01  0.10701709844E+00 -0.41133321802E-01  0.89007295258E+00  0.88000000000E+00 0. -1.
        -11    1    4    4    0    0 -0.85671176534E-02 -0.13053484786E-01  0.11092580351E-01  0.19159734596E-01  0.51100000000E-03 0.  1.
         11    1    4    4    0    0 -0.36158307711E-01 -0.10038126560E+00  0.25577092453E-01  0.10971905249E+00  0.51100000000E-03 0. -1.
</event>
<event>
 8    1  0.1088270E+005  0.1043930E+01  0.7957747E-01            NaN
         13   -1    0    0    0    0  0.00000000000E+00  0.00000000000E+00  0.74505805969E-08  0.10566000000E+00  0.10566000000E+00 0. -1.
     999900   -1    0    0    0    0 -0.00000000000E+00 -0.00000000000E+00 -0.74505805969E-08  0.93827000000E+00  0.93827000000E+00 0. -1.
     999902    2    1    2    0    0  0.13609386581E-01 -0.11444317546E-01  0.15527118683E-01  0.10203232378E+01  0.10200501117E+01 0.  0.
     999903    2    3    3    0    0 -0.26972698431E-01  0.12339683658E+00  0.14611204451E-01  0.12912747851E+00  0.22496948042E-01 0.  0.
         14    1    1    2    0    0 -0.13609386581E-01  0.11444317546E-01 -0.15527118683E-01  0.23606762205E-01  0.00000000000E+00 0.  1.
     999901    1    3    3    0    0  0.40582085013E-01 -0.13484115413E+00  0.91591423117E-03  0.89119575929E+00  0.88000000000E+00 0.  1.
        -11    1    4    4    0    0 -0.88897863911E-02  0.20809356324E-01 -0.48669688624E-02  0.23151805969E-01  0.51100000000E-03 0.  1.
         11    1    4    4    0    0 -0.18082912040E-01  0.10258748026E+00  0.19478173314E-01  0.10597567254E+00  0.51100000000E-03 0. -1.
</event>
<event>
 8    1  0.1088270E+005  0.1043930E+01  0.7957747E-01            NaN
         13   -1    0    0    0    0  0.00000000000E+00  0.00000000000E+00  0.74505805969E-08  0.10566000000E+00  0.10566000000E+00 0.  1.
     999900   -1    0    0    0    0 -0.00000000000E+00 -0.00000000000E+00 -0.74505805969E-08  0.93827000000E+00  0.93827000000E+00 0. -1.
     999902    2    1    2    0    0  0.15160311223E-01  0.17255264886E-01  0.12693874808E-01  0.10176866454E+01  0.10173482170E+01 0.  0.
     999903    2    3    3    0    0 -0.21455720168E-01 -0.10956008819E+00  0.56717947719E-01  0.12675399558E+00  0.19644056347E-01 0.  0.
         14    1    1    2    0    0 -0.15160311223E-01 -0.17255264886E-01 -0.12693874808E-01  0.26243354593E-01  0.00000000000E+00 0.  1.
     999901    1    3    3    0    0  0.36616031391E-01  0.12681535308E+00 -0.44024072911E-01  0.89093264983E+00  0.88000000000E+00 0. -1.
        -11    1    4    4    0    0 -0.21855159536E-01 -0.94688975958E-01  0.42152618486E-01  0.10592806301E+00  0.51100000000E-03 0. -1.
         11    1    4    4    0    0  0.39943936786E-03 -0.14871112233E-01  0.14565329233E-01  0.20825932573E-01  0.51100000000E-03 0.  1.
</event>
<event>
 8    1  0.1088270E+005  0.1043930E+01  0.7957747E-01            NaN
         13   -1    0    0    0    0  0.00000000000E+00  0.00000000000E+00  0.74505805969E-08  0.10566000000E+00  0.10566000000E+00 0.  1.
     999900   -1    0    0    0    0 -0.00000000000E+00 -0.00000000000E+00 -0.74505805969E-08  0.93827000000E+00  0.93827000000E+00 0.  1.
     999902    2    1    2    0    0 -0.81392024888E-02 -0.18809612217E-01 -0.11005519731E-01  0.10206669479E+01  0.10204018076E+01 0.  0.
     999903    2    3    3    0    0 -0.11690127826E+00  0.27834994754E-01 -0.50442344509E-01  0.13186991165E+00  0.20113370849E-01 0.  0.
         14    1    1    2    0    0  0.81392024888E-02  0.18809612217E-01  0.11005519731E-01  0.23263052110E-01  0.00000000000E+00 0. -1.
     999901    1    3    3    0    0  0.10876207577E+00 -0.46644606971E-01  0.39436824777E-01  0.88879703624E+00  0.88000000000E+00 0. -1.
        -11    1    4    4    0    0 -0.50268746506E-01  0.67291458142E-02 -0.30498295934E-01  0.59183067296E-01  0.51100000000E-03 0. -1.
         11    1    4    4    0    0 -0.66632531753E-01  0.21105848940E-01 -0.19944048574E-01  0.72686844351E-01  0.51100000000E-03 0.  1.
</event>
<event>
 8    1  0.1088270E+005  0.1043930E+01  0.7957747E-01            NaN
         13   -1    0    0    0    0  0.00000000000E+00  0.00000000000E+00  0.74505805969E-08  0.10566000000E+00  0.10566000000E+00 0.  1.
     999900   -1    0    0    0    0 -0.00000000000E+00 -0.00000000000E+00 -0.74505805969E-08  0.93827000000E+00  0.93827000000E+00 0. -1.
     999902    2    1    2    0    0  0.11664364922E-01  0.31301552800E-02  0.19385466999E-01  0.10210903062E+01  0.10208348357E+01 0.  0.
     999903    2    3    3    0    0 -0.67992493330E-01  0.56861405704E-01 -0.91054008457E-01  0.12899774372E+00  0.22212312350E-01 0.  0.
         14    1    1    2    0    0 -0.11664364922E-01 -0.31301552800E-02 -0.19385466999E-01  0.22839693778E-01  0.00000000000E+00 0. -1.
     999901    1    3    3    0    0  0.79656858252E-01 -0.53731250424E-01  0.11043947546E+00  0.89209256251E+00  0.88000000000E+00 0.  1.
        -11    1    4    4    0    0 -0.95808677974E-02  0.17677882868E-01 -0.28397940420E-01  0.34799492979E-01  0.51100000000E-03 0. -1.
         11    1    4    4    0    0 -0.58411625533E-01  0.39183522835E-01 -0.62656068036E-01  0.94198250737E-01  0.51100000000E-03 0.  1.
</event>
<event>
 8    1  0.1088270E+005  0.1043930E+01  0.7957747E-01            NaN
         13   -1    0    0    0    0  0.00000000000E+00  0.00000000000E+00  0.74505805969E-08  0.10566000000E+00  0.10566000000E+00 0.  1.
     999900   -1    0    0    0    0 -0.00000000000E+00 -0.00000000000E+00 -0.74505805969E-08  0.93827000000E+00  0.93827000000E+00 0.  1.
     999902    2    1    2    0    0  0.13076565500E-02  0.43744348788E-02 -0.23536186007E-01  0.10199550610E+01  0.10196732461E+01 0.  0.
     999903    2    3    3    0    0  0.28909179420E-01 -0.12474532383E+00 -0.11562517388E-01  0.13002409468E+00  0.19376194615E-01 0.  0.
         14    1    1    2    0    0 -0.13076565500E-02 -0.43744348788E-02  0.23536186007E-01  0.23974938956E-01  0.00000000000E+00 0.  1.
     999901    1    3    3    0    0 -0.27601522870E-01  0.12911975871E+00 -0.11973668619E-01  0.88993096636E+00  0.88000000000E+00 0. -1.
        -11    1    4    4    0    0  0.10203804404E-01 -0.24786012838E-01 -0.90567526958E-02  0.28297525459E-01  0.51100000000E-03 0.  1.
         11    1    4    4    0    0  0.18705375016E-01 -0.99959310989E-01 -0.25057646920E-02  0.10172656922E+00  0.51100000000E-03 0. -1.
</event>
<event>
 8    1  0.1088270E+005  0.1043930E+01  0.7957747E-01            NaN
         13   -1    0    0    0    0  0.00000000000E+00  0.00000000000E+00  0.74505805969E-08  0.10566000000E+00  0.10566000000E+00 0. -1.
     999900   -1    0    0    0    0 -0.00000000000E+00 -0.00000000000E+00 -0.74505805969E-08  0.93827000000E+00  0.93827000000E+00 0.  1.
     999902    2    1    2    0    0 -0.20087562906E-01 -0.83121604264E-02  0.25408038447E-02  0.10220426091E+01  0.10218082193E+01 0.  0.
     999903    2    3    3    0    0  0.34919738055E-01  0.12114885910E+00  0.27033054772E-01  0.13053499331E+00  0.20301828958E-01 0.  0.
         14    1    1    2    0    0  0.20087562906E-01  0.83121604264E-02 -0.25408038447E-02  0.21887390859E-01  0.00000000000E+00 0. -1.
     999901    1    3    3    0    0 -0.55007300961E-01 -0.12946101953E+00 -0.24492250927E-01  0.89150761584E+00  0.88000000000E+00 0.  1.
        -11    1    4    4    0    0  0.21987057500E-01  0.10310466674E+00  0.20624294952E-01  0.10742264968E+00  0.51100000000E-03 0.  1.
         11    1    4    4    0    0  0.12932680555E-01  0.18044192361E-01  0.64087598200E-02  0.23112343622E-01  0.51100000000E-03 0. -1.
</event>
<event>
 8    1  0.1088270E+005  0.1043930E+01  0.7957747E-01            NaN
         13   -1    0    0    0    0  0.00000000000E+00  0.00000000000E+00  0.74505805969E-08  0.10566000000E+00  0.10566000000E+00 0.  1.
     999900   -1    0    0    0    0 -0.00000000000E+00 -0.00000000000E+00 -0.74505805969E-08  0.93827000000E+00  0.93827000000E+00 0. -1.
     999902    2    1    2    0    0  0.15922178316E-02 -0.15120935260E-01  0.19769754533E-01  0.10189896505E+01  0.10186843901E+01 0.  0.
     999903    2    3    3    0    0 -0.68549963464E-01 -0.10209325994E+00 -0.37062866225E-01  0.13010604861E+00  0.20779716445E-01 0.  0.
         14    1    1    2    0    0 -0.15922178316E-02  0.15120935260E-01 -0.19769754533E-01  0.24940349538E-01  0.00000000000E+00 0.  1.
     999901    1    3    3    0    0  0.70142181296E-01  0.86972324684E-01  0.56832620758E-01  0.88888360185E+00  0.88000000000E+00 0.  1.
        -11    1    4    4    0    0 -0.16622479844E-01 -0.40105810252E-01 -0.18153569041E-01  0.47059494707E-01  0.51100000000E-03 0.  1.
         11    1    4    4    0    0 -0.51927483620E-01 -0.61987449691E-01 -0.18909297184E-01  0.83046553904E-01  0.51100000000E-03 0. -1.
</event>
<event>
 8    1  0.1088270E+005  0.1043930E+01  0.7957747E-01            NaN
         13   -1    0    0    0    0  0.00000000000E+00  0.00000000000E+00  0.74505805969E-08  0.10566000000E+00  0.10566000000E+00 0.  1.
     999900   -1    0    0    0    0 -0.00000000000E+00 -0.00000000000E+00 -0.74505805969E-08  0.93827000000E+00  0.93827000000E+00 0.  1.
     999902    2    1    2    0    0  0.79555086281E-02 -0.14677144717E-01 -0.16700374919E-01  0.10203162071E+01  0.10200429163E+01 0.  0.
     999903    2    3    3    0    0 -0.20535699035E-01 -0.80442152009E-01  0.97725864466E-01  0.13001842016E+00  0.21489305262E-01 0.  0.
         14    1    1    2    0    0 -0.79555086281E-02  0.14677144717E-01  0.16700374919E-01  0.23613792940E-01  0.00000000000E+00 0.  1.
     999901    1    3    3    0    0  0.28491207663E-01  0.65765007291E-01 -0.11442623939E+00  0.89029778690E+00  0.88000000000E+00 0.  1.
        -11    1    4    4    0    0 -0.16925813848E-01 -0.55813883556E-01  0.52897965712E-01  0.78740895788E-01  0.51100000000E-03 0. -1.
         11    1    4    4    0    0 -0.36098851872E-02 -0.24628268453E-01  0.44827898754E-01  0.51277524372E-01  0.51100000000E-03 0.  1.
</event>
<event>
 8    1  0.1088270E+005  0.1043930E+01  0.7957747E-01            NaN
         13   -1    0    0    0    0  0.00000000000E+00  0.00000000000E+00  0.74505805969E-08  0.10566000000E+00  0.10566000000E+00 0. -1.
     999900   -1    0    0    0    0 -0.00000000000E+00 -0.00000000000E+00 -0.74505805969E-08  0.93827000000E+00  0.93827000000E+00 0. -1.
     999902    2    1    2    0    0 -0.39195509431E-02 -0.22611248320E-01  0.86733734697E-02  0.10193971886E+01  0.10191019425E+01 0.  0.
     999903    2    3    3    0    0 -0.49520986420E-01  0.11402077518E+00  0.18969922321E-01  0.12762713990E+00  0.21812006224E-01 0.  0.
         14    1    1    2    0    0  0.39195509431E-02  0.22611248320E-01 -0.86733734697E-02  0.24532811447E-01  0.00000000000E+00 0.  1.
     999901    1    3    3    0    0  0.45601435477E-01 -0.13663202350E+00 -0.10296548851E-01  0.89177004866E+00  0.88000000000E+00 0. -1.
        -11    1    4    4    0    0 -0.40618645529E-01  0.67937796631E-01  0.14544791289E-01  0.80481244091E-01  0.51100000000E-03 0. -1.
         11    1    4    4    0    0 -0.89023408913E-02  0.46082978552E-01  0.44251310322E-02  0.47145895805E-01  0.51100000000E-03 0.  1.
</event>
<event>
 8    1  0.1088270E+005  0.1043930E+01  0.7957747E-01            NaN
         13   -1    0    0    0    0  0.00000000000E+00  0.00000000000E+00  0.74505805969E-08  0.10566000000E+00  0.10566000000E+00 0.  1.
     999900   -1    0    0    0    0 -0.00000000000E+00 -0.00000000000E+00 -0.74505805969E-08  0.93827000000E+00  0.93827000000E+00 0.  1.
     999902    2    1    2    0    0 -0.41603000381E-02 -0.19549282309E-01  0.48982916637E-02  0.10233514724E+01  0.10231445452E+01 0.  0.
     999903    2    3    3    0    0 -0.27661323189E-01 -0.93558902058E-01 -0.87129539615E-01  0.13515169557E+00  0.34000105700E-01 0.  0.
         14    1    1    2    0    0  0.41603000381E-02  0.19549282309E-01 -0.48982916637E-02  0.20578527557E-01  0.00000000000E+00 0. -1.
     999901    1    3    3    0    0  0.23501023151E-01  0.74009619750E-01  0.92027831278E-01  0.88819977687E+00  0.88000000000E+00 0. -1.
        -11    1    4    4    0    0 -0.24085591088E-02 -0.65273974899E-01 -0.52615240766E-01  0.83875608123E-01  0.51100000000E-03 0. -1.
         11    1    4    4    0    0 -0.25252764080E-01 -0.28284927159E-01 -0.34514298848E-01  0.51276087449E-01  0.51100000000E-03 0.  1.
</event>
<event>
 8    1  0.1088270E+005  0.1043930E+01  0.7957747E-01            NaN
         13   -1    0    0    0    0  0.00000000000E+00  0.00000000000E+00  0.74505805969E-08  0.10566000000E+00  0.10566000000E+00 0.  1.
     999900   -1    0    0    0    0 -0.00000000000E+00 -0.00000000000E+00 -0.74505805969E-08  0.93827000000E+00  0.93827000000E+00 0. -1.
     999902    2    1    2    0    0  0.19985867153E-02  0.16755598067E-02 -0.20185500197E-01  0.10235767136E+01  0.10233743364E+01 0.  0.
     999903    2    3    3    0    0  0.94872467664E-01 -0.90760208004E-01  0.11839392303E-01  0.13329837359E+00  0.19750562366E-01 0.  0.
         14    1    1    2    0    0 -0.19985867153E-02 -0.16755598067E-02  0.20185500197E-01  0.20353286411E-01  0.00000000000E+00 0.  1.
     999901    1    3    3    0    0 -0.92873880949E-01  0.92435767811E-01 -0.32024892500E-01  0.89027834000E+00  0.88000000000E+00 0. -1.
        -11    1    4    4    0    0  0.40013440186E-01 -0.25235531879E-01  0.37777008790E-02  0.47459873679E-01  0.51100000000E-03 0.  1.
         11    1    4    4    0    0  0.54859027479E-01 -0.65524676125E-01  0.80616914241E-02  0.85838499910E-01  0.51100000000E-03 0. -1.
</event>
<event>
 8    1  0.1088270E+005  0.1043930E+01  0.7957747E-01            NaN
         13   -1    0    0    0    0  0.00000000000E+00  0.00000000000E+00  0.74505805969E-08  0.10566000000E+00  0.10566000000E+00 0.  1.
     999900   -1    0    0    0    0 -0.00000000000E+00 -0.00000000000E+00 -0.74505805969E-08  0.93827000000E+00  0.93827000000E+00 0.  1.
     999902    2    1    2    0    0 -0.17428522996E-01  0.14440556191E-01 -0.42202353374E-02  0.10209062413E+01  0.10206465892E+01 0.  0.
     999903    2    3    3    0    0  0.10959668228E+00 -0.64827627254E-01  0.35436733250E-03  0.12824741811E+00  0.15271563566E-01 0.  0.
         14    1    1    2    0    0  0.17428522996E-01 -0.14440556191E-01  0.42202353374E-02  0.23023758669E-01  0.00000000000E+00 0. -1.
     999901    1    3    3    0    0 -0.12702520528E+00  0.79268183445E-01 -0.45746026699E-02  0.89265882322E+00  0.88000000000E+00 0.  1.
        -11    1    4    4    0    0  0.24772457075E-01 -0.87751520095E-02  0.35523400280E-02  0.26524670836E-01  0.51100000000E-03 0. -1.
         11    1    4    4    0    0  0.84824225206E-01 -0.56052475244E-01 -0.31979726955E-02  0.10172274727E+00  0.51100000000E-03 0.  1.
</event>
<event>
 8    1  0.1088270E+005  0.1043930E+01  0.7957747E-01            NaN
         13   -1    0    0    0    0  0.00000000000E+00  0.00000000000E+00  0.74505805969E-08  0.10566000000E+00  0.10566000000E+00 0. -1.
     999900   -1    0    0    0    0 -0.00000000000E+00 -0.00000000000E+00 -0.74505805969E-08  0.93827000000E+00  0.93827000000E+00 0. -1.
     999902    2    1    2    0    0  0.13581250933E-02  0.21273169740E-01  0.11094553694E-01  0.10198991578E+01  0.10196160114E+01 0.  0.
     999903    2    3    3    0    0 -0.37932769775E-01 -0.11364298266E+00  0.41391908821E-01  0.12823550355E+00  0.19427602162E-01 0.  0.
         14    1    1    2    0    0 -0.13581250933E-02 -0.21273169740E-01 -0.11094553694E-01  0.24030842187E-01  0.00000000000E+00 0.  1.
     999901    1    3    3    0    0  0.39290894868E-01  0.13491615240E+00 -0.30297355127E-01  0.89166365426E+00  0.88000000000E+00 0.  1.
        -11    1    4    4    0    0 -0.82985628771E-02 -0.11912479290E-01  0.10299798424E-01  0.17807871215E-01  0.51100000000E-03 0.  1.
         11    1    4    4    0    0 -0.29634206898E-01 -0.10173050337E+00  0.31092110398E-01  0.11042763234E+00  0.51100000000E-03 0. -1.
</event>
<event>
 8    1  0.1088270E+005  0.1043930E+01  0.7957747E-01            NaN
         13   -1    0    0    0    0  0.00000000000E+00  0.00000000000E+00  0.74505805969E-08  0.10566000000E+00  0.10566000000E+00 0. -1.
     999900   -1    0    0    0    0 -0.00000000000E+00 -0.00000000000E+00 -0.74505805969E-08  0.93827000000E+00  0.93827000000E+00 0. -1.
     999902    2    1    2    0    0  0.14780223902E-01  0.16582592226E-01  0.60084931489E-02  0.10209182775E+01  0.10206588999E+01 0.  0.
     999903    2    3    3    0    0 -0.80403720857E-01 -0.50779465972E-01  0.85735697788E-01  0.12965285271E+00  0.20394603425E-01 0.  0.
         14    1    1    2    0    0 -0.14780223902E-01 -0.16582592226E-01 -0.60084931489E-02  0.23011722523E-01  0.00000000000E+00 0.  1.
     999901    1    3    3    0    0  0.95183944759E-01  0.67362058198E-01 -0.79727204639E-01  0.89126542477E+00  0.88000000000E+00 0. -1.
        -11    1    4    4    0    0 -0.25864104051E-01 -0.78902398264E-02  0.31962937246E-01  0.41870016017E-01  0.51100000000E-03 0. -1.
         11    1    4    4    0    0 -0.54539616807E-01 -0.42889226145E-01  0.53772760542E-01  0.87782836694E-01  0.51100000000E-03 0.  1.
</event>
<event>
 8    1  0.1088270E+005  0.1043930E+01  0.7957747E-01            NaN
         13   -1    0    0    0    0  0.00000000000E+00  0.00000000000E+00  0.74505805969E-08  0.10566000000E+00  0.10566000000E+00 0.  1.
     999900   -1    0    0    0    0 -0.00000000000E+00 -0.00000000000E+00 -0.74505805969E-08  0.93827000000E+00  0.93827000000E+00 0. -1.
     999902    2    1    2    0    0 -0.19408409821E-01 -0.42499613287E-02  0.12602614059E-01  0.10204018376E+01  0.10201305484E+01 0.  0.
     999903    2    3    3    0    0 -0.95644463713E-01  0.27966310054E-01 -0.83527533949E-01  0.13130632566E+00  0.18290005322E-01 0.  0.
         14    1    1    2    0    0  0.19408409821E-01  0.42499613287E-02 -0.12602614059E-01  0.23528162363E-01  0.00000000000E+00 0. -1.
     999901    1    3    3    0    0  0.76236053892E-01 -0.32216271383E-01  0.96130148007E-01  0.88909551197E+00  0.88000000000E+00 0. -1.
        -11    1    4    4    0    0 -0.49343479854E-01  0.14464866753E-01 -0.54885141048E-01  0.75210712024E-01  0.51100000000E-03 0. -1.
         11    1    4    4    0    0 -0.46300983859E-01  0.13501443302E-01 -0.28642392901E-01  0.56095613640E-01  0.51100000000E-03 0.  1.
</event>
<event>
 8    1  0.1088270E+005  0.1043930E+01  0.7957747E-01            NaN
         13   -1    0    0    0    0  0.00000000000E+00  0.00000000000E+00  0.74505805969E-08  0.10566000000E+00  0.10566000000E+00 0.  1.
     999900   -1    0    0    0    0 -0.00000000000E+00 -0.00000000000E+00 -0.74505805969E-08  0.93827000000E+00  0.93827000000E+00 0.  1.
     999902    2    1    2    0    0 -0.16168495075E-01 -0.77150973152E-02  0.16433214269E-01  0.10196196423E+01  0.10193297904E+01 0.  0.
     999903    2    3    3    0    0  0.60841065511E-01  0.92763520411E-02  0.11365115042E+00  0.13076053712E+00  0.19850645234E-01 0.  0.
         14    1    1    2    0    0  0.16168495075E-01  0.77150973152E-02 -0.16433214269E-01  0.24310357685E-01  0.00000000000E+00 0.  1.
     999901    1    3    3    0    0 -0.77009560586E-01 -0.16991449356E-01 -0.97217936155E-01  0.88885910519E+00  0.88000000000E+00 0.  1.
        -11    1    4    4    0    0  0.39285638068E-01 -0.33058796718E-02  0.75345274469E-01  0.85038001532E-01  0.51100000000E-03 0. -1.
         11    1    4    4    0    0  0.21555427444E-01  0.12582231713E-01  0.38305875955E-01  0.45722535591E-01  0.51100000000E-03 0.  1.
</event>
<event>
 8    1  0.1088270E+005  0.1043930E+01  0.7957747E-01            NaN
         13   -1    0    0    0    0  0.00000000000E+00  0.00000000000E+00  0.74505805969E-08  0.10566000000E+00  0.10566000000E+00 0. -1.
     999900   -1    0    0    0    0 -0.00000000000E+00 -0.00000000000E+00 -0.74505805969E-08  0.93827000000E+00  0.93827000000E+00 0. -1.
     999902    2    1    2    0    0  0.16471215252E-01 -0.11595754269E-01  0.12369229461E-01  0.10202918891E+01  0.10200180286E+01 0.  0.
     999903    2    3    3    0    0  0.98431341973E-01  0.71615781959E-01  0.46481450071E-01  0.13191963283E+00  0.20608615117E-01 0.  0.
         14    1    1    2    0    0 -0.16471215252E-01  0.11595754269E-01 -0.12369229461E-01  0.23638110889E-01  0.00000000000E+00 0.  1.
     999901    1    3    3    0    0 -0.81960126721E-01 -0.83211536229E-01 -0.34112220610E-01  0.88837225628E+00  0.88000000000E+00 0. -1.
        -11    1    4    4    0    0  0.54260769160E-02  0.11225406861E-01  0.32231932435E-02  0.12888062910E-01  0.51100000000E-03 0. -1.
         11    1    4    4    0    0  0.93005265057E-01  0.60390375099E-01  0.43258256828E-01  0.11903156992E+00  0.51100000000E-03 0.  1.
</event>
<event>
 8    1  0.1088270E+005  0.1043930E+01  0.7957747E-01            NaN
         13   -1    0    0    0    0  0.00000000000E+00  0.00000000000E+00  0.74505805969E-08  0.10566000000E+00  0.10566000000E+00 0.  1.
     999900   -1    0    0    0    0 -0.00000000000E+00 -0.00000000000E+00 -0.74505805969E-08  0.93827000000E+00  0.93827000000E+00 0. -1.
     999902    2    1    2    0    0  0.86869035998E-02  0.67871533565E-02  0.21442944165E-01  0.10198192638E+01  0.10195342090E+01 0.  0.
     999903    2    3    3    0    0 -0.35003737409E-01  0.12348931787E+00 -0.12817717366E-01  0.13038008082E+00  0.18968350931E-01 0.  0.
         14    1    1    2    0    0 -0.86869035998E-02 -0.67871533565E-02 -0.21442944165E-01  0.24110736183E-01  0.00000000000E+00 0. -1.
     999901    1    3    3    0    0  0.43690641009E-01 -0.11670216451E+00  0.34260661531E-01  0.88943918299E+00  0.88000000000E+00 0.  1.
        -11    1    4    4    0    0 -0.27205760215E-01  0.62340628179E-01 -0.90397198145E-02  0.68618401074E-01  0.51100000000E-03 0.  1.
         11    1    4    4    0    0 -0.77979771939E-02  0.61148689690E-01 -0.37779975513E-02  0.61761679751E-01  0.51100000000E-03 0. -1.
</event>
<event>
 8    1  0.1088270E+005  0.1043930E+01  0.7957747E-01            NaN
         13   -1    0    0    0    0  0.00000000000E+00  0.00000000000E+00  0.74505805969E-08  0.10566000000E+00  0.10566000000E+00 0. -1.
     999900   -1    0    0    0    0 -0.00000000000E+00 -0.00000000000E+00 -0.74505805969E-08  0.93827000000E+00  0.93827000000E+00 0. -1.
     999902    2    1    2    0    0 -0.11259695711E-01 -0.21716216960E-01 -0.20722644077E-02  0.10193806801E+01  0.10190850317E+01 0.  0.
     999903    2    3    3    0    0 -0.10085111197E+00  0.78162539127E-01 -0.24209479455E-02  0.12921074727E+00  0.20229357663E-01 0.  0.
         14    1    1    2    0    0  0.11259695711E-01  0.21716216960E-01  0.20722644077E-02  0.24549319876E-01  0.00000000000E+00 0.  1.
     999901    1    3    3    0    0  0.89591416260E-01 -0.99878756087E-01  0.34868353777E-03  0.89016993286E+00  0.88000000000E+00 0.  1.
        -11    1    4    4    0    0 -0.77128037256E-01  0.48884252111E-01  0.14353920932E-02  0.91327573639E-01  0.51100000000E-03 0.  1.
         11    1    4    4    0    0 -0.23723074716E-01  0.29278287015E-01 -0.38563400387E-02  0.37883173627E-01  0.51100000000E-03 0. -1.
</event>
<event>
 8    1  0.1088270E+005  0.1043930E+01  0.7957747E-01            NaN
         13   -1    0    0    0    0  0.00000000000E+00  0.00000000000E+00  0.74505805969E-08  0.10566000000E+00  0.10566000000E+00 0. -1.
     999900   -1    0    0    0    0 -0.00000000000E+00 -0.00000000000E+00 -0.74505805969E-08  0.93827000000E+00  0.93827000000E+00 0.  1.
     999902    2    1    2    0    0 -0.19742970471E-01 -0.48128962312E-02 -0.13764162362E-01  0.10193861409E+01  0.10190906256E+01 0.  0.
     999903    2    3    3    0    0 -0.35779378794E-02 -0.53419076100E-02 -0.12996099828E+00  0.13160052895E+00  0.19685033183E-01 0.  0.
         14    1    1    2    0    0  0.19742970471E-01  0.48128962312E-02  0.13764162362E-01  0.24543859083E-01  0.00000000000E+00 0. -1.
     999901    1    3    3    0    0 -0.16165032592E-01  0.52901137874E-03  0.11619683591E+00  0.88778561196E+00  0.88000000000E+00 0. -1.
        -11    1    4    4    0    0 -0.94066485643E-03  0.45125178222E-02 -0.82701488324E-02  0.94817799056E-02  0.51100000000E-03 0. -1.
         11    1    4    4    0    0 -0.26372730229E-02 -0.98544254322E-02 -0.12169084944E+00  0.12211874905E+00  0.51100000000E-03 0.  1.
</event>
<event>
 8    1  0.1088270E+005  0.1043930E+01  0.7957747E-01            NaN
         13   -1    0    0    0    0  0.00000000000E+00  0.00000000000E+00  0.74505805969E-08  0.10566000000E+00  0.10566000000E+00 0.  1.
     999900   -1    0    0    0    0 -0.00000000000E+00 -0.00000000000E+00 -0.74505805969E-08  0.93827000000E+00  0.93827000000E+00 0.  1.
     999902    2    1    2    0    0 -0.14038430531E-01  0.49478904983E-02  0.17874011807E-01  0.10206697453E+01  0.10204046695E+01 0.  0.
     999903    2    3    3    0    0  0.99111301524E-01 -0.54927922098E-01 -0.56408423005E-01  0.12831003365E+00  0.21010184035E-01 0.  0.
         14    1    1    2    0    0  0.14038430531E-01 -0.49478904983E-02 -0.17874011807E-01  0.23260254733E-01  0.00000000000E+00 0. -1.
     999901    1    3    3    0    0 -0.11314973206E+00  0.59875812596E-01  0.74282434813E-01  0.89235971162E+00  0.88000000000E+00 0. -1.
        -11    1    4    4    0    0  0.44570542808E-01 -0.17588971746E-01 -0.33024673613E-01  0.58196180300E-01  0.51100000000E-03 0. -1.
         11    1    4    4    0    0  0.54540758716E-01 -0.37338950352E-01 -0.23383749392E-01  0.70113853348E-01  0.51100000000E-03 0.  1.
</event>
<event>
 8    1  0.1088270E+005  0.1043930E+01  0.7957747E-01            NaN
         13   -1    0    0    0    0  0.00000000000E+00  0.00000000000E+00  0.74505805969E-08  0.10566000000E+00  0.10566000000E+00 0.  1.
     999900   -1    0    0    0    0 -0.00000000000E+00 -0.00000000000E+00 -0.74505805969E-08  0.93827000000E+00  0.93827000000E+00 0. -1.
     999902    2    1    2    0    0  0.14209100201E-01 -0.63328000005E-03  0.14388656437E-01  0.10236980202E+01  0.10234980721E+01 0.  0.
     999903    2    3    3    0    0 -0.97519846820E-01  0.17160840710E-01  0.87355513041E-01  0.13345976531E+00  0.19388355249E-01 0.  0.
         14    1    1    2    0    0 -0.14209100201E-01  0.63328000005E-03 -0.14388656437E-01  0.20231979788E-01  0.00000000000E+00 0. -1.
     999901    1    3    3    0    0  0.11172894702E+00 -0.17794120710E-01 -0.72966856605E-01  0.89023825491E+00  0.88000000000E+00 0. -1.
        -11    1    4    4    0    0 -0.69520330755E-01  0.95111635506E-02  0.72320039391E-01  0.10076699777E+00  0.51100000000E-03 0.  1.
         11    1    4    4    0    0 -0.27999516066E-01  0.76496771593E-02  0.15035473650E-01  0.32692767540E-01  0.51100000000E-03 0. -1.
</event>
<event>
 8    1  0.1088270E+005  0.1043930E+01  0.7957747E-01            NaN
         13   -1    0    0    0    0  0.00000000000E+00  0.00000000000E+00  0.74505805969E-08  0.10566000000E+00  0.10566000000E+00 0. -1.
     999900   -1    0    0    0    0 -0.00000000000E+00 -0.00000000000E+00 -0.74505805969E-08  0.93827000000E+00  0.93827000000E+00 0.  1.
     999902    2    1    2    0    0  0.15829316543E-01 -0.15651146853E-01  0.85725874749E-02  0.10200759665E+01  0.10197970202E+01 0.  0.
     999903    2    3    3    0    0 -0.15760331242E-01 -0.27704070047E-01  0.12641002871E+00  0.13157788466E+00  0.17814062829E-01 0.  0.
         14    1    1    2    0    0 -0.15829316543E-01  0.15651146853E-01 -0.85725874749E-02  0.23854033539E-01  0.00000000000E+00 0.  1.
     999901    1    3    3    0    0  0.31589647785E-01  0.12052923194E-01 -0.11783744124E+00  0.88849808180E+00  0.88000000000E+00 0.  1.
        -11    1    4    4    0    0 -0.12910203626E-01 -0.15582460494E-01  0.46683478525E-01  0.50883147710E-01  0.51100000000E-03 0.  1.
         11    1    4    4    0    0 -0.28501276158E-02 -0.12121609553E-01  0.79726550189E-01  0.80694736951E-01  0.51100000000E-03 0. -1.
</event>
<event>
 8    1  0.1088270E+005  0.1043930E+01  0.7957747E-01            NaN
         13   -1    0    0    0    0  0.00000000000E+00  0.00000000000E+00  0.74505805969E-08  0.10566000000E+00  0.10566000000E+00 0.  1.
     999900   -1    0    0    0    0 -0.00000000000E+00 -0.00000000000E+00 -0.74505805969E-08  0.93827000000E+00  0.93827000000E+00 0. -1.
     999902    2    1    2    0    0  0.18761228036E-01  0.13755623951E-01 -0.57572039370E-02  0.10199644776E+01  0.10196828866E+01 0.  0.
     999903    2    3    3    0    0 -0.48548676094E-01 -0.76023187050E-02  0.11635648977E+00  0.12873019912E+00  0.24856835166E-01 0.  0.
         14    1    1    2    0    0 -0.18761228036E-01 -0.13755623951E-01  0.57572039370E-02  0.23965522420E-01  0.00000000000E+00 0.  1.
     999901    1    3    3    0    0  0.67309904130E-01  0.21357942656E-01 -0.12211369371E+00  0.89123427846E+00  0.88000000000E+00 0. -1.
        -11    1    4    4    0    0 -0.63453926613E-02 -0.79095525310E-02  0.42192354407E-01  0.43396784681E-01  0.51100000000E-03 0.  1.
         11    1    4    4    0    0 -0.42203283433E-01  0.30723382596E-03  0.74164135362E-01  0.85333414441E-01  0.51100000000E-03 0. -1.
</event>
<event>
 8    1  0.1088270E+005  0.1043930E+01  0.7957747E-01            NaN
         13   -1    0    0    0    0  0.00000000000E+00  0.00000000000E+00  0.74505805969E-08  0.10566000000E+00  0.10566000000E+00 0. -1.
     999900   -1    0    0    0    0 -0.00000000000E+00 -0.00000000000E+00 -0.74505805969E-08  0.93827000000E+00  0.93827000000E+00 0. -1.
     999902    2    1    2    0    0  0.52743829289E-02 -0.37138224566E-03 -0.22500353128E-01  0.10208167369E+01  0.10205550389E+01 0.  0.
     999903    2    3    3    0    0 -0.20269092315E-01  0.48310752151E-01 -0.12124656973E+00  0.13358889997E+00  0.20012462298E-01 0.  0.
         14    1    1    2    0    0 -0.52743829289E-02  0.37138224566E-03  0.22500353128E-01  0.23113263096E-01  0.00000000000E+00 0. -1.
     999901    1    3    3    0    0  0.25543475244E-01 -0.48682134397E-01  0.98746216602E-01  0.88722783693E+00  0.88000000000E+00 0.  1.
        -11    1    4    4    0    0 -0.76770676427E-02  0.30554398329E-01 -0.91146776963E-01  0.96439124304E-01  0.51100000000E-03 0.  1.
         11    1    4    4    0    0 -0.12592024672E-01  0.17756353822E-01 -0.30099792768E-01  0.37149775666E-01  0.51100000000E-03 0. -1.
</event>
<event>
 8    1  0.1088270E+005  0.1043930E+01  0.7957747E-01            NaN
         13   -1    0    0    0    0  0.00000000000E+00  0.00000000000E+00  0.74505805969E-08  0.10566000000E+00  0.10566000000E+00 0. -1.
     999900   -1    0    0    0    0 -0.00000000000E+00 -0.00000000000E+00 -0.74505805969E-08  0.93827000000E+00  0.93827000000E+00 0. -1.
     999902    2    1    2    0    0 -0.65383785091E-02  0.12709190379E-01 -0.19049594807E-01  0.10201148583E+01  0.10198368316E+01 0.  0.
     999903    2    3    3    0    0  0.93455327283E-01  0.65941609011E-02 -0.90510972960E-01  0.13155261320E+00  0.18343191055E-01 0.  0.
         14    1    1    2    0    0  0.65383785091E-02 -0.12709190379E-01  0.19049594807E-01  0.23815141737E-01  0.00000000000E+00 0. -1.
     999901    1    3    3    0    0 -0.99993705793E-01  0.61150294782E-02  0.71461378152E-01  0.88856224506E+00  0.88000000000E+00 0. -1.
        -11    1    4    4    0    0  0.68313134773E-01 -0.28370561303E-02 -0.60735791323E-01  0.91453981535E-01  0.51100000000E-03 0. -1.
         11    1    4    4    0    0  0.25142192510E-01  0.94312170315E-02 -0.29775181636E-01  0.40098631665E-01  0.51100000000E-03 0.  1.
</event>
<event>
 8    1  0.1088270E+005  0.1043930E+01  0.7957747E-01            NaN
         13   -1    0    0    0    0  0.00000000000E+00  0.00000000000E+00  0.74505805969E-08  0.10566000000E+00  0.10566000000E+00 0.  1.
     999900   -1    0    0    0    0 -0.00000000000E+00 -0.00000000000E+00 -0.74505805969E-08  0.93827000000E+00  0.93827000000E+00 0.  1.
     999902    2    1    2    0    0 -0.20014871315E-01  0.10564771297E-01 -0.19462357286E-02  0.10212144261E+01  0.10209617557E+01 0.  0.
     999903    2    3    3    0    0 -0.49518354556E-01  0.12064235359E+00 -0.21333527396E-01  0.13365406375E+00  0.20041069046E-01 0.  0.
         14    1    1    2    0    0  0.20014871315E-01 -0.10564771297E-01  0.19462357286E-02  0.22715573949E-01  0.00000000000E+00 0. -1.
     999901    1    3    3    0    0  0.29503483241E-01 -0.11007758229E+00  0.19387291667E-01  0.88756036230E+00  0.88000000000E+00 0. -1.
        -11    1    4    4    0    0 -0.12948905866E-01  0.54056983241E-01 -0.39937006082E-02  0.55731879260E-01  0.51100000000E-03 0. -1.
         11    1    4    4    0    0 -0.36569448690E-01  0.66585370348E-01 -0.17339826788E-01  0.77922184491E-01  0.51100000000E-03 0.  1.
</event>
<event>
 8    1  0.1088270E+005  0.1043930E+01  0.7957747E-01            NaN
         13   -1    0    0    0    0  0.00000000000E+00  0.00000000000E+00  0.74505805969E-08  0.10566000000E+00  0.10566000000E+00 0.  1.
     999900   -1    0    0    0    0 -0.00000000000E+00 -0.00000000000E+00 -0.74505805969E-08  0.93827000000E+00  0.93827000000E+00 0. -1.
     999902    2    1    2    0    0 -0.93074012372E-02 -0.16763602179E-01 -0.15812305334E-01  0.10190769303E+01  0.10187738290E+01 0.  0.
     999903    2    3    3    0    0 -0.69440729121E-01 -0.44821329579E-01  0.97491961664E-01  0.12933477091E+00  0.19794795581E-01 0.  0.
         14    1    1    2    0    0  0.93074012372E-02  0.16763602179E-01  0.15812305334E-01  0.24853069745E-01  0.00000000000E+00 0.  1.
     999901    1    3    3    0    0  0.60133327884E-01  0.28057727401E-01 -0.11330426700E+00  0.88974215934E+00  0.88000000000E+00 0. -1.
        -11    1    4    4    0    0 -0.35529944485E-01 -0.29852906128E-01  0.66056621384E-01  0.80729866277E-01  0.51100000000E-03 0.  1.
         11    1    4    4    0    0 -0.33910784636E-01 -0.14968423451E-01  0.31435340280E-01  0.48604904636E-01  0.51100000000E-03 0. -1.
</event>
<event>
 8    1  0.1088270E+005  0.1043930E+01  0.7957747E-01            NaN
         13   -1    0    0    0    0  0.00000000000E+00  0.00000000000E+00  0.74505805969E-08  0.10566000000E+00  0.10566000000E+00 0. -1.
     999900   -1    0    0    0    0 -0.00000000000E+00 -0.00000000000E+00 -0.74505805969E-08  0.93827000000E+00  0.93827000000E+00 0. -1.
     999902    2    1    2    0    0  0.10930686240E-01  0.15883217825E-02 -0.21490518103E-01  0.10197671145E+01  0.10194808104E+01 0.  0.
     999903    2    3    3    0    0  0.91353483270E-01 -0.88591730982E-01 -0.28404835950E-01  0.13148333327E+00  0.16943391551E-01 0.  0.
         14    1    1    2    0    0 -0.10930686240E-01 -0.15883217825E-02  0.21490518103E-01  0.24162885508E-01  0.00000000000E+00 0. -1.
     999901    1    3    3    0    0 -0.80422797030E-01  0.90180052765E-01  0.69143178471E-02  0.88828378123E+00  0.88000000000E+00 0. -1.
        -11    1    4    4    0    0  0.73975805488E-01 -0.79965110398E-01 -0.23012970966E-01  0.11134045371E+00  0.51100000000E-03 0. -1.
         11    1    4    4    0    0  0.17377677782E-01 -0.86266205846E-02 -0.53918649837E-02  0.20142879556E-01  0.51100000000E-03 0.  1.
</event>
<event>
 8    1  0.1088270E+005  0.1043930E+01  0.7957747E-01            NaN
         13   -1    0    0    0    0  0.00000000000E+00  0.00000000000E+00  0.74505805969E-08  0.10566000000E+00  0.10566000000E+00 0.  1.
     999900   -1    0    0    0    0 -0.00000000000E+00 -0.00000000000E+00 -0.74505805969E-08  0.93827000000E+00  0.93827000000E+00 0.  1.
     999902    2    1    2    0    0  0.10497275193E-01 -0.10641174145E-01  0.18847493193E-01  0.10198747433E+01  0.10195910144E+01 0.  0.
     999903    2    3    3    0    0  0.10729549209E+00  0.49337926463E-01 -0.50374591272E-01  0.12984155053E+00  0.19356528301E-01 0.  0.
         14    1    1    2    0    0 -0.10497275193E-01  0.10641174145E-01 -0.18847493193E-01  0.24055256667E-01  0.00000000000E+00 0. -1.
     999901    1    3    3    0    0 -0.96798216902E-01 -0.59979100608E-01  0.69222084465E-01  0.89003319280E+00  0.88000000000E+00 0. -1.
        -11    1    4    4    0    0  0.53634362562E-01  0.18170667108E-01 -0.32347478543E-01  0.65218390656E-01  0.51100000000E-03 0. -1.
         11    1    4    4    0    0  0.53661129532E-01  0.31167259355E-01 -0.18027112729E-01  0.64623159879E-01  0.51100000000E-03 0.  1.
</event>
<event>
 8    1  0.1088270E+005  0.1043930E+01  0.7957747E-01            NaN
         13   -1    0    0    0    0  0.00000000000E+00  0.00000000000E+00  0.74505805969E-08  0.10566000000E+00  0.10566000000E+00 0.  1.
     999900   -1    0    0    0    0 -0.00000000000E+00 -0.00000000000E+00 -0.74505805969E-08  0.93827000000E+00  0.93827000000E+00 0. -1.
     999902    2    1    2    0    0 -0.20236386300E-01 -0.19550410992E-02  0.10945741675E-01  0.10208401153E+01  0.10205789524E+01 0.  0.
     999903    2    3    3    0    0 -0.10325949706E+00 -0.31224634388E-02  0.82998728853E-01  0.13399975040E+00  0.19871351389E-01 0.  0.
         14    1    1    2    0    0  0.20236386300E-01  0.19550410992E-02 -0.10945741675E-01  0.23089884734E-01  0.00000000000E+00 0. -1.
     999901    1    3    3    0    0  0.83023110755E-01  0.11674223397E-02 -0.72052987178E-01  0.88684036487E+00  0.88000000000E+00 0. -1.
        -11    1    4    4    0    0 -0.24826546561E-02  0.26384425679E-02  0.62397138728E-03  0.37115245678E-02  0.51100000000E-03 0. -1.
         11    1    4    4    0    0 -0.10077684240E+00 -0.57609060068E-02  0.82374757466E-01  0.13028822583E+00  0.51100000000E-03 0.  1.
</event>
<event>
 8    1  0.1088270E+005  0.1043930E+01  0.7957747E-01            NaN
         13   -1    0    0    0    0  0.00000000000E+00  0.00000000000E+00  0.74505805969E-08  0.10566000000E+00  0.10566000000E+00 0.  1.
     999900   -1    0    0    0    0 -0.00000000000E+00 -0.00000000000E+00 -0.74505805969E-08  0.93827000000E+00  0.93827000000E+00 0. -1.
     999902    2    1    2    0    0 -0.11389954820E-02 -0.13808846039E-01 -0.18980509852E-01  0.10204301852E+01  0.10201595570E+01 0.  0.
     999903    2    3    3    0    0 -0.83247875043E-01  0.72330209995E-01 -0.67611013054E-01  0.13108956943E+00  0.21245191245E-01 0.  0.
         14    1    1    2    0    0  0.11389954820E-02  0.13808846039E-01  0.18980509852E-01  0.23499814762E-01  0.00000000000E+00 0.  1.
     999901    1    3    3    0    0  0.82108879561E-01 -0.86139056033E-01  0.48630503203E-01  0.88934061580E+00  0.88000000000E+00 0. -1.
        -11    1    4    4    0    0 -0.46656584649E-01  0.53130962511E-01 -0.38225039338E-01  0.80381284027E-01  0.51100000000E-03 0.  1.
         11    1    4    4    0    0 -0.36591290394E-01  0.19199247484E-01 -0.29385973716E-01  0.50708285407E-01  0.51100000000E-03 0. -1.
</event>
<event>
 8    1  0.1088270E+005  0.1043930E+01  0.7957747E-01            NaN
         13   -1    0    0    0    0  0.00000000000E+00  0.00000000000E+00  0.74505805969E-08  0.10566000000E+00  0.10566000000E+00 0. -1.
     999900   -1    0    0    0    0 -0.00000000000E+00 -0.00000000000E+00 -0.74505805969E-08  0.93827000000E+00  0.93827000000E+00 0.  1.
     999902    2    1    2    0    0 -0.27010867837E-02  0.11382871244E-01 -0.19349280217E-01  0.10213189347E+01  0.10210686099E+01 0.  0.
     999903    2    3    3    0    0 -0.86698600436E-02 -0.11300025130E+00  0.59247120364E-01  0.12908343801E+00  0.17552476479E-01 0.  0.
         14    1    1    2    0    0  0.27010867837E-02 -0.11382871244E-01  0.19349280217E-01  0.22611065267E-01  0.00000000000E+00 0. -1.
     999901    1    3    3    0    0  0.59687732599E-02  0.12438312254E+00 -0.78596400582E-01  0.89223549672E+00  0.88000000000E+00 0.  1.
        -11    1    4    4    0    0 -0.13225037436E-01 -0.81078970646E-01  0.38404004257E-01  0.90685333765E-01  0.51100000000E-03 0.  1.
         11    1    4    4    0    0  0.45551773925E-02 -0.31921280652E-01  0.20843116107E-01  0.38398104245E-01  0.51100000000E-03 0. -1.
</event>
<event>
 8    1  0.1088270E+005  0.1043930E+01  0.7957747E-01            NaN
         13   -1    0    0    0    0  0.00000000000E+00  0.00000000000E+00  0.74505805969E-08  0.10566000000E+00  0.10566000000E+00 0.  1.
     999900   -1    0    0    0    0 -0.00000000000E+00 -0.00000000000E+00 -0.74505805969E-08  0.93827000000E+00  0.93827000000E+00 0. -1.
     999902    2    1    2    0    0 -0.13847498266E-01 -0.18310097931E-01  0.39443910600E-02  0.10206368440E+01  0.10203710091E+01 0.  0.
     999903    2    3    3    0    0 -0.47217716618E-01 -0.49032493181E-01  0.11220285693E+00  0.13284332497E+00  0.20595381434E-01 0.  0.
         14    1    1    2    0    0  0.13847498266E-01  0.18310097931E-01 -0.39443910600E-02  0.23293155976E-01  0.00000000000E+00 0. -1.
     999901    1    3    3    0    0  0.33370218352E-01  0.30722395250E-01 -0.10825846587E+00  0.88779351905E+00  0.88000000000E+00 0. -1.
        -11    1    4    4    0    0 -0.24850124370E-01 -0.22927373687E-01  0.36827846467E-01  0.49997445353E-01  0.51100000000E-03 0. -1.
         11    1    4    4    0    0 -0.22367592248E-01 -0.26105119494E-01  0.75375010460E-01  0.82845879617E-01  0.51100000000E-03 0.  1.
</event>
<event>
 8    1  0.1088270E+005  0.1043930E+01  0.7957747E-01            NaN
         13   -1    0    0    0    0  0.00000000000E+00  0.00000000000E+00  0.74505805969E-08  0.10566000000E+00  0.10566000000E+00 0. -1.
     999900   -1    0    0    0    0 -0.00000000000E+00 -0.00000000000E+00 -0.74505805969E-08  0.93827000000E+00  0.93827000000E+00 0. -1.
     999902    2    1    2    0    0 -0.52351265720E-02 -0.16057260047E-01 -0.15647733131E-01  0.10209062361E+01  0.10206465839E+01 0.  0.
     999903    2    3    3    0    0 -0.19705087283E-01  0.57564271528E-01 -0.11559230301E+00  0.13207642862E+00  0.19510680681E-01 0.  0.
         14    1    1    2    0    0  0.52351265720E-02  0.16057260047E-01  0.15647733131E-01  0.23023763867E-01  0.00000000000E+00 0. -1.
     999901    1    3    3    0    0  0.14469960711E-01 -0.73621531575E-01  0.99944569879E-01  0.88882980751E+00  0.88000000000E+00 0.  1.
        -11    1    4    4    0    0 -0.12262026943E-01  0.12169612053E-01 -0.23945110863E-01  0.29531105931E-01  0.51100000000E-03 0.  1.
         11    1    4    4    0    0 -0.74430603403E-02  0.45394659475E-01 -0.91647192147E-01  0.10254532269E+00  0.51100000000E-03 0. -1.
</event>
<event>
 8    1  0.1088270E+005  0.1043930E+01  0.7957747E-01            NaN
         13   -1    0    0    0    0  0.00000000000E+00  0.00000000000E+00  0.74505805969E-08  0.10566000000E+00  0.10566000000E+00 0. -1.
     999900   -1    0    0    0    0 -0.00000000000E+00 -0.00000000000E+00 -0.74505805969E-08  0.93827000000E+00  0.93827000000E+00 0. -1.
     999902    2    1    2    0    0 -0.24515193805E-01  0.15441592326E-01 -0.15303995894E-02  0.10149165613E+01  0.10145017727E+01 0.  0.
     999903    2    3    3    0    0  0.75479281662E-01  0.77047894590E-01 -0.60819301927E-01  0.12513602347E+00  0.18070330996E-01 0.  0.
         14    1    1    2    0    0  0.24515193805E-01 -0.15441592326E-01  0.15303995894E-02  0.29013438675E-01  0.00000000000E+00 0.  1.
     999901    1    3    3    0    0 -0.99994475467E-01 -0.61606302264E-01  0.59288902338E-01  0.88978053785E+00  0.88000000000E+00 0.  1.
        -11    1    4    4    0    0  0.43954742987E-01  0.31982298201E-01 -0.30498811888E-01  0.62332379041E-01  0.51100000000E-03 0.  1.
         11    1    4    4    0    0  0.31524538675E-01  0.45065596389E-01 -0.30320490039E-01  0.62803644431E-01  0.51100000000E-03 0. -1.
</event>
<event>
 8    1  0.1088270E+005  0.1043930E+01  0.7957747E-01            NaN
         13   -1    0    0    0    0  0.00000000000E+00  0.00000000000E+00  0.74505805969E-08  0.10566000000E+00  0.10566000000E+00 0. -1.
     999900   -1    0    0    0    0 -0.00000000000E+00 -0.00000000000E+00 -0.74505805969E-08  0.93827000000E+00  0.93827000000E+00 0.  1.
     999902    2    1    2    0    0 -0.22631024986E-01  0.17587794586E-02 -0.41494690004E-02  0.10208545869E+01  0.10205937551E+01 0.  0.
     999903    2    3    3    0    0  0.22558516605E-01  0.57999921285E-01  0.11254036882E+00  0.13022465311E+00  0.20499954172E-01 0.  0.
         14    1    1    2    0    0  0.22631024986E-01 -0.17587794586E-02  0.41494690004E-02  0.23075413108E-01  0.00000000000E+00 0. -1.
     999901    1    3    3    0    0 -0.45189541591E-01 -0.56241141827E-01 -0.11668983782E+00  0.89062993379E+00  0.88000000000E+00 0.  1.
        -11    1    4    4    0    0  0.16813267359E-01  0.30135477089E-01  0.43342334029E-01  0.55404440063E-01  0.51100000000E-03 0. -1.
         11    1    4    4    0    0  0.57452492456E-02  0.27864444197E-01  0.69198034795E-01  0.74820213043E-01  0.51100000000E-03 0.  1.
</event>
<event>
 8    1  0.1088270E+005  0.1043930E+01  0.7957747E-01            NaN
         13   -1    0    0    0    0  0.00000000000E+00  0.00000000000E+00  0.74505805969E-08  0.10566000000E+00  0.10566000000E+00 0. -1.
     999900   -1    0    0    0    0 -0.00000000000E+00 -0.00000000000E+00 -0.74505805969E-08  0.93827000000E+00  0.93827000000E+00 0.  1.
     999902    2    1    2    0    0 -0.54399359125E-03  0.22487350551E-01 -0.79882129858E-02  0.10200597589E+01  0.10197804290E+01 0.  0.
     999903    2    3    3    0    0 -0.18900020165E-01  0.78208252143E-01  0.10189720778E+00  0.13128725241E+00  0.19482305435E-01 0.  0.
         14    1    1    2    0    0  0.54399359125E-03 -0.22487350551E-01  0.79882129858E-02  0.23870241108E-01  0.00000000000E+00 0. -1.
     999901    1    3    3    0    0  0.18356026574E-01 -0.55720901592E-01 -0.10988542077E+00  0.88877250648E+00  0.88000000000E+00 0.  1.
        -11    1    4    4    0    0 -0.11602259554E-01  0.49049636641E-01  0.78065928176E-01  0.92924859668E-01  0.51100000000E-03 0. -1.
         11    1    4    4    0    0 -0.72977606112E-02  0.29158615502E-01  0.23831279607E-01  0.38362392739E-01  0.51100000000E-03 0.  1.
</event>
<event>
 8    1  0.1088270E+005  0.1043930E+01  0.7957747E-01            NaN
         13   -1    0    0    0    0  0.00000000000E+00  0.00000000000E+00  0.74505805969E-08  0.10566000000E+00  0.10566000000E+00 0. -1.
     999900   -1    0    0    0    0 -0.00000000000E+00 -0.00000000000E+00 -0.74505805969E-08  0.93827000000E+00  0.93827000000E+00 0.  1.
     999902    2    1    2    0    0 -0.18145764293E-01  0.69683887629E-03 -0.15191555627E-01  0.10202543224E+01  0.10199795805E+01 0.  0.
     999903    2    3    3    0    0  0.11746799012E+00 -0.40310939006E-01  0.25597454328E-01  0.12798952341E+00  0.17389304992E-01 0.  0.
         14    1    1    2    0    0  0.18145764293E-01 -0.69683887629E-03  0.15191555627E-01  0.23675677574E-01  0.00000000000E+00 0. -1.
     999901    1    3    3    0    0 -0.13561375441E+00  0.41007777882E-01 -0.40789009955E-01  0.89226479902E+00  0.88000000000E+00 0. -1.
        -11    1    4    4    0    0  0.38230713771E-01 -0.19287153987E-01  0.28825625332E-02  0.42920299068E-01  0.51100000000E-03 0.  1.
         11    1    4    4    0    0  0.79237276348E-01 -0.21023785019E-01  0.22714891795E-01  0.85069224340E-01  0.51100000000E-03 0. -1.
</event>
<event>
 8    1  0.1088270E+005  0.1043930E+01  0.7957747E-01            NaN
         13   -1    0    0    0    0  0.00000000000E+00  0.00000000000E+00  0.74505805969E-08  0.10566000000E+00  0.10566000000E+00 0. -1.
     999900   -1    0    0    0    0 -0.00000000000E+00 -0.00000000000E+00 -0.74505805969E-08  0.93827000000E+00  0.93827000000E+00 0.  1.
     999902    2    1    2    0    0 -0.25689357225E-02 -0.15717172383E-01  0.16949859123E-01  0.10206721699E+01  0.10204071499E+01 0.  0.
     999903    2    3    3    0    0  0.11165319284E+00  0.13313442401E-01 -0.60806475074E-01  0.12941714533E+00  0.20191257361E-01 0.  0.
         14    1    1    2    0    0  0.25689357225E-02  0.15717172383E-01 -0.16949859123E-01  0.23257830139E-01  0.00000000000E+00 0.  1.
     999901    1    3    3    0    0 -0.11422212856E+00 -0.29030614784E-01  0.77756334198E-01  0.89125502453E+00  0.88000000000E+00 0. -1.
        -11    1    4    4    0    0  0.88083648840E-01  0.18082011748E-01 -0.51512204930E-01  0.10363135008E+00  0.51100000000E-03 0.  1.
         11    1    4    4    0    0  0.23569544000E-01 -0.47685693470E-02 -0.92942701443E-02  0.25785795246E-01  0.51100000000E-03 0. -1.
</event>
<event>
 8    1  0.1088270E+005  0.1043930E+01  0.7957747E-01            NaN
         13   -1    0    0    0    0  0.00000000000E+00  0.00000000000E+00  0.74505805969E-08  0.10566000000E+00  0.10566000000E+00 0. -1.
     999900   -1    0    0    0    0 -0.00000000000E+00 -0.00000000000E+00 -0.74505805969E-08  0.93827000000E+00  0.93827000000E+00 0.  1.
     999902    2    1    2    0    0  0.20990358618E-01  0.27455342483E-01  0.70327529452E-02  0.10086617338E+01  0.10080449606E+01 0.  0.
     999903    2    3    3    0    0 -0.81218077916E-01  0.84330359776E-01  0.21949090614E-01  0.12079697541E+00  0.20053950444E-01 0.  0.
         14    1    1    2    0    0 -0.20990358618E-01 -0.27455342483E-01 -0.70327529452E-02  0.35268266186E-01  0.00000000000E+00 0.  1.
     999901    1    3    3    0    0  0.10220843653E+00 -0.56875017293E-01 -0.14916337669E-01  0.88786475841E+00  0.88000000000E+00 0.  1.
        -11    1    4    4    0    0 -0.70024780403E-01  0.79033639793E-01  0.15192514544E-01  0.10668111224E+00  0.51100000000E-03 0.  1.
         11    1    4    4    0    0 -0.11193297513E-01  0.52967199839E-02  0.67565760704E-02  0.14115863169E-01  0.51100000000E-03 0. -1.
</event>
<event>
 8    1  0.1088270E+005  0.1043930E+01  0.7957747E-01            NaN
         13   -1    0    0    0    0  0.00000000000E+00  0.00000000000E+00  0.74505805969E-08  0.10566000000E+00  0.10566000000E+00 0.  1.
     999900   -1    0    0    0    0 -0.00000000000E+00 -0.00000000000E+00 -0.74505805969E-08  0.93827000000E+00  0.93827000000E+00 0.  1.
     999902    2    1    2    0    0 -0.13903850178E-01 -0.11878065413E-01 -0.12576746853E-01  0.10217358555E+01  0.10214947765E+01 0.  0.
     999903    2    3    3    0    0  0.10005796772E+00 -0.76855542601E-01  0.25675316020E-01  0.13118962494E+00  0.25161965503E-01 0.  0.
         14    1    1    2    0    0  0.13903850178E-01  0.11878065413E-01  0.12576746853E-01  0.22194144479E-01  0.00000000000E+00 0.  1.
     999901    1    3    3    0    0 -0.11396181790E+00  0.64977477188E-01 -0.38252062873E-01  0.89054623058E+00  0.88000000000E+00 0. -1.
        -11    1    4    4    0    0  0.35290632758E-01 -0.13800838848E-01  0.12107109538E-01  0.39783603855E-01  0.51100000000E-03 0. -1.
         11    1    4    4    0    0  0.64767334961E-01 -0.63054703753E-01  0.13568206482E-01  0.91406021090E-01  0.51100000000E-03 0.  1.
</event>
<event>
 8    1  0.1088270E+005  0.1043930E+01  0.7957747E-01            NaN
         13   -1    0    0    0    0  0.00000000000E+00  0.00000000000E+00  0.74505805969E-08  0.10566000000E+00  0.10566000000E+00 0. -1.
     999900   -1    0    0    0    0 -0.00000000000E+00 -0.00000000000E+00 -0.74505805969E-08  0.93827000000E+00  0.93827000000E+00 0.  1.
     999902    2    1    2    0    0 -0.23969367978E-01 -0.53951090553E-02  0.18137609513E-02  0.10192941008E+01  0.10189963377E+01 0.  0.
     999903    2    3    3    0    0  0.10783546141E+00  0.52477498963E-01  0.37010518491E-01  0.12690373575E+00  0.18772454138E-01 0.  0.
         14    1    1    2    0    0  0.23969367978E-01  0.53951090553E-02 -0.18137609513E-02  0.24635899248E-01  0.00000000000E+00 0.  1.
     999901    1    3    3    0    0 -0.13180482938E+00 -0.57872608018E-01 -0.35196757539E-01  0.89239036500E+00  0.88000000000E+00 0. -1.
        -11    1    4    4    0    0  0.36569916275E-01  0.14137244610E-01  0.36813070067E-02  0.39383163964E-01  0.51100000000E-03 0. -1.
         11    1    4    4    0    0  0.71265545130E-01  0.38340254353E-01  0.33329211484E-01  0.87520571785E-01  0.51100000000E-03 0.  1.
</event>
<event>
 8    1  0.1088270E+005  0.1043930E+01  0.7957747E-01            NaN
         13   -1    0    0    0    0  0.00000000000E+00  0.00000000000E+00  0.74505805969E-08  0.10566000000E+00  0.10566000000E+00 0.  1.
     999900   -1    0    0    0    0 -0.00000000000E+00 -0.00000000000E+00 -0.74505805969E-08  0.93827000000E+00  0.93827000000E+00 0.  1.
     999902    2    1    2    0    0 -0.12886400915E-01 -0.39067121605E-02 -0.17343202078E-01  0.10219730333E+01  0.10217371347E+01 0.  0.
     999903    2    3    3    0    0 -0.12783874550E+00 -0.31162330184E-01 -0.14715986106E-01  0.13407449602E+00  0.21108637144E-01 0.  0.
         14    1    1    2    0    0  0.12886400915E-01  0.39067121605E-02  0.17343202078E-01  0.21956966702E-01  0.00000000000E+00 0.  1.
     999901    1    3    3    0    0  0.11495234459E+00  0.27255618024E-01 -0.26272159718E-02  0.88789853728E+00  0.88000000000E+00 0. -1.
        -11    1    4    4    0    0 -0.92585701433E-01 -0.20367685518E-01 -0.12164428105E-02  0.94808731546E-01  0.51100000000E-03 0. -1.
         11    1    4    4    0    0 -0.35253044067E-01 -0.10794644666E-01 -0.13499543295E-01  0.39265764473E-01  0.51100000000E-03 0.  1.
</event>
<event>
 8    1  0.1088270E+005  0.1043930E+01  0.7957747E-01            NaN
         13   -1    0    0    0    0  0.00000000000E+00  0.00000000000E+00  0.74505805969E-08  0.10566000000E+00  0.10566000000E+00 0. -1.
     999900   -1    0    0    0    0 -0.00000000000E+00 -0.00000000000E+00 -0.74505805969E-08  0.93827000000E+00  0.93827000000E+00 0. -1.
     999902    2    1    2    0    0  0.19659576689E-01  0.46018504069E-03 -0.13754879986E-01  0.10199319282E+01  0.10196495627E+01 0.  0.
     999903    2    3    3    0    0  0.80295878773E-01  0.36897713858E-01  0.93652481287E-01  0.13058340492E+00  0.21734050547E-01 0.  0.
         14    1    1    2    0    0 -0.19659576689E-01 -0.46018504069E-03  0.13754879986E-01  0.23998071783E-01  0.00000000000E+00 0. -1.
     999901    1    3    3    0    0 -0.60636302084E-01 -0.36437528817E-01 -0.10740736127E+00  0.88934852330E+00  0.88000000000E+00 0.  1.
        -11    1    4    4    0    0  0.36181339284E-01  0.23117604755E-01  0.32108610861E-01  0.53616573691E-01  0.51100000000E-03 0. -1.
         11    1    4    4    0    0  0.44114539489E-01  0.13780109103E-01  0.61543870426E-01  0.76966831227E-01  0.51100000000E-03 0.  1.
</event>
<event>
 8    1  0.1088270E+005  0.1043930E+01  0.7957747E-01            NaN
         13   -1    0    0    0    0  0.00000000000E+00  0.00000000000E+00  0.74505805969E-08  0.10566000000E+00  0.10566000000E+00 0.  1.
     999900   -1    0    0    0    0 -0.00000000000E+00 -0.00000000000E+00 -0.74505805969E-08  0.93827000000E+00  0.93827000000E+00 0. -1.
     999902    2    1    2    0    0  0.31595126794E-02  0.17756845510E-01  0.15978587418E-01  0.10198342880E+01  0.10195495925E+01 0.  0.
     999903    2    3    3    0    0  0.11322355007E+00  0.36518837894E-01  0.53369651223E-01  0.13199184905E+00  0.20501968962E-01 0.  0.
         14    1    1    2    0    0 -0.31595126794E-02 -0.17756845510E-01 -0.15978587418E-01  0.24095712040E-01  0.00000000000E+00 0.  1.
     999901    1    3    3    0    0 -0.11006403739E+00 -0.18761992384E-01 -0.37391063805E-01  0.88784243891E+00  0.88000000000E+00 0.  1.
        -11    1    4    4    0    0  0.93183241842E-01  0.31963263594E-01  0.35381364615E-01  0.10467506323E+00  0.51100000000E-03 0.  1.
         11    1    4    4    0    0  0.20040308228E-01  0.45555743000E-02  0.17988286608E-01  0.27316785814E-01  0.51100000000E-03 0. -1.
</event>
<event>
 8    1  0.1088270E+005  0.1043930E+01  0.7957747E-01            NaN
         13   -1    0    0    0    0  0.00000000000E+00  0.00000000000E+00  0.74505805969E-08  0.10566000000E+00  0.10566000000E+00 0. -1.
     999900   -1    0    0    0    0 -0.00000000000E+00 -0.00000000000E+00 -0.74505805969E-08  0.93827000000E+00  0.93827000000E+00 0. -1.
     999902    2    1    2    0    0 -0.14527430808E-01 -0.13309569586E-01  0.15758069562E-01  0.10187008969E+01  0.10183884375E+01 0.  0.
     999903    2    3    3    0    0 -0.31849370851E-01 -0.46300914607E-01  0.11782922908E+00  0.13201775163E+00  0.19667292670E-01 0.  0.
         14    1    1    2    0    0  0.14527430808E-01  0.13309569586E-01 -0.15758069562E-01  0.25229103131E-01  0.00000000000E+00 0.  1.
     999901    1    3    3    0    0  0.17321940043E-01  0.32991345021E-01 -0.10207115952E+00  0.88668314524E+00  0.88000000000E+00 0.  1.
        -11    1    4    4    0    0 -0.22789535577E-01 -0.34277286191E-01  0.63797019622E-01  0.75925069075E-01  0.51100000000E-03 0. -1.
         11    1    4    4    0    0 -0.90598352741E-02 -0.12023628417E-01  0.54032209461E-01  0.56092682551E-01  0.51100000000E-03 0.  1.
</event>
<event>
 8    1  0.1088270E+005  0.1043930E+01  0.7957747E-01            NaN
         13   -1    0    0    0    0  0.00000000000E+00  0.00000000000E+00  0.74505805969E-08  0.10566000000E+00  0.10566000000E+00 0. -1.
     999900   -1    0    0    0    0 -0.00000000000E+00 -0.00000000000E+00 -0.74505805969E-08  0.93827000000E+00  0.93827000000E+00 0.  1.
     999902    2    1    2    0    0 -0.16839939297E-01  0.16203238767E-01  0.30062170249E-02  0.10203680425E+01  0.10200959642E+01 0.  0.
     999903    2    3    3    0    0 -0.97294412926E-01  0.41010403958E-01  0.78547844626E-01  0.13312802124E+00  0.20130825203E-01 0.  0.
         14    1    1    2    0    0  0.16839939297E-01 -0.16203238767E-01 -0.30062170249E-02  0.23561957535E-01  0.00000000000E+00 0.  1.
     999901    1    3    3    0    0  0.80454473628E-01 -0.24807165191E-01 -0.75541627601E-01  0.88724002123E+00  0.88000000000E+00 0.  1.
        -11    1    4    4    0    0 -0.56685148989E-01  0.23974361183E-01  0.57841567140E-01  0.84462323673E-01  0.51100000000E-03 0. -1.
         11    1    4    4    0    0 -0.40609263937E-01  0.17036042775E-01  0.20706277486E-01  0.48665697562E-01  0.51100000000E-03 0.  1.
</event>
<event>
 7    1  0.1088270E+005  0.1043930E+01  0.7957747E-01            NaN
         13   -1    0    0    0    0  0.00000000000E+00  0.00000000000E+00  0.74505805969E-08  0.10566000000E+00  0.10566000000E+00 0.  1.
     999900   -1    0    0    0    0 -0.00000000000E+00 -0.00000000000E+00 -0.74505805969E-08  0.93827000000E+00  0.93827000000E+00 0.  1.
     999903    2    1    2    0    0 -0.43940625703E-01 -0.14890234446E-01  0.74753477754E-01  0.90048652759E-01  0.19188010798E-01 0.  0.
         14    1    1    2    0    0 -0.97916478328E-02 -0.51544716933E-01  0.34833855229E-01  0.62977231450E-01  0.00000000000E+00 0.  1.
     999901    1    1    2    0    0  0.53732273536E-01  0.66434951379E-01 -0.10958733298E+00  0.89090411579E+00  0.88000000000E+00 0.  1.
        -11    1    3    3    0    0 -0.30941880018E-01 -0.12571131093E-02  0.51776420823E-01  0.60332736940E-01  0.51100000000E-03 0. -1.
         11    1    3    3    0    0 -0.12998745685E-01 -0.13633121336E-01  0.22977056930E-01  0.29715915819E-01  0.51100000000E-03 0.  1.
</event>
<event>
 8    1  0.1088270E+005  0.1043930E+01  0.7957747E-01            NaN
         13   -1    0    0    0    0  0.00000000000E+00  0.00000000000E+00  0.74505805969E-08  0.10566000000E+00  0.10566000000E+00 0.  1.
     999900   -1    0    0    0    0 -0.00000000000E+00 -0.00000000000E+00 -0.74505805969E-08  0.93827000000E+00  0.93827000000E+00 0.  1.
     999902    2    1    2    0    0  0.15388335881E-02 -0.21039919122E-01 -0.97372806194E-02  0.10206950944E+01  0.10204306027E+01 0.  0.
     999903    2    3    3    0    0  0.14590489290E-01  0.12386162016E+00  0.98382884333E-02  0.12853479224E+00  0.29492669796E-01 0.  0.
         14    1    1    2    0    0 -0.15388335881E-02  0.21039919122E-01  0.97372806194E-02  0.23234905624E-01  0.00000000000E+00 0.  1.
     999901    1    3    3    0    0 -0.13051655702E-01 -0.14490153928E+00 -0.19575569053E-01  0.89216030213E+00  0.88000000000E+00 0.  1.
        -11    1    4    4    0    0 -0.46604772472E-02  0.24561922350E-01 -0.70604568104E-02  0.25983056962E-01  0.51100000000E-03 0.  1.
         11    1    4    4    0    0  0.19250966537E-01  0.99299697806E-01  0.16898745244E-01  0.10255173528E+00  0.51100000000E-03 0. -1.
</event>
<event>
 8    1  0.1088270E+005  0.1043930E+01  0.7957747E-01            NaN
         13   -1    0    0    0    0  0.00000000000E+00  0.00000000000E+00  0.74505805969E-08  0.10566000000E+00  0.10566000000E+00 0.  1.
     999900   -1    0    0    0    0 -0.00000000000E+00 -0.00000000000E+00 -0.74505805969E-08  0.93827000000E+00  0.93827000000E+00 0. -1.
     999902    2    1    2    0    0  0.12920508549E-01  0.68006283556E-02 -0.17837118036E-01  0.10208789508E+01  0.10206186758E+01 0.  0.
     999903    2    3    3    0    0  0.10185576748E+00  0.56527629204E-01 -0.63065163994E-01  0.13384578854E+00  0.19170549463E-01 0.  0.
         14    1    1    2    0    0 -0.12920508549E-01 -0.68006283556E-02  0.17837118036E-01  0.23051049153E-01  0.00000000000E+00 0.  1.
     999901    1    3    3    0    0 -0.88935258935E-01 -0.49727000848E-01  0.45228045958E-01  0.88703316231E+00  0.88000000000E+00 0.  1.
        -11    1    4    4    0    0  0.25485247033E-01  0.54854172117E-02 -0.16531386034E-01  0.30872892050E-01  0.51100000000E-03 0.  1.
         11    1    4    4    0    0  0.76370520451E-01  0.51042211992E-01 -0.46533777960E-01  0.10297289649E+00  0.51100000000E-03 0. -1.
</event>
<event>
 8    1  0.1088270E+005  0.1043930E+01  0.7957747E-01            NaN
         13   -1    0    0    0    0  0.00000000000E+00  0.00000000000E+00  0.74505805969E-08  0.10566000000E+00  0.10566000000E+00 0. -1.
     999900   -1    0    0    0    0 -0.00000000000E+00 -0.00000000000E+00 -0.74505805969E-08  0.93827000000E+00  0.93827000000E+00 0. -1.
     999902    2    1    2    0    0 -0.83932039553E-02  0.13320401363E-01 -0.59148401239E-02  0.10271114299E+01  0.10269737218E+01 0.  0.
     999903    2    3    3    0    0  0.54084264226E-01  0.47818883621E-01  0.11360952823E+00  0.13616830385E+00  0.20565232794E-01 0.  0.
         14    1    1    2    0    0  0.83932039553E-02 -0.13320401363E-01  0.59148401239E-02  0.16818570058E-01  0.00000000000E+00 0.  1.
     999901    1    3    3    0    0 -0.62477468181E-01 -0.34498482258E-01 -0.11952436835E+00  0.89094312610E+00  0.88000000000E+00 0. -1.
        -11    1    4    4    0    0  0.28551907622E-01  0.31112627964E-01  0.48817093691E-01  0.64549026368E-01  0.51100000000E-03 0.  1.
         11    1    4    4    0    0  0.25532356604E-01  0.16706255657E-01  0.64792434539E-01  0.71619277477E-01  0.51100000000E-03 0. -1.
</event>
<event>
 8    1  0.1088270E+005  0.1043930E+01  0.7957747E-01            NaN
         13   -1    0    0    0    0  0.00000000000E+00  0.00000000000E+00  0.74505805969E-08  0.10566000000E+00  0.10566000000E+00 0.  1.
     999900   -1    0    0    0    0 -0.00000000000E+00 -0.00000000000E+00 -0.74505805969E-08  0.93827000000E+00  0.93827000000E+00 0. -1.
     999902    2    1    2    0    0 -0.10515276339E-01 -0.21172155297E-01  0.21286598248E-02  0.10201947438E+01  0.10199186011E+01 0.  0.
     999903    2    3    3    0    0 -0.37272974208E-01  0.10387022306E+00 -0.63065000820E-01  0.12856601824E+00  0.19332068492E-01 0.  0.
         14    1    1    2    0    0  0.10515276339E-01  0.21172155297E-01 -0.21286598248E-02  0.23735256246E-01  0.00000000000E+00 0. -1.
     999901    1    3    3    0    0  0.26757697869E-01 -0.12504237836E+00  0.65193660644E-01  0.89162872552E+00  0.88000000000E+00 0. -1.
        -11    1    4    4    0    0 -0.20382499359E-01  0.53636507160E-01 -0.43747417126E-01  0.72155518200E-01  0.51100000000E-03 0.  1.
         11    1    4    4    0    0 -0.16890474849E-01  0.50233715899E-01 -0.19317583693E-01  0.56410500036E-01  0.51100000000E-03 0. -1.
</event>
<event>
 8    1  0.1088270E+005  0.1043930E+01  0.7957747E-01            NaN
         13   -1    0    0    0    0  0.00000000000E+00  0.00000000000E+00  0.74505805969E-08  0.10566000000E+00  0.10566000000E+00 0.  1.
     999900   -1    0    0    0    0 -0.00000000000E+00 -0.00000000000E+00 -0.74505805969E-08  0.93827000000E+00  0.93827000000E+00 0.  1.
     999902    2    1    2    0    0  0.10458904950E-01 -0.49248401923E-02  0.19941676746E-01  0.10208797676E+01  0.10206195112E+01 0.  0.
     999903    2    3    3    0    0  0.28660207554E-01  0.91543180901E-01  0.90278420484E-01  0.13263170310E+00  0.15473008634E-01 0.  0.
         14    1    1    2    0    0 -0.10458904950E-01  0.49248401923E-02 -0.19941676746E-01  0.23050232430E-01  0.00000000000E+00 0. -1.
     999901    1    3    3    0    0 -0.18201302604E-01 -0.96468021093E-01 -0.70336743739E-01  0.88824806447E+00  0.88000000000E+00 0. -1.
        -11    1    4    4    0    0  0.20877971240E-01  0.72999488100E-01  0.62551248755E-01  0.98375478590E-01  0.51100000000E-03 0.  1.
         11    1    4    4    0    0  0.77822363141E-02  0.18543692801E-01  0.27727171729E-01  0.34256224512E-01  0.51100000000E-03 0. -1.
</event>
<event>
 8    1  0.1088270E+005  0.1043930E+01  0.7957747E-01            NaN
         13   -1    0    0    0    0  0.00000000000E+00  0.00000000000E+00  0.74505805969E-08  0.10566000000E+00  0.10566000000E+00 0. -1.
     999900   -1    0    0    0    0 -0.00000000000E+00 -0.00000000000E+00 -0.74505805969E-08  0.93827000000E+00  0.93827000000E+00 0.  1.
     999902    2    1    2    0    0  0.23605695599E-02  0.18012239744E-01  0.15356184896E-01  0.10201429135E+01  0.10198655492E+01 0.  0.
     999903    2    3    3    0    0  0.92848894803E-01 -0.38680370013E-01 -0.77547150155E-01  0.12883308036E+00  0.21617442186E-01 0.  0.
         14    1    1    2    0    0 -0.23605695599E-02 -0.18012239744E-01 -0.15356184896E-01  0.23787086493E-01  0.00000000000E+00 0.  1.
     999901    1    3    3    0    0 -0.90488325243E-01  0.56692609757E-01  0.92903335051E-01  0.89130983315E+00  0.88000000000E+00 0. -1.
        -11    1    4    4    0    0  0.26968321383E-01 -0.21647903448E-01 -0.30402316340E-01  0.46048713790E-01  0.51100000000E-03 0.  1.
         11    1    4    4    0    0  0.65880573420E-01 -0.17032466565E-01 -0.47144833816E-01  0.82784366567E-01  0.51100000000E-03 0. -1.
</event>
<event>
 8    1  0.1088270E+005  0.1043930E+01  0.7957747E-01            NaN
         13   -1    0    0    0    0  0.00000000000E+00  0.00000000000E+00  0.74505805969E-08  0.10566000000E+00  0.10566000000E+00 0. -1.
     999900   -1    0    0    0    0 -0.00000000000E+00 -0.00000000000E+00 -0.74505805969E-08  0.93827000000E+00  0.93827000000E+00 0.  1.
     999902    2    1    2    0    0 -0.74698064686E-02  0.31660809690E-03 -0.22638832468E-01  0.10200885448E+01  0.10198098962E+01 0.  0.
     999903    2    3    3    0    0 -0.31704955551E-01  0.61442273920E-01 -0.11168278304E+00  0.13315420982E+00  0.21832139970E-01 0.  0.
         14    1    1    2    0    0  0.74698064686E-02 -0.31660809690E-03  0.22638832468E-01  0.23841455175E-01  0.00000000000E+00 0. -1.
     999901    1    3    3    0    0  0.24235149083E-01 -0.61125665823E-01  0.89043950569E-01  0.88693433500E+00  0.88000000000E+00 0. -1.
        -11    1    4    4    0    0 -0.99281306343E-02  0.25348929705E-01 -0.25933996491E-01  0.37602783276E-01  0.51100000000E-03 0. -1.
         11    1    4    4    0    0 -0.21776824917E-01  0.36093344215E-01 -0.85748786545E-01  0.95551426546E-01  0.51100000000E-03 0.  1.
</event>
<event>
 8    1  0.1088270E+005  0.1043930E+01  0.7957747E-01            NaN
         13   -1    0    0    0    0  0.00000000000E+00  0.00000000000E+00  0.74505805969E-08  0.10566000000E+00  0.10566000000E+00 0.  1.
     999900   -1    0    0    0    0 -0.00000000000E+00 -0.00000000000E+00 -0.74505805969E-08  0.93827000000E+00  0.93827000000E+00 0.  1.
     999902    2    1    2    0    0  0.15729742982E-01 -0.15754192651E-01  0.11850759557E-01  0.10187097720E+01  0.10183975351E+01 0.  0.
     999903    2    3    3    0    0  0.86009674140E-01 -0.24232951697E-01 -0.92877598662E-01  0.12967704641E+00  0.14317403373E-01 0.  0.
         14    1    1    2    0    0 -0.15729742982E-01  0.15754192651E-01 -0.11850759557E-01  0.25220228041E-01  0.00000000000E+00 0. -1.
     999901    1    3    3    0    0 -0.70279931158E-01  0.84787590469E-02  0.10472835822E+00  0.88903272555E+00  0.88000000000E+00 0.  1.
        -11    1    4    4    0    0  0.43985628509E-01 -0.14784834507E-01 -0.57806622397E-01  0.74129572781E-01  0.51100000000E-03 0. -1.
         11    1    4    4    0    0  0.42024045631E-01 -0.94481171908E-02 -0.35070976265E-01  0.55547473632E-01  0.51100000000E-03 0.  1.
</event>
<event>
 8    1  0.1088270E+005  0.1043930E+01  0.7957747E-01            NaN
         13   -1    0    0    0    0  0.00000000000E+00  0.00000000000E+00  0.74505805969E-08  0.10566000000E+00  0.10566000000E+00 0. -1.
     999900   -1    0    0    0    0 -0.00000000000E+00 -0.00000000000E+00 -0.74505805969E-08  0.93827000000E+00  0.93827000000E+00 0.  1.
     999902    2    1    2    0    0  0.96836910251E-02 -0.15872616565E-01 -0.48435476332E-02  0.10247161045E+01  0.10245359540E+01 0.  0.
     999903    2    3    3    0    0  0.39739969626E-01  0.12100874300E+00  0.32477067647E-01  0.13284575804E+00  0.19257581356E-01 0.  0.
         14    1    1    2    0    0 -0.96836910251E-02  0.15872616565E-01  0.48435476332E-02  0.19213895549E-01  0.00000000000E+00 0.  1.
     999901    1    3    3    0    0 -0.30056278601E-01 -0.13688135956E+00 -0.37320615280E-01  0.89187034641E+00  0.88000000000E+00 0.  1.
        -11    1    4    4    0    0  0.33123669154E-01  0.85865443914E-01  0.15786058698E-01  0.93378330928E-01  0.51100000000E-03 0.  1.
         11    1    4    4    0    0  0.66163004724E-02  0.35143299082E-01  0.16691008949E-01  0.39467427114E-01  0.51100000000E-03 0. -1.
</event>
<event>
 8    1  0.1088270E+005  0.1043930E+01  0.7957747E-01            NaN
         13   -1    0    0    0    0  0.00000000000E+00  0.00000000000E+00  0.74505805969E-08  0.10566000000E+00  0.10566000000E+00 0. -1.
     999900   -1    0    0    0    0 -0.00000000000E+00 -0.00000000000E+00 -0.74505805969E-08  0.93827000000E+00  0.93827000000E+00 0. -1.
     999902    2    1    2    0    0  0.38057467203E-02  0.10005606170E-01  0.21236065478E-01  0.10201483613E+01  0.10198711255E+01 0.  0.
     999903    2    3    3    0    0 -0.44108551953E-01  0.30339456306E-01 -0.11474813564E+00  0.12818370479E+00  0.19946944053E-01 0.  0.
         14    1    1    2    0    0 -0.38057467203E-02 -0.10005606170E-01 -0.21236065478E-01  0.23781638714E-01  0.00000000000E+00 0.  1.
     999901    1    3    3    0    0  0.47914298674E-01 -0.20333850136E-01  0.13598420112E+00  0.89196465649E+00  0.88000000000E+00 0.  1.
        -11    1    4    4    0    0 -0.20887219323E-01  0.22449282165E-01 -0.79762285813E-01  0.85454839301E-01  0.51100000000E-03 0.  1.
         11    1    4    4    0    0 -0.23221332630E-01  0.78901741410E-02 -0.34985849828E-01  0.42728865493E-01  0.51100000000E-03 0. -1.
</event>
<event>
 8    1  0.1088270E+005  0.1043930E+01  0.7957747E-01            NaN
         13   -1    0    0    0    0  0.00000000000E+00  0.00000000000E+00  0.74505805969E-08  0.10566000000E+00  0.10566000000E+00 0.  1.
     999900   -1    0    0    0    0 -0.00000000000E+00 -0.00000000000E+00 -0.74505805969E-08  0.93827000000E+00  0.93827000000E+00 0.  1.
     999902    2    1    2    0    0 -0.16786415197E-02 -0.22228325301E-01 -0.64032308023E-02  0.10207369483E+01  0.10204734195E+01 0.  0.
     999903    2    3    3    0    0  0.11011863685E+00  0.64279522728E-01 -0.11857730779E-01  0.12943902347E+00  0.18864882535E-01 0.  0.
         14    1    1    2    0    0  0.16786415197E-02  0.22228325301E-01  0.64032308023E-02  0.23193051713E-01  0.00000000000E+00 0. -1.
     999901    1    3    3    0    0 -0.11179727837E+00 -0.86507848029E-01  0.54544999771E-02  0.89129792482E+00  0.88000000000E+00 0. -1.
        -11    1    4    4    0    0  0.34928056158E-01  0.29788999699E-01 -0.81811815888E-02  0.46632032588E-01  0.51100000000E-03 0.  1.
         11    1    4    4    0    0  0.75190580690E-01  0.34490523029E-01 -0.36765491906E-02  0.82806990878E-01  0.51100000000E-03 0. -1.
</event>
<event>
 8    1  0.1088270E+005  0.1043930E+01  0.7957747E-01            NaN
         13   -1    0    0    0    0  0.00000000000E+00  0.00000000000E+00  0.74505805969E-08  0.10566000000E+00  0.10566000000E+00 0. -1.
     999900   -1    0    0    0    0 -0.00000000000E+00 -0.00000000000E+00 -0.74505805969E-08  0.93827000000E+00  0.93827000000E+00 0. -1.
     999902    2    1    2    0    0  0.19943893204E-01 -0.13919310668E-01 -0.46239811536E-02  0.10191734395E+01  0.10188727165E+01 0.  0.
     999903    2    3    3    0    0  0.56932094842E-01  0.39316900207E-01 -0.10873218544E+00  0.13066866214E+00  0.21552935972E-01 0.  0.
         14    1    1    2    0    0 -0.19943893204E-01  0.13919310668E-01  0.46239811536E-02  0.24756560490E-01  0.00000000000E+00 0.  1.
     999901    1    3    3    0    0 -0.36988201638E-01 -0.53236210875E-01  0.10410820429E+00  0.88850477737E+00  0.88000000000E+00 0.  1.
        -11    1    4    4    0    0  0.45747677308E-01  0.27626140051E-01 -0.65698617506E-01  0.84691339914E-01  0.51100000000E-03 0. -1.
         11    1    4    4    0    0  0.11184417534E-01  0.11690760155E-01 -0.43033567938E-01  0.45977322226E-01  0.51100000000E-03 0.  1.
</event>
<event>
 8    1  0.1088270E+005  0.1043930E+01  0.7957747E-01            NaN
         13   -1    0    0    0    0  0.00000000000E+00  0.00000000000E+00  0.74505805969E-08  0.10566000000E+00  0.10566000000E+00 0. -1.
     999900   -1    0    0    0    0 -0.00000000000E+00 -0.00000000000E+00 -0.74505805969E-08  0.93827000000E+00  0.93827000000E+00 0.  1.
     999902    2    1    2    0    0  0.37838774531E-02 -0.24304543402E-01  0.65812558513E-02  0.10184674493E+01  0.10181491069E+01 0.  0.
     999903    2    3    3    0    0 -0.63126000413E-01  0.47324381063E-01 -0.97369090197E-01  0.12694442156E+00  0.20239996769E-01 0.  0.
         14    1    1    2    0    0 -0.37838774531E-02  0.24304543402E-01 -0.65812558513E-02  0.25462550680E-01  0.00000000000E+00 0. -1.
     999901    1    3    3    0    0  0.66909877866E-01 -0.71628924465E-01  0.10395034605E+00  0.89152302776E+00  0.88000000000E+00 0. -1.
        -11    1    4    4    0    0 -0.33390868299E-01  0.18547524608E-01 -0.60329331062E-01  0.71406232657E-01  0.51100000000E-03 0. -1.
         11    1    4    4    0    0 -0.29735132115E-01  0.28776856455E-01 -0.37039759135E-01  0.55538188907E-01  0.51100000000E-03 0.  1.
</event>
<event>
 8    1  0.1088270E+005  0.1043930E+01  0.7957747E-01            NaN
         13   -1    0    0    0    0  0.00000000000E+00  0.00000000000E+00  0.74505805969E-08  0.10566000000E+00  0.10566000000E+00 0.  1.
     999900   -1    0    0    0    0 -0.00000000000E+00 -0.00000000000E+00 -0.74505805969E-08  0.93827000000E+00  0.93827000000E+00 0. -1.
     999902    2    1    2    0    0 -0.10719530026E-01  0.21224904374E-01  0.13161960716E-02  0.10201153561E+01  0.10198373412E+01 0.  0.
     999903    2    3    3    0    0 -0.13250969790E-01 -0.29022400558E-01  0.12449496173E+00  0.13011299202E+00  0.20310274782E-01 0.  0.
         14    1    1    2    0    0  0.10719530026E-01 -0.21224904374E-01 -0.13161960716E-02  0.23814643852E-01  0.00000000000E+00 0.  1.
     999901    1    3    3    0    0  0.25314397639E-02  0.50247304932E-01 -0.12317876566E+00  0.89000236413E+00  0.88000000000E+00 0. -1.
        -11    1    4    4    0    0 -0.18648593120E-01 -0.22787795728E-01  0.10109075765E+00  0.10529319096E+00  0.51100000000E-03 0.  1.
         11    1    4    4    0    0  0.53976233298E-02 -0.62346048298E-02  0.23404204083E-01  0.24819801062E-01  0.51100000000E-03 0. -1.
</event>
<event>
 8    1  0.1088270E+005  0.1043930E+01  0.7957747E-01            NaN
         13   -1    0    0    0    0  0.00000000000E+00  0.00000000000E+00  0.74505805969E-08  0.10566000000E+00  0.10566000000E+00 0. -1.
     999900   -1    0    0    0    0 -0.00000000000E+00 -0.00000000000E+00 -0.74505805969E-08  0.93827000000E+00  0.93827000000E+00 0. -1.
     999902    2    1    2    0    0  0.89683715854E-02 -0.44058282550E-02 -0.21458569767E-01  0.10202590636E+01  0.10199844331E+01 0.  0.
     999903    2    3    3    0    0 -0.61486182379E-01 -0.11097380182E+00 -0.25780983069E-01  0.13102385268E+00  0.20170661094E-01 0.  0.
         14    1    1    2    0    0 -0.89683715854E-02  0.44058282550E-02  0.21458569767E-01  0.23670936356E-01  0.00000000000E+00 0. -1.
     999901    1    3    3    0    0  0.70454553965E-01  0.10656797356E+00  0.43224133020E-02  0.88923521097E+00  0.88000000000E+00 0.  1.
        -11    1    4    4    0    0 -0.20642411971E-01 -0.20621637218E-01 -0.82838645735E-02  0.30335534061E-01  0.51100000000E-03 0.  1.
         11    1    4    4    0    0 -0.40843770409E-01 -0.90352164602E-01 -0.17497118496E-01  0.10068831862E+00  0.51100000000E-03 0. -1.
</event>
<event>
 8    1  0.1088270E+005  0.1043930E+01  0.7957747E-01            NaN
         13   -1    0    0    0    0  0.00000000000E+00  0.00000000000E+00  0.74505805969E-08  0.10566000000E+00  0.10566000000E+00 0.  1.
     999900   -1    0    0    0    0 -0.00000000000E+00 -0.00000000000E+00 -0.74505805969E-08  0.93827000000E+00  0.93827000000E+00 0.  1.
     999902    2    1    2    0    0  0.39040594367E-04  0.16130799072E-02 -0.22323337489E-01  0.10215484239E+01  0.10213032104E+01 0.  0.
     999903    2    3    3    0    0 -0.71705590429E-01  0.15638376989E-01  0.10478252036E+00  0.12941620271E+00  0.19568505747E-01 0.  0.
         14    1    1    2    0    0 -0.39040594367E-04 -0.16130799072E-02  0.22323337489E-01  0.22381576075E-01  0.00000000000E+00 0.  1.
     999901    1    3    3    0    0  0.71744631023E-01 -0.14025297082E-01 -0.12710585784E+00  0.89213222122E+00  0.88000000000E+00 0.  1.
        -11    1    4    4    0    0 -0.46099382020E-01  0.12445771378E-01  0.51622668478E-01  0.70322196138E-01  0.51100000000E-03 0.  1.
         11    1    4    4    0    0 -0.25606208409E-01  0.31926056112E-02  0.53159851878E-01  0.59094006568E-01  0.51100000000E-03 0. -1.
</event>
<event>
 8    1  0.1088270E+005  0.1043930E+01  0.7957747E-01            NaN
         13   -1    0    0    0    0  0.00000000000E+00  0.00000000000E+00  0.74505805969E-08  0.10566000000E+00  0.10566000000E+00 0. -1.
     999900   -1    0    0    0    0 -0.00000000000E+00 -0.00000000000E+00 -0.74505805969E-08  0.93827000000E+00  0.93827000000E+00 0. -1.
     999902    2    1    2    0    0 -0.69421697886E-02 -0.84228627573E-03  0.22222817163E-01  0.10206328592E+01  0.10203669323E+01 0.  0.
     999903    2    3    3    0    0 -0.79032726013E-01 -0.72622620076E-01  0.76351455809E-01  0.13311983160E+00  0.19264683546E-01 0.  0.
         14    1    1    2    0    0  0.69421697886E-02  0.84228627573E-03 -0.22222817163E-01  0.23297140816E-01  0.00000000000E+00 0.  1.
     999901    1    3    3    0    0  0.72090556224E-01  0.71780333800E-01 -0.54128638646E-01  0.88751302759E+00  0.88000000000E+00 0. -1.
        -11    1    4    4    0    0 -0.32061077499E-01 -0.28519757449E-01  0.42238779122E-01  0.60213493820E-01  0.51100000000E-03 0.  1.
         11    1    4    4    0    0 -0.46971648515E-01 -0.44102862627E-01  0.34112676687E-01  0.72906337775E-01  0.51100000000E-03 0. -1.
</event>
<event>
 8    1  0.1088270E+005  0.1043930E+01  0.7957747E-01            NaN
         13   -1    0    0    0    0  0.00000000000E+00  0.00000000000E+00  0.74505805969E-08  0.10566000000E+00  0.10566000000E+00 0.  1.
     999900   -1    0    0    0    0 -0.00000000000E+00 -0.00000000000E+00 -0.74505805969E-08  0.93827000000E+00  0.93827000000E+00 0.  1.
     999902    2    1    2    0    0  0.62178915006E-02  0.21637777062E-01  0.11401432242E-01  0.10186941480E+01  0.10183815193E+01 0.  0.
     999903    2    3    3    0    0 -0.54816489581E-01 -0.89061101717E-01 -0.67551265782E-01  0.12616237488E+00  0.20421654134E-01 0.  0.
         14    1    1    2    0    0 -0.62178915006E-02 -0.21637777062E-01 -0.11401432242E-01  0.25235852037E-01  0.00000000000E+00 0. -1.
     999901    1    3    3    0    0  0.61034381082E-01  0.11069887878E+00  0.78952698024E-01  0.89253177308E+00  0.88000000000E+00 0.  1.
        -11    1    4    4    0    0 -0.14659477044E-01 -0.43007371495E-01 -0.29634459263E-01  0.54249392319E-01  0.51100000000E-03 0.  1.
         11    1    4    4    0    0 -0.40157012538E-01 -0.46053730222E-01 -0.37916806518E-01  0.71912982561E-01  0.51100000000E-03 0. -1.
</event>
<event>
 8    1  0.1088270E+005  0.1043930E+01  0.7957747E-01            NaN
         13   -1    0    0    0    0  0.00000000000E+00  0.00000000000E+00  0.74505805969E-08  0.10566000000E+00  0.10566000000E+00 0. -1.
     999900   -1    0    0    0    0 -0.00000000000E+00 -0.00000000000E+00 -0.74505805969E-08  0.93827000000E+00  0.93827000000E+00 0. -1.
     999902    2    1    2    0    0 -0.73578930060E-03  0.16991009572E-01  0.16681169668E-01  0.10201078000E+01  0.10198296065E+01 0.  0.
     999903    2    3    3    0    0  0.74777765432E-01 -0.47108573410E-01 -0.90495697964E-01  0.12808877864E+00  0.20157677716E-01 0.  0.
         14    1    1    2    0    0  0.73578930060E-03 -0.16991009572E-01 -0.16681169668E-01  0.23822200018E-01  0.00000000000E+00 0.  1.
     999901    1    3    3    0    0 -0.75513554732E-01  0.64099582982E-01  0.10717686763E+00  0.89201902135E+00  0.88000000000E+00 0.  1.
        -11    1    4    4    0    0  0.34729565198E-01 -0.29696220761E-01 -0.35527433364E-01  0.57883226143E-01  0.51100000000E-03 0. -1.
         11    1    4    4    0    0  0.40048200234E-01 -0.17412352649E-01 -0.54968264600E-01  0.70205552493E-01  0.51100000000E-03 0.  1.
</event>
<event>
 8    1  0.1258838E+005  0.1043930E+01  0.7957747E-01            NaN
         13   -1    0    0    0    0  0.00000000000E+00  0.00000000000E+00  0.74505805969E-08  0.10566000000E+00  0.10566000000E+00 0. -1.
     999900   -1    0    0    0    0 -0.00000000000E+00 -0.00000000000E+00 -0.74505805969E-08  0.93827000000E+00  0.93827000000E+00 0. -1.
     999902    2    1    2    0    0  0.24440764427E-01 -0.51487934615E-03  0.35784811678E-02  0.10192232885E+01  0.10189237902E+01 0.  0.
     999903    2    3    3    0    0 -0.12302015577E+00 -0.32591833131E-02 -0.21928250025E-01  0.12658514930E+00  0.19959230252E-01 0.  0.
         14    1    1    2    0    0 -0.24440764427E-01  0.51487934615E-03 -0.35784811678E-02  0.24706711517E-01  0.00000000000E+00 0. -1.
     999901    1    3    3    0    0  0.14746092020E+00  0.27443039670E-02  0.25506731193E-01  0.89263813918E+00  0.88000000000E+00 0. -1.
        -11    1    4    4    0    0 -0.56559408088E-01 -0.26392474938E-02 -0.88375840582E-04  0.56623327365E-01  0.51100000000E-03 0. -1.
         11    1    4    4    0    0 -0.66460747683E-01 -0.61993581930E-03 -0.21839874185E-01  0.69961821935E-01  0.51100000000E-03 0.  1.
</event>
<event>
 8    1  0.1088270E+005  0.1043930E+01  0.7957747E-01            NaN
         13   -1    0    0    0    0  0.00000000000E+00  0.00000000000E+00  0.74505805969E-08  0.10566000000E+00  0.10566000000E+00 0.  1.
     999900   -1    0    0    0    0 -0.00000000000E+00 -0.00000000000E+00 -0.74505805969E-08  0.93827000000E+00  0.93827000000E+00 0.  1.
     999902    2    1    2    0    0  0.77774271292E-02 -0.17535870983E-01  0.12736750666E-01  0.10209034944E+01  0.10206437796E+01 0.  0.
     999903    2    3    3    0    0 -0.10502112275E-01 -0.94363362891E-01 -0.88777522044E-01  0.13155443318E+00  0.20257883692E-01 0.  0.
         14    1    1    2    0    0 -0.77774271292E-02  0.17535870983E-01 -0.12736750666E-01  0.23026505627E-01  0.00000000000E+00 0. -1.
     999901    1    3    3    0    0  0.18279539405E-01  0.76827491908E-01  0.10151427271E+00  0.88934906119E+00  0.88000000000E+00 0. -1.
        -11    1    4    4    0    0 -0.13960620356E-02 -0.22619205814E-01 -0.10500630133E-01  0.24982029842E-01  0.51100000000E-03 0. -1.
         11    1    4    4    0    0 -0.91060502397E-02 -0.71744157078E-01 -0.78276891911E-01  0.10657240334E+00  0.51100000000E-03 0.  1.
</event>
<event>
 8    1  0.1088270E+005  0.1043930E+01  0.7957747E-01            NaN
         13   -1    0    0    0    0  0.00000000000E+00  0.00000000000E+00  0.74505805969E-08  0.10566000000E+00  0.10566000000E+00 0.  1.
     999900   -1    0    0    0    0 -0.00000000000E+00 -0.00000000000E+00 -0.74505805969E-08  0.93827000000E+00  0.93827000000E+00 0.  1.
     999902    2    1    2    0    0  0.15736556893E-01  0.17631501018E-01  0.10918961382E-02  0.10202719931E+01  0.10199976660E+01 0.  0.
     999903    2    3    3    0    0  0.12110110860E+00 -0.34371892105E-01 -0.33844393589E-01  0.13177518055E+00  0.19296366542E-01 0.  0.
         14    1    1    2    0    0 -0.15736556893E-01 -0.17631501018E-01 -0.10918961382E-02  0.23658006852E-01  0.00000000000E+00 0. -1.
     999901    1    3    3    0    0 -0.10536455170E+00  0.52003393123E-01  0.34936289728E-01  0.88849681260E+00  0.88000000000E+00 0. -1.
        -11    1    4    4    0    0  0.53700480446E-01 -0.20765247715E-01 -0.23717049034E-01  0.62271154226E-01  0.51100000000E-03 0. -1.
         11    1    4    4    0    0  0.67400628153E-01 -0.13606644390E-01 -0.10127344555E-01  0.69504026327E-01  0.51100000000E-03 0.  1.
</event>
<event>
 8    1  0.1088270E+005  0.1043930E+01  0.7957747E-01            NaN
         13   -1    0    0    0    0  0.00000000000E+00  0.00000000000E+00  0.74505805969E-08  0.10566000000E+00  0.10566000000E+00 0.  1.
     999900   -1    0    0    0    0 -0.00000000000E+00 -0.00000000000E+00 -0.74505805969E-08  0.93827000000E+00  0.93827000000E+00 0.  1.
     999902    2    1    2    0    0 -0.14741496566E-01  0.20194848191E-01  0.95274692761E-02  0.10171733880E+01  0.10168214125E+01 0.  0.
     999903    2    3    3    0    0  0.55928324066E-01 -0.68055652675E-01 -0.86016382773E-01  0.12481079236E+00  0.20478439637E-01 0.  0.
         14    1    1    2    0    0  0.14741496566E-01 -0.20194848191E-01 -0.95274692761E-02  0.26756611992E-01  0.00000000000E+00 0. -1.
     999901    1    3    3    0    0 -0.70669820632E-01  0.88250500866E-01  0.95543852049E-01  0.89236259565E+00  0.88000000000E+00 0. -1.
        -11    1    4    4    0    0  0.14184723980E-01 -0.59622796143E-02 -0.11538750834E-01  0.19239518300E-01  0.51100000000E-03 0. -1.
         11    1    4    4    0    0  0.41743600086E-01 -0.62093373061E-01 -0.74477631939E-01  0.10557127406E+00  0.51100000000E-03 0.  1.
</event>
<event>
 8    1  0.1088270E+005  0.1043930E+01  0.7957747E-01            NaN
         13   -1    0    0    0    0  0.00000000000E+00  0.00000000000E+00  0.74505805969E-08  0.10566000000E+00  0.10566000000E+00 0.  1.
     999900   -1    0    0    0    0 -0.00000000000E+00 -0.00000000000E+00 -0.74505805969E-08  0.93827000000E+00  0.93827000000E+00 0. -1.
     999902    2    1    2    0    0 -0.22914518159E-01  0.92149144373E-02  0.13248903988E-02  0.10191965181E+01  0.10188963625E+01 0.  0.
     999903    2    3    3    0    0 -0.10550946171E-01 -0.86874933290E-01  0.91705344726E-01  0.12927812678E+00  0.25384785076E-01 0.  0.
         14    1    1    2    0    0  0.22914518159E-01 -0.92149144373E-02 -0.13248903988E-02  0.24733481864E-01  0.00000000000E+00 0. -1.
     999901    1    3    3    0    0 -0.12363571988E-01  0.96089847727E-01 -0.90380454327E-01  0.88991839136E+00  0.88000000000E+00 0. -1.
        -11    1    4    4    0    0  0.44109645234E-02 -0.27961241039E-01  0.42529321606E-01  0.51091016096E-01  0.51100000000E-03 0.  1.
         11    1    4    4    0    0 -0.14961910695E-01 -0.58913692251E-01  0.49176023119E-01  0.78187110684E-01  0.51100000000E-03 0. -1.
</event>
<event>
 8    1  0.1088270E+005  0.1043930E+01  0.7957747E-01            NaN
         13   -1    0    0    0    0  0.00000000000E+00  0.00000000000E+00  0.74505805969E-08  0.10566000000E+00  0.10566000000E+00 0.  1.
     999900   -1    0    0    0    0 -0.00000000000E+00 -0.00000000000E+00 -0.74505805969E-08  0.93827000000E+00  0.93827000000E+00 0. -1.
     999902    2    1    2    0    0  0.20902726347E-01  0.10655304227E-01  0.35889662012E-02  0.10201952121E+01  0.10199190805E+01 0.  0.
     999903    2    3    3    0    0  0.58090216927E-01  0.10814555849E+00 -0.45808851860E-01  0.13265512652E+00  0.20712232107E-01 0.  0.
         14    1    1    2    0    0 -0.20902726347E-01 -0.10655304227E-01 -0.35889662012E-02  0.23734787872E-01  0.00000000000E+00 0. -1.
     999901    1    3    3    0    0 -0.37187490579E-01 -0.97490254266E-01  0.49397818062E-01  0.88754008561E+00  0.88000000000E+00 0. -1.
        -11    1    4    4    0    0  0.46645052136E-01  0.67052400630E-01 -0.33184566868E-01  0.88166104135E-01  0.51100000000E-03 0. -1.
         11    1    4    4    0    0  0.11445164791E-01  0.41093157863E-01 -0.12624284992E-01  0.44489022385E-01  0.51100000000E-03 0.  1.
</event>
<event>
 8    1  0.1088270E+005  0.1043930E+01  0.7957747E-01            NaN
         13   -1    0    0    0    0  0.00000000000E+00  0.00000000000E+00  0.74505805969E-08  0.10566000000E+00  0.10566000000E+00 0. -1.
     999900   -1    0    0    0    0 -0.00000000000E+00 -0.00000000000E+00 -0.74505805969E-08  0.93827000000E+00  0.93827000000E+00 0. -1.
     999902    2    1    2    0    0  0.16784184293E-01 -0.22232612822E-02 -0.16501546178E-01  0.10202878182E+01  0.10200138623E+01 0.  0.
     999903    2    3    3    0    0 -0.31133718630E-01 -0.12333442789E+00  0.18162983707E-01  0.13002624445E+00  0.19905796378E-01 0.  0.
         14    1    1    2    0    0 -0.16784184293E-01  0.22232612822E-02  0.16501546178E-01  0.23642181781E-01  0.00000000000E+00 0. -1.
     999901    1    3    3    0    0  0.47917902923E-01  0.12111116661E+00 -0.34664529885E-01  0.89026157377E+00  0.88000000000E+00 0.  1.
        -11    1    4    4    0    0 -0.29301281713E-01 -0.79951222926E-01  0.88281366489E-02  0.85609346891E-01  0.51100000000E-03 0.  1.
         11    1    4    4    0    0 -0.18324369169E-02 -0.43383204965E-01  0.93348470582E-02  0.44416897559E-01  0.51100000000E-03 0. -1.
</event>
<event>
 8    1  0.1088270E+005  0.1043930E+01  0.7957747E-01            NaN
         13   -1    0    0    0    0  0.00000000000E+00  0.00000000000E+00  0.74505805969E-08  0.10566000000E+00  0.10566000000E+00 0.  1.
     999900   -1    0    0    0    0 -0.00000000000E+00 -0.00000000000E+00 -0.74505805969E-08  0.93827000000E+00  0.93827000000E+00 0. -1.
     999902    2    1    2    0    0 -0.22368863821E-01 -0.20632990876E-02  0.86577700130E-02  0.10198555269E+01  0.10195713391E+01 0.  0.
     999903    2    3    3    0    0 -0.10664493162E+00 -0.68958089981E-01 -0.31409434562E-01  0.13239693661E+00  0.20347890118E-01 0.  0.
         14    1    1    2    0    0  0.22368863821E-01  0.20632990876E-02 -0.86577700130E-02  0.24074473065E-01  0.00000000000E+00 0. -1.
     999901    1    3    3    0    0  0.84276067795E-01  0.66894790893E-01  0.40067204575E-01  0.88745859032E+00  0.88000000000E+00 0.  1.
        -11    1    4    4    0    0 -0.60858487060E-01 -0.34392809221E-01 -0.26705312155E-01  0.74833519172E-01  0.51100000000E-03 0. -1.
         11    1    4    4    0    0 -0.45786444556E-01 -0.34565280760E-01 -0.47041224073E-02  0.57563417442E-01  0.51100000000E-03 0.  1.
</event>
<event>
 8    1  0.1088270E+005  0.1043930E+01  0.7957747E-01            NaN
         13   -1    0    0    0    0  0.00000000000E+00  0.00000000000E+00  0.74505805969E-08  0.10566000000E+00  0.10566000000E+00 0.  1.
     999900   -1    0    0    0    0 -0.00000000000E+00 -0.00000000000E+00 -0.74505805969E-08  0.93827000000E+00  0.93827000000E+00 0. -1.
     999902    2    1    2    0    0 -0.11190198627E-01  0.62356509062E-02 -0.20316303548E-01  0.10199121717E+01  0.10196293355E+01 0.  0.
     999903    2    3    3    0    0 -0.12716301983E+00 -0.13492011409E-01 -0.25832844184E-01  0.13206685399E+00  0.20538989758E-01 0.  0.
         14    1    1    2    0    0  0.11190198627E-01 -0.62356509062E-02  0.20316303548E-01  0.24017828323E-01  0.00000000000E+00 0.  1.
     999901    1    3    3    0    0  0.11597282120E+00  0.19727662315E-01  0.55165406363E-02  0.88784531769E+00  0.88000000000E+00 0. -1.
        -11    1    4    4    0    0 -0.73679759768E-01  0.16389268083E-02 -0.10814815262E-01  0.74489022216E-01  0.51100000000E-03 0.  1.
         11    1    4    4    0    0 -0.53483260061E-01 -0.15130938217E-01 -0.15018028922E-01  0.57577831774E-01  0.51100000000E-03 0. -1.
</event>
<event>
 8    1  0.1088270E+005  0.1043930E+01  0.7957747E-01            NaN
         13   -1    0    0    0    0  0.00000000000E+00  0.00000000000E+00  0.74505805969E-08  0.10566000000E+00  0.10566000000E+00 0. -1.
     999900   -1    0    0    0    0 -0.00000000000E+00 -0.00000000000E+00 -0.74505805969E-08  0.93827000000E+00  0.93827000000E+00 0.  1.
     999902    2    1    2    0    0  0.14515161339E-01 -0.18707617374E-01  0.31732150325E-02  0.10200399571E+01  0.10197601580E+01 0.  0.
     999903    2    3    3    0    0  0.57692836504E-01 -0.52013020386E-01 -0.10464280801E+00  0.13178444412E+00  0.19575616699E-01 0.  0.
         14    1    1    2    0    0 -0.14515161339E-01  0.18707617374E-01 -0.31732150325E-02  0.23890042908E-01  0.00000000000E+00 0.  1.
     999901    1    3    3    0    0 -0.43177675165E-01  0.33305403012E-01  0.10781602305E+00  0.88825551297E+00  0.88000000000E+00 0. -1.
        -11    1    4    4    0    0  0.27900148691E-01 -0.26177452120E-01 -0.67605793186E-01  0.77681926403E-01  0.51100000000E-03 0. -1.
         11    1    4    4    0    0  0.29792687813E-01 -0.25835568266E-01 -0.37037014828E-01  0.54102517715E-01  0.51100000000E-03 0.  1.
</event>
<event>
 8    1  0.1088270E+005  0.1043930E+01  0.7957747E-01            NaN
         13   -1    0    0    0    0  0.00000000000E+00  0.00000000000E+00  0.74505805969E-08  0.10566000000E+00  0.10566000000E+00 0. -1.
     999900   -1    0    0    0    0 -0.00000000000E+00 -0.00000000000E+00 -0.74505805969E-08  0.93827000000E+00  0.93827000000E+00 0. -1.
     999902    2    1    2    0    0  0.67479297849E-02  0.10872005996E-01  0.18964142679E-01  0.10210526361E+01  0.10207963127E+01 0.  0.
     999903    2    3    3    0    0  0.52680160244E-01  0.40711522669E-01 -0.10980312177E+00  0.12999642299E+00  0.20241469303E-01 0.  0.
         14    1    1    2    0    0 -0.67479297849E-02 -0.10872005996E-01 -0.18964142679E-01  0.22877363884E-01  0.00000000000E+00 0.  1.
     999901    1    3    3    0    0 -0.45932230459E-01 -0.29839516673E-01  0.12876726445E+00  0.89105621312E+00  0.88000000000E+00 0.  1.
        -11    1    4    4    0    0  0.37748031334E-01  0.23961025316E-01 -0.55733402544E-01  0.71452906757E-01  0.51100000000E-03 0. -1.
         11    1    4    4    0    0  0.14932128910E-01  0.16750497352E-01 -0.54069719225E-01  0.58543516237E-01  0.51100000000E-03 0.  1.
</event>
<event>
 8    1  0.1088270E+005  0.1043930E+01  0.7957747E-01            NaN
         13   -1    0    0    0    0  0.00000000000E+00  0.00000000000E+00  0.74505805969E-08  0.10566000000E+00  0.10566000000E+00 0. -1.
     999900   -1    0    0    0    0 -0.00000000000E+00 -0.00000000000E+00 -0.74505805969E-08  0.93827000000E+00  0.93827000000E+00 0.  1.
     999902    2    1    2    0    0  0.11043218966E-01  0.30362022788E-01  0.17583093975E-01  0.10071472553E+01  0.10064753467E+01 0.  0.
     999903    2    3    3    0    0  0.80963948326E-01 -0.80905756660E-01 -0.12161305521E-01  0.11689214781E+00  0.20370922365E-01 0.  0.
         14    1    1    2    0    0 -0.11043218966E-01 -0.30362022788E-01 -0.17583093975E-01  0.36782744686E-01  0.00000000000E+00 0.  1.
     999901    1    3    3    0    0 -0.69920729361E-01  0.11126777945E+00  0.29744399496E-01  0.89025510751E+00  0.88000000000E+00 0. -1.
        -11    1    4    4    0    0  0.46543274757E-01 -0.51845382628E-01 -0.16597529580E-01  0.71623733735E-01  0.51100000000E-03 0. -1.
         11    1    4    4    0    0  0.34420673570E-01 -0.29060374032E-01  0.44362240586E-02  0.45268414074E-01  0.51100000000E-03 0.  1.
</event>
<event>
 8    1  0.1088270E+005  0.1043930E+01  0.7957747E-01            NaN
         13   -1    0    0    0    0  0.00000000000E+00  0.00000000000E+00  0.74505805969E-08  0.10566000000E+00  0.10566000000E+00 0. -1.
     999900   -1    0    0    0    0 -0.00000000000E+00 -0.00000000000E+00 -0.74505805969E-08  0.93827000000E+00  0.93827000000E+00 0. -1.
     999902    2    1    2    0    0  0.12591856361E-01 -0.14207921339E-01 -0.14041209633E-01  0.10203169645E+01  0.10200436916E+01 0.  0.
     999903    2    3    3    0    0 -0.23246197081E-01  0.80731650764E-02 -0.12821274810E+00  0.13193869315E+00  0.19072186656E-01 0.  0.
         14    1    1    2    0    0 -0.12591856361E-01  0.14207921339E-01  0.14041209633E-01  0.23613035454E-01  0.00000000000E+00 0. -1.
     999901    1    3    3    0    0  0.35838053442E-01 -0.22281086415E-01  0.11417153846E+00  0.88837827139E+00  0.88000000000E+00 0.  1.
        -11    1    4    4    0    0 -0.17181587022E-01  0.24932143058E-02 -0.11537357648E+00  0.11667367450E+00  0.51100000000E-03 0.  1.
         11    1    4    4    0    0 -0.60646100591E-02  0.55799507705E-02 -0.12839171614E-01  0.15265018654E-01  0.51100000000E-03 0. -1.
</event>
<event>
 8    1  0.1088270E+005  0.1043930E+01  0.7957747E-01            NaN
         13   -1    0    0    0    0  0.00000000000E+00  0.00000000000E+00  0.74505805969E-08  0.10566000000E+00  0.10566000000E+00 0. -1.
     999900   -1    0    0    0    0 -0.00000000000E+00 -0.00000000000E+00 -0.74505805969E-08  0.93827000000E+00  0.93827000000E+00 0. -1.
     999902    2    1    2    0    0  0.15269502816E-01  0.16846209087E-01  0.45889808136E-02  0.10207349311E+01  0.10204713560E+01 0.  0.
     999903    2    3    3    0    0 -0.56455218016E-01  0.89306373575E-01 -0.75139185038E-01  0.13126796068E+00  0.20556273278E-01 0.  0.
         14    1    1    2    0    0 -0.15269502816E-01 -0.16846209087E-01 -0.45889808136E-02  0.23195068911E-01  0.00000000000E+00 0.  1.
     999901    1    3    3    0    0  0.71724720833E-01 -0.72460164488E-01  0.79728165851E-01  0.88946697041E+00  0.88000000000E+00 0.  1.
        -11    1    4    4    0    0 -0.43796748906E-03  0.12399149966E-01 -0.10239346000E-01  0.16094597320E-01  0.51100000000E-03 0. -1.
         11    1    4    4    0    0 -0.56017250527E-01  0.76907223609E-01 -0.64899839038E-01  0.11517336336E+00  0.51100000000E-03 0.  1.
</event>
<event>
 8    1  0.1088270E+005  0.1043930E+01  0.7957747E-01            NaN
         13   -1    0    0    0    0  0.00000000000E+00  0.00000000000E+00  0.74505805969E-08  0.10566000000E+00  0.10566000000E+00 0.  1.
     999900   -1    0    0    0    0 -0.00000000000E+00 -0.00000000000E+00 -0.74505805969E-08  0.93827000000E+00  0.93827000000E+00 0.  1.
     999902    2    1    2    0    0 -0.58915290323E-02 -0.14483442296E-01  0.17203919687E-01  0.10206823105E+01  0.10204175243E+01 0.  0.
     999903    2    3    3    0    0 -0.11896037731E+00  0.47075336934E-01  0.21845787653E-01  0.13130297933E+00  0.19889073017E-01 0.  0.
         14    1    1    2    0    0  0.58915290323E-02  0.14483442296E-01 -0.17203919687E-01  0.23247689513E-01  0.00000000000E+00 0. -1.
     999901    1    3    3    0    0  0.11306884828E+00 -0.61558779230E-01 -0.46418679660E-02  0.88937933116E+00  0.88000000000E+00 0.  1.
        -11    1    4    4    0    0 -0.64470983606E-01  0.34890231177E-01  0.77717916118E-02  0.73719046553E-01  0.51100000000E-03 0.  1.
         11    1    4    4    0    0 -0.54489393705E-01  0.12185105757E-01  0.14073996041E-01  0.57583932778E-01  0.51100000000E-03 0. -1.
</event>
<event>
 8    1  0.1088270E+005  0.1043930E+01  0.7957747E-01            NaN
         13   -1    0    0    0    0  0.00000000000E+00  0.00000000000E+00  0.74505805969E-08  0.10566000000E+00  0.10566000000E+00 0.  1.
     999900   -1    0    0    0    0 -0.00000000000E+00 -0.00000000000E+00 -0.74505805969E-08  0.93827000000E+00  0.93827000000E+00 0.  1.
     999902    2    1    2    0    0  0.14993567855E-01 -0.36185652647E-02 -0.20365796562E-01  0.10183826565E+01  0.10180621633E+01 0.  0.
     999903    2    3    3    0    0 -0.79481044810E-01 -0.16177446365E-01 -0.99428144530E-01  0.12971284558E+00  0.18987367598E-01 0.  0.
         14    1    1    2    0    0 -0.14993567855E-01  0.36185652647E-02  0.20365796562E-01  0.25547343526E-01  0.00000000000E+00 0.  1.
     999901    1    3    3    0    0  0.94474612665E-01  0.12558881100E-01  0.79062347967E-01  0.88866981090E+00  0.88000000000E+00 0. -1.
        -11    1    4    4    0    0 -0.62981807490E-01 -0.46711211409E-02 -0.76747684109E-01  0.99393136506E-01  0.51100000000E-03 0. -1.
         11    1    4    4    0    0 -0.16499237319E-01 -0.11506325224E-01 -0.22680460421E-01  0.30319709072E-01  0.51100000000E-03 0.  1.
</event>
<event>
 8    1  0.1088270E+005  0.1043930E+01  0.7957747E-01            NaN
         13   -1    0    0    0    0  0.00000000000E+00  0.00000000000E+00  0.74505805969E-08  0.10566000000E+00  0.10566000000E+00 0. -1.
     999900   -1    0    0    0    0 -0.00000000000E+00 -0.00000000000E+00 -0.74505805969E-08  0.93827000000E+00  0.93827000000E+00 0.  1.
     999902    2    1    2    0    0 -0.13625325103E-02 -0.22594747024E-01 -0.58180888252E-02  0.10205584522E+01  0.10202908042E+01 0.  0.
     999903    2    3    3    0    0  0.12997245511E-01  0.11924393221E+00  0.39976559264E-01  0.12790982933E+00  0.19358599884E-01 0.  0.
         14    1    1    2    0    0  0.13625325103E-02  0.22594747024E-01  0.58180888252E-02  0.23371547777E-01  0.00000000000E+00 0. -1.
     999901    1    3    3    0    0 -0.14359778021E-01 -0.14183867924E+00 -0.45794648090E-01  0.89264862289E+00  0.88000000000E+00 0.  1.
        -11    1    4    4    0    0  0.42175500683E-02  0.50664942367E-01  0.26981726217E-01  0.57558655165E-01  0.51100000000E-03 0.  1.
         11    1    4    4    0    0  0.87796954428E-02  0.68578989844E-01  0.12994833047E-01  0.70351174170E-01  0.51100000000E-03 0. -1.
</event>
<event>
 8    1  0.1088270E+005  0.1043930E+01  0.7957747E-01            NaN
         13   -1    0    0    0    0  0.00000000000E+00  0.00000000000E+00  0.74505805969E-08  0.10566000000E+00  0.10566000000E+00 0.  1.
     999900   -1    0    0    0    0 -0.00000000000E+00 -0.00000000000E+00 -0.74505805969E-08  0.93827000000E+00  0.93827000000E+00 0.  1.
     999902    2    1    2    0    0 -0.11509714634E-01  0.64822195315E-02  0.20661625012E-01  0.10194066346E+01  0.10191116187E+01 0.  0.
     999903    2    3    3    0    0 -0.25161472631E-01  0.12308777859E+00  0.32155938415E-01  0.13153539051E+00  0.21996673322E-01 0.  0.
         14    1    1    2    0    0  0.11509714634E-01 -0.64822195315E-02 -0.20661625012E-01  0.24523365372E-01  0.00000000000E+00 0. -1.
     999901    1    3    3    0    0  0.13651757997E-01 -0.11660555906E+00 -0.11494313403E-01  0.88787124412E+00  0.88000000000E+00 0.  1.
        -11    1    4    4    0    0 -0.26840791355E-01  0.93630427028E-01  0.30128463563E-01  0.10195621797E+00  0.51100000000E-03 0.  1.
         11    1    4    4    0    0  0.16793187237E-02  0.29457351561E-01  0.20274748520E-02  0.29579172531E-01  0.51100000000E-03 0. -1.
</event>
<event>
 8    1  0.1088270E+005  0.1043930E+01  0.7957747E-01            NaN
         13   -1    0    0    0    0  0.00000000000E+00  0.00000000000E+00  0.74505805969E-08  0.10566000000E+00  0.10566000000E+00 0.  1.
     999900   -1    0    0    0    0 -0.00000000000E+00 -0.00000000000E+00 -0.74505805969E-08  0.93827000000E+00  0.93827000000E+00 0. -1.
     999902    2    1    2    0    0 -0.12320656180E-01  0.15624256973E-02 -0.18877525410E-01  0.10213335244E+01  0.10210835262E+01 0.  0.
     999903    2    3    3    0    0 -0.35421205819E-01  0.11734135142E+00  0.42468200331E-01  0.13133257325E+00  0.20519312404E-01 0.  0.
         14    1    1    2    0    0  0.12320656180E-01 -0.15624256973E-02  0.18877525410E-01  0.22596475574E-01  0.00000000000E+00 0.  1.
     999901    1    3    3    0    0  0.23100549639E-01 -0.11577892572E+00 -0.61345725741E-01  0.89000095118E+00  0.88000000000E+00 0.  1.
        -11    1    4    4    0    0 -0.75831171769E-02  0.60569094041E-01  0.20688506771E-01  0.64454590624E-01  0.51100000000E-03 0. -1.
         11    1    4    4    0    0 -0.27838088642E-01  0.56772257378E-01  0.21779693560E-01  0.66877982622E-01  0.51100000000E-03 0.  1.
</event>
<event>
 8    1  0.1088270E+005  0.1043930E+01  0.7957747E-01            NaN
         13   -1    0    0    0    0  0.00000000000E+00  0.00000000000E+00  0.74505805969E-08  0.10566000000E+00  0.10566000000E+00 0. -1.
     999900   -1    0    0    0    0 -0.00000000000E+00 -0.00000000000E+00 -0.74505805969E-08  0.93827000000E+00  0.93827000000E+00 0. -1.
     999902    2    1    2    0    0 -0.61865607522E-02  0.19042746483E-01  0.13044390684E-01  0.10200332250E+01  0.10197532663E+01 0.  0.
     999903    2    3    3    0    0 -0.35118509482E-01  0.70049406829E-01  0.10586976764E+00  0.13321008159E+00  0.19907009606E-01 0.  0.
         14    1    1    2    0    0  0.61865607522E-02 -0.19042746483E-01 -0.13044390684E-01  0.23896775010E-01  0.00000000000E+00 0.  1.
     999901    1    3    3    0    0  0.28931948730E-01 -0.51006660346E-01 -0.92825376960E-01  0.88682314340E+00  0.88000000000E+00 0. -1.
        -11    1    4    4    0    0 -0.10476294564E-01  0.95977982965E-02  0.29448433874E-01  0.32700792934E-01  0.51100000000E-03 0.  1.
         11    1    4    4    0    0 -0.24642214918E-01  0.60451608533E-01  0.76421333770E-01  0.10050928866E+00  0.51100000000E-03 0. -1.
</event>
<event>
 8    1  0.1088270E+005  0.1043930E+01  0.7957747E-01            NaN
         13   -1    0    0    0    0  0.00000000000E+00  0.00000000000E+00  0.74505805969E-08  0.10566000000E+00  0.10566000000E+00 0.  1.
     999900   -1    0    0    0    0 -0.00000000000E+00 -0.00000000000E+00 -0.74505805969E-08  0.93827000000E+00  0.93827000000E+00 0.  1.
     999902    2    1    2    0    0 -0.16056563614E-01  0.11007735157E-01 -0.13926029062E-01  0.10199942996E+01  0.10197134173E+01 0.  0.
     999903    2    3    3    0    0  0.71617402854E-01 -0.50480176440E-01 -0.93716429663E-01  0.12991902430E+00  0.20466633353E-01 0.  0.
         14    1    1    2    0    0  0.16056563614E-01 -0.11007735157E-01  0.13926029062E-01  0.23935700404E-01  0.00000000000E+00 0.  1.
     999901    1    3    3    0    0 -0.87673966468E-01  0.61487911596E-01  0.79790400601E-01  0.89007527530E+00  0.88000000000E+00 0. -1.
        -11    1    4    4    0    0  0.18490306396E-01 -0.35430706141E-02 -0.15860643487E-01  0.24622467643E-01  0.51100000000E-03 0. -1.
         11    1    4    4    0    0  0.53127096458E-01 -0.46937105826E-01 -0.77855786176E-01  0.10529655666E+00  0.51100000000E-03 0.  1.
</event>
<event>
 8    1  0.1088270E+005  0.1043930E+01  0.7957747E-01            NaN
         13   -1    0    0    0    0  0.00000000000E+00  0.00000000000E+00  0.74505805969E-08  0.10566000000E+00  0.10566000000E+00 0.  1.
     999900   -1    0    0    0    0 -0.00000000000E+00 -0.00000000000E+00 -0.74505805969E-08  0.93827000000E+00  0.93827000000E+00 0.  1.
     999902    2    1    2    0    0 -0.36967989953E-02  0.83354168597E-02 -0.21699068801E-01  0.10203928998E+01  0.10201214021E+01 0.  0.
     999903    2    3    3    0    0  0.11492599580E+00  0.49632083876E-01 -0.33542119281E-01  0.13139512707E+00  0.21639717893E-01 0.  0.
         14    1    1    2    0    0  0.36967989953E-02 -0.83354168597E-02  0.21699068801E-01  0.23537100159E-01  0.00000000000E+00 0.  1.
     999901    1    3    3    0    0 -0.11862279480E+00 -0.41296667016E-01  0.11843050479E-01  0.88899777277E+00  0.88000000000E+00 0.  1.
        -11    1    4    4    0    0  0.59162166236E-01  0.31504406224E-01 -0.27481033689E-01  0.72444170634E-01  0.51100000000E-03 0. -1.
         11    1    4    4    0    0  0.55763829565E-01  0.18127677652E-01 -0.60610855914E-02  0.58950956433E-01  0.51100000000E-03 0.  1.
</event>
<event>
 8    1  0.1088270E+005  0.1043930E+01  0.7957747E-01            NaN
         13   -1    0    0    0    0  0.00000000000E+00  0.00000000000E+00  0.74505805969E-08  0.10566000000E+00  0.10566000000E+00 0. -1.
     999900   -1    0    0    0    0 -0.00000000000E+00 -0.00000000000E+00 -0.74505805969E-08  0.93827000000E+00  0.93827000000E+00 0.  1.
     999902    2    1    2    0    0 -0.27283376553E-02  0.52675552574E-02  0.23220478141E-01  0.10199637410E+01  0.10196821325E+01 0.  0.
     999903    2    3    3    0    0  0.65176459622E-01 -0.55233465345E-01  0.98930578950E-01  0.13204288060E+00  0.18691074965E-01 0.  0.
         14    1    1    2    0    0  0.27283376553E-02 -0.52675552574E-02 -0.23220478141E-01  0.23966258987E-01  0.00000000000E+00 0.  1.
     999901    1    3    3    0    0 -0.67904797278E-01  0.60501020603E-01 -0.75710100809E-01  0.88792086041E+00  0.88000000000E+00 0.  1.
        -11    1    4    4    0    0  0.55275566817E-01 -0.40495432778E-01  0.86547385080E-01  0.11039012342E+00  0.51100000000E-03 0. -1.
         11    1    4    4    0    0  0.99008928053E-02 -0.14738032567E-01  0.12383193871E-01  0.21652757186E-01  0.51100000000E-03 0.  1.
</event>
<event>
 8    1  0.1088270E+005  0.1043930E+01  0.7957747E-01            NaN
         13   -1    0    0    0    0  0.00000000000E+00  0.00000000000E+00  0.74505805969E-08  0.10566000000E+00  0.10566000000E+00 0.  1.
     999900   -1    0    0    0    0 -0.00000000000E+00 -0.00000000000E+00 -0.74505805969E-08  0.93827000000E+00  0.93827000000E+00 0.  1.
     999902    2    1    2    0    0 -0.18148062956E-02  0.60253453194E-02 -0.23214723271E-01  0.10198775223E+01  0.10195938597E+01 0.  0.
     999903    2    3    3    0    0 -0.61988792373E-01  0.69220983805E-01 -0.92896374579E-01  0.13282051743E+00  0.19426746018E-01 0.  0.
         14    1    1    2    0    0  0.18148062956E-02 -0.60253453194E-02  0.23214723271E-01  0.24052477723E-01  0.00000000000E+00 0.  1.
     999901    1    3    3    0    0  0.60173986077E-01 -0.63195638485E-01  0.69681651309E-01  0.88705700485E+00  0.88000000000E+00 0. -1.
        -11    1    4    4    0    0 -0.36940533563E-01  0.34439109050E-01 -0.62065534285E-01  0.80019040979E-01  0.51100000000E-03 0. -1.
         11    1    4    4    0    0 -0.25048258810E-01  0.34781874754E-01 -0.30830840294E-01  0.52801476448E-01  0.51100000000E-03 0.  1.
</event>
<event>
 8    1  0.1088270E+005  0.1043930E+01  0.7957747E-01            NaN
         13   -1    0    0    0    0  0.00000000000E+00  0.00000000000E+00  0.74505805969E-08  0.10566000000E+00  0.10566000000E+00 0. -1.
     999900   -1    0    0    0    0 -0.00000000000E+00 -0.00000000000E+00 -0.74505805969E-08  0.93827000000E+00  0.93827000000E+00 0. -1.
     999902    2    1    2    0    0 -0.18840618978E-01  0.72156151355E-02  0.98905374479E-02  0.10214609823E+01  0.10212138276E+01 0.  0.
     999903    2    3    3    0    0 -0.58936410098E-01 -0.10270316761E+00 -0.53727970191E-01  0.13144012537E+00  0.19192985775E-01 0.  0.
         14    1    1    2    0    0  0.18840618978E-01 -0.72156151355E-02 -0.98905374479E-02  0.22469017697E-01  0.00000000000E+00 0.  1.
     999901    1    3    3    0    0  0.40095791120E-01  0.10991878275E+00  0.63618507638E-01  0.89002085694E+00  0.88000000000E+00 0.  1.
        -11    1    4    4    0    0 -0.27605775047E-01 -0.48530932612E-01 -0.14891578410E-01  0.57787113310E-01  0.51100000000E-03 0.  1.
         11    1    4    4    0    0 -0.31330635050E-01 -0.54172235001E-01 -0.38836391781E-01  0.73653012058E-01  0.51100000000E-03 0. -1.
</event>
<event>
 8    1  0.1088270E+005  0.1043930E+01  0.7957747E-01            NaN
         13   -1    0    0    0    0  0.00000000000E+00  0.00000000000E+00  0.74505805969E-08  0.10566000000E+00  0.10566000000E+00 0. -1.
     999900   -1    0    0    0    0 -0.00000000000E+00 -0.00000000000E+00 -0.74505805969E-08  0.93827000000E+00  0.93827000000E+00 0.  1.
     999902    2    1    2    0    0  0.10282450386E-01  0.23165460494E-01  0.63255621722E-02  0.10178075942E+01  0.10174723184E+01 0.  0.
     999903    2    3    3    0    0  0.36787612053E-01 -0.15352536230E-01 -0.11962169033E+00  0.12761162139E+00  0.19655745937E-01 0.  0.
         14    1    1    2    0    0 -0.10282450386E-01 -0.23165460494E-01 -0.63255621722E-02  0.26122405759E-01  0.00000000000E+00 0.  1.
     999901    1    3    3    0    0 -0.26505161667E-01  0.38517996725E-01  0.12594725250E+00  0.89019597285E+00  0.88000000000E+00 0. -1.
        -11    1    4    4    0    0  0.22922371186E-01 -0.77134110723E-02 -0.42700671236E-01  0.49076881076E-01  0.51100000000E-03 0.  1.
         11    1    4    4    0    0  0.13865240867E-01 -0.76391251578E-02 -0.76921019090E-01  0.78534740315E-01  0.51100000000E-03 0. -1.
</event>
<event>
 8    1  0.1088270E+005  0.1043930E+01  0.7957747E-01            NaN
         13   -1    0    0    0    0  0.00000000000E+00  0.00000000000E+00  0.74505805969E-08  0.10566000000E+00  0.10566000000E+00 0. -1.
     999900   -1    0    0    0    0 -0.00000000000E+00 -0.00000000000E+00 -0.74505805969E-08  0.93827000000E+00  0.93827000000E+00 0. -1.
     999902    2    1    2    0    0  0.82221944222E-02 -0.22553644125E-01 -0.92207630654E-02  0.10182143663E+01  0.10178895824E+01 0.  0.
     999903    2    3    3    0    0 -0.11905127528E+00 -0.96455607489E-02 -0.42563744733E-01  0.12833970709E+00  0.19828390289E-01 0.  0.
         14    1    1    2    0    0 -0.82221944222E-02  0.22553644125E-01  0.92207630654E-02  0.25715633687E-01  0.00000000000E+00 0.  1.
     999901    1    3    3    0    0  0.12727346970E+00 -0.12908083376E-01  0.33342981667E-01  0.88987465923E+00  0.88000000000E+00 0. -1.
        -11    1    4    4    0    0 -0.16628001071E-01  0.23285408819E-02 -0.12455963895E-01  0.20912309289E-01  0.51100000000E-03 0.  1.
         11    1    4    4    0    0 -0.10242327421E+00 -0.11974101631E-01 -0.30107780838E-01  0.10742739780E+00  0.51100000000E-03 0. -1.
</event>
<event>
 8    1  0.1088270E+005  0.1043930E+01  0.7957747E-01            NaN
         13   -1    0    0    0    0  0.00000000000E+00  0.00000000000E+00  0.74505805969E-08  0.10566000000E+00  0.10566000000E+00 0.  1.
     999900   -1    0    0    0    0 -0.00000000000E+00 -0.00000000000E+00 -0.74505805969E-08  0.93827000000E+00  0.93827000000E+00 0. -1.
     999902    2    1    2    0    0  0.25649063624E-02  0.32377079412E-02  0.22955310212E-01  0.10206060260E+01  0.10203394790E+01 0.  0.
     999903    2    3    3    0    0 -0.12598001749E+00 -0.34413608851E-02  0.30229899834E-01  0.13121222846E+00  0.20493762039E-01 0.  0.
         14    1    1    2    0    0 -0.25649063624E-02 -0.32377079412E-02 -0.22955310212E-01  0.23323974024E-01  0.00000000000E+00 0. -1.
     999901    1    3    3    0    0  0.12854492385E+00  0.66790688263E-02 -0.72745896218E-02  0.88939379752E+00  0.88000000000E+00 0. -1.
        -11    1    4    4    0    0 -0.22237784917E-01  0.27291091954E-02  0.12877163029E-01  0.25846654787E-01  0.51100000000E-03 0. -1.
         11    1    4    4    0    0 -0.10374223257E+00 -0.61704700805E-02  0.17352736805E-01  0.10536557367E+00  0.51100000000E-03 0.  1.
</event>
<event>
 8    1  0.1088270E+005  0.1043930E+01  0.7957747E-01            NaN
         13   -1    0    0    0    0  0.00000000000E+00  0.00000000000E+00  0.74505805969E-08  0.10566000000E+00  0.10566000000E+00 0.  1.
     999900   -1    0    0    0    0 -0.00000000000E+00 -0.00000000000E+00 -0.74505805969E-08  0.93827000000E+00  0.93827000000E+00 0. -1.
     999902    2    1    2    0    0  0.91410684711E-02  0.60259916658E-02  0.21524081789E-01  0.10197813395E+01  0.10194953764E+01 0.  0.
     999903    2    3    3    0    0  0.34014045674E-01  0.10045879769E+00 -0.71537785064E-01  0.12950232090E+00  0.20106493713E-01 0.  0.
         14    1    1    2    0    0 -0.91410684711E-02 -0.60259916658E-02 -0.21524081789E-01  0.24148660527E-01  0.00000000000E+00 0. -1.
     999901    1    3    3    0    0 -0.24872977203E-01 -0.94432806028E-01  0.93061866854E-01  0.89027901857E+00  0.88000000000E+00 0.  1.
        -11    1    4    4    0    0  0.19621394795E-01  0.60675850162E-01 -0.54514164128E-01  0.83896442941E-01  0.51100000000E-03 0. -1.
         11    1    4    4    0    0  0.14392650879E-01  0.39782947532E-01 -0.17023620936E-01  0.45605877959E-01  0.51100000000E-03 0.  1.
</event>
<event>
 8    1  0.1088270E+005  0.1043930E+01  0.7957747E-01            NaN
         13   -1    0    0    0    0  0.00000000000E+00  0.00000000000E+00  0.74505805969E-08  0.10566000000E+00  0.10566000000E+00 0. -1.
     999900   -1    0    0    0    0 -0.00000000000E+00 -0.00000000000E+00 -0.74505805969E-08  0.93827000000E+00  0.93827000000E+00 0.  1.
     999902    2    1    2    0    0 -0.59912715548E-03  0.11851980149E-01  0.21194533442E-01  0.10196393303E+01  0.10193499533E+01 0.  0.
     999903    2    3    3    0    0  0.10618784437E-01 -0.12125383120E+00 -0.33751747154E-01  0.12786464334E+00  0.19873007240E-01 0.  0.
         14    1    1    2    0    0  0.59912715548E-03 -0.11851980149E-01 -0.21194533442E-01  0.24290669702E-01  0.00000000000E+00 0.  1.
     999901    1    3    3    0    0 -0.11217911592E-01  0.13310581134E+00  0.54946280595E-01  0.89177468696E+00  0.88000000000E+00 0. -1.
        -11    1    4    4    0    0  0.25839136231E-03 -0.53242322327E-01 -0.56343037097E-02  0.53542675990E-01  0.51100000000E-03 0. -1.
         11    1    4    4    0    0  0.10360393075E-01 -0.68011508869E-01 -0.28117443444E-01  0.74321967346E-01  0.51100000000E-03 0.  1.
</event>
<event>
 7    1  0.1343171E+005  0.1043930E+01  0.7957747E-01            NaN
         13   -1    0    0    0    0  0.00000000000E+00  0.00000000000E+00  0.74505805969E-08  0.10566000000E+00  0.10566000000E+00 0. -1.
     999900   -1    0    0    0    0 -0.00000000000E+00 -0.00000000000E+00 -0.74505805969E-08  0.93827000000E+00  0.93827000000E+00 0.  1.
     999903    2    1    2    0    0 -0.88217453330E-02  0.31729033406E-01 -0.85508749002E-01  0.93768602845E-01  0.19906028533E-01 0.  0.
         14    1    1    2    0    0  0.50604520293E-01  0.32886310697E-01 -0.11685786916E-01  0.61472632295E-01  0.00000000000E+00 0.  1.
     999901    1    1    2    0    0 -0.41782774960E-01 -0.64615344103E-01  0.97194535918E-01  0.88868876486E+00  0.88000000000E+00 0. -1.
        -11    1    3    3    0    0  0.36517094026E-02  0.22147321646E-01 -0.55834065332E-01  0.60179255646E-01  0.51100000000E-03 0. -1.
         11    1    3    3    0    0 -0.12473454736E-01  0.95817117604E-02 -0.29674683670E-01  0.33589347199E-01  0.51100000000E-03 0.  1.
</event>
<event>
 8    1  0.1088270E+005  0.1043930E+01  0.7957747E-01            NaN
         13   -1    0    0    0    0  0.00000000000E+00  0.00000000000E+00  0.74505805969E-08  0.10566000000E+00  0.10566000000E+00 0.  1.
     999900   -1    0    0    0    0 -0.00000000000E+00 -0.00000000000E+00 -0.74505805969E-08  0.93827000000E+00  0.93827000000E+00 0.  1.
     999902    2    1    2    0    0 -0.96304734167E-02  0.29529121757E-02 -0.21700354521E-01  0.10200057216E+01  0.10197251106E+01 0.  0.
     999903    2    3    3    0    0  0.95371780942E-01 -0.67462547433E-01  0.48922725131E-01  0.12816973350E+00  0.19674238090E-01 0.  0.
         14    1    1    2    0    0  0.96304734167E-02 -0.29529121757E-02  0.21700354521E-01  0.23924278357E-01  0.00000000000E+00 0.  1.
     999901    1    3    3    0    0 -0.10500225436E+00  0.70415459609E-01 -0.70623079652E-01  0.89183598815E+00  0.88000000000E+00 0.  1.
        -11    1    4    4    0    0  0.48309169784E-01 -0.39865337328E-01  0.35446552741E-01  0.71970412168E-01  0.51100000000E-03 0. -1.
         11    1    4    4    0    0  0.47062611158E-01 -0.27597210105E-01  0.13476172390E-01  0.56199321329E-01  0.51100000000E-03 0.  1.
</event>
<event>
 8    1  0.1088270E+005  0.1043930E+01  0.7957747E-01            NaN
         13   -1    0    0    0    0  0.00000000000E+00  0.00000000000E+00  0.74505805969E-08  0.10566000000E+00  0.10566000000E+00 0. -1.
     999900   -1    0    0    0    0 -0.00000000000E+00 -0.00000000000E+00 -0.74505805969E-08  0.93827000000E+00  0.93827000000E+00 0. -1.
     999902    2    1    2    0    0  0.11766964440E-01 -0.19314359473E-01 -0.12423512527E-01  0.10181259384E+01  0.10177988882E+01 0.  0.
     999903    2    3    3    0    0  0.11447758608E+00  0.32288995386E-01 -0.48235274194E-01  0.12992840385E+00  0.20175517642E-01 0.  0.
         14    1    1    2    0    0 -0.11766964440E-01  0.19314359473E-01  0.12423512527E-01  0.25804061647E-01  0.00000000000E+00 0.  1.
     999901    1    3    3    0    0 -0.10271062164E+00 -0.51603354859E-01  0.35811761668E-01  0.88819753451E+00  0.88000000000E+00 0.  1.
        -11    1    4    4    0    0  0.34313081433E-01  0.22661870814E-02 -0.20022355876E-01  0.39795464781E-01  0.51100000000E-03 0. -1.
         11    1    4    4    0    0  0.80164504646E-01  0.30022808304E-01 -0.28212918318E-01  0.90132939066E-01  0.51100000000E-03 0.  1.
</event>
<event>
 8    1  0.1088270E+005  0.1043930E+01  0.7957747E-01            NaN
         13   -1    0    0    0    0  0.00000000000E+00  0.00000000000E+00  0.74505805969E-08  0.10566000000E+00  0.10566000000E+00 0.  1.
     999900   -1    0    0    0    0 -0.00000000000E+00 -0.00000000000E+00 -0.74505805969E-08  0.93827000000E+00  0.93827000000E+00 0. -1.
     999902    2    1    2    0    0 -0.24148927127E-02  0.22948107448E-01  0.23367126125E-02  0.10207371656E+01  0.10204736418E+01 0.  0.
     999903    2    3    3    0    0  0.67336646922E-01 -0.88134890948E-01  0.62648633123E-01  0.12897361084E+00  0.20183112758E-01 0.  0.
         14    1    1    2    0    0  0.24148927127E-02 -0.22948107448E-01 -0.23367126125E-02  0.23192834413E-01  0.00000000000E+00 0. -1.
     999901    1    3    3    0    0 -0.69751539635E-01  0.11108299840E+00 -0.60311920511E-01  0.89176355474E+00  0.88000000000E+00 0. -1.
        -11    1    4    4    0    0  0.59620622729E-01 -0.81491765436E-01  0.49844346223E-01  0.11260660043E+00  0.51100000000E-03 0.  1.
         11    1    4    4    0    0  0.77160241930E-02 -0.66431255123E-02  0.12804286901E-01  0.16367010416E-01  0.51100000000E-03 0. -1.
</event>
<event>
 8    1  0.1088270E+005  0.1043930E+01  0.7957747E-01            NaN
         13   -1    0    0    0    0  0.00000000000E+00  0.00000000000E+00  0.74505805969E-08  0.10566000000E+00  0.10566000000E+00 0. -1.
     999900   -1    0    0    0    0 -0.00000000000E+00 -0.00000000000E+00 -0.74505805969E-08  0.93827000000E+00  0.93827000000E+00 0. -1.
     999902    2    1    2    0    0  0.23016836157E-01  0.42162565669E-03  0.20417683993E-02  0.10208189348E+01  0.10205572872E+01 0.  0.
     999903    2    3    3    0    0  0.82037025317E-01 -0.10223994373E+00  0.13844255573E-02  0.13288694833E+00  0.21770272970E-01 0.  0.
         14    1    1    2    0    0 -0.23016836157E-01 -0.42162565669E-03 -0.20417683993E-02  0.23111065165E-01  0.00000000000E+00 0. -1.
     999901    1    3    3    0    0 -0.59020189161E-01  0.10266156939E+00  0.65734284201E-03  0.88793198650E+00  0.88000000000E+00 0.  1.
        -11    1    4    4    0    0  0.41392192525E-01 -0.62872574679E-01  0.89106538571E-02  0.75801946690E-01  0.51100000000E-03 0.  1.
         11    1    4    4    0    0  0.40644832793E-01 -0.39367369053E-01 -0.75262282998E-02  0.57085001641E-01  0.51100000000E-03 0. -1.
</event>
<event>
 8    1  0.1088270E+005  0.1043930E+01  0.7957747E-01            NaN
         13   -1    0    0    0    0  0.00000000000E+00  0.00000000000E+00  0.74505805969E-08  0.10566000000E+00  0.10566000000E+00 0. -1.
     999900   -1    0    0    0    0 -0.00000000000E+00 -0.00000000000E+00 -0.74505805969E-08  0.93827000000E+00  0.93827000000E+00 0.  1.
     999902    2    1    2    0    0  0.87708051303E-02 -0.10244944524E-01  0.19165101843E-01  0.10204952600E+01  0.10202261458E+01 0.  0.
     999903    2    3    3    0    0 -0.12751429428E+00 -0.11257083560E-01 -0.46990509142E-02  0.12968430892E+00  0.20231701004E-01 0.  0.
         14    1    1    2    0    0 -0.87708051303E-02  0.10244944524E-01 -0.19165101843E-01  0.23434740015E-01  0.00000000000E+00 0.  1.
     999901    1    3    3    0    0  0.13628509941E+00  0.10121390363E-02  0.23864152757E-01  0.89081095106E+00  0.88000000000E+00 0. -1.
        -11    1    4    4    0    0 -0.72859032043E-01 -0.21403858603E-02  0.63938396285E-02  0.73172140245E-01  0.51100000000E-03 0.  1.
         11    1    4    4    0    0 -0.54655262236E-01 -0.91166977001E-02 -0.11092890543E-01  0.56512168677E-01  0.51100000000E-03 0. -1.
</event>
<event>
 8    1  0.1088270E+005  0.1043930E+01  0.7957747E-01            NaN
         13   -1    0    0    0    0  0.00000000000E+00  0.00000000000E+00  0.74505805969E-08  0.10566000000E+00  0.10566000000E+00 0.  1.
     999900   -1    0    0    0    0 -0.00000000000E+00 -0.00000000000E+00 -0.74505805969E-08  0.93827000000E+00  0.93827000000E+00 0.  1.
     999902    2    1    2    0    0 -0.70002705197E-02 -0.14199401244E-01 -0.15859489213E-01  0.10215212923E+01  0.10212754772E+01 0.  0.
     999903    2    3    3    0    0  0.71264260751E-01 -0.84922259342E-01  0.67382936438E-01  0.13132111203E+00  0.20356555440E-01 0.  0.
         14    1    1    2    0    0  0.70002705197E-02  0.14199401244E-01  0.15859489213E-01  0.22408707708E-01  0.00000000000E+00 0.  1.
     999901    1    3    3    0    0 -0.78264531270E-01  0.70722858099E-01 -0.83242425651E-01  0.89020018026E+00  0.88000000000E+00 0.  1.
        -11    1    4    4    0    0  0.17984074738E-01 -0.25046523870E-01  0.88838767936E-02  0.32092673463E-01  0.51100000000E-03 0. -1.
         11    1    4    4    0    0  0.53280186012E-01 -0.59875735473E-01  0.58499059644E-01  0.99228438566E-01  0.51100000000E-03 0.  1.
</event>
<event>
 8    1  0.1088270E+005  0.1043930E+01  0.7957747E-01            NaN
         13   -1    0    0    0    0  0.00000000000E+00  0.00000000000E+00  0.74505805969E-08  0.10566000000E+00  0.10566000000E+00 0.  1.
     999900   -1    0    0    0    0 -0.00000000000E+00 -0.00000000000E+00 -0.74505805969E-08  0.93827000000E+00  0.93827000000E+00 0.  1.
     999902    2    1    2    0    0  0.19598143888E-01 -0.40704421643E-02 -0.12963669873E-01  0.10200823066E+01  0.10198035104E+01 0.  0.
     999903    2    3    3    0    0  0.54296185790E-01 -0.45944927955E-01 -0.11117408836E+00  0.13295057289E+00  0.16036356015E-01 0.  0.
         14    1    1    2    0    0 -0.19598143888E-01  0.40704421643E-02  0.12963669873E-01  0.23847693387E-01  0.00000000000E+00 0.  1.
     999901    1    3    3    0    0 -0.34698041902E-01  0.41874485791E-01  0.98210418486E-01  0.88713173372E+00  0.88000000000E+00 0. -1.
        -11    1    4    4    0    0  0.12017157000E-01 -0.27953401490E-02 -0.22236299245E-01  0.25435017476E-01  0.51100000000E-03 0.  1.
         11    1    4    4    0    0  0.42279028790E-01 -0.43149587806E-01 -0.88937789115E-01  0.10751555542E+00  0.51100000000E-03 0. -1.
</event>
<event>
 8    1  0.1088270E+005  0.1043930E+01  0.7957747E-01            NaN
         13   -1    0    0    0    0  0.00000000000E+00  0.00000000000E+00  0.74505805969E-08  0.10566000000E+00  0.10566000000E+00 0. -1.
     999900   -1    0    0    0    0 -0.00000000000E+00 -0.00000000000E+00 -0.74505805969E-08  0.93827000000E+00  0.93827000000E+00 0.  1.
     999902    2    1    2    0    0  0.46870360653E-02  0.22136523613E-01 -0.19428582018E-02  0.10212194588E+01  0.10209669017E+01 0.  0.
     999903    2    3    3    0    0  0.64751320153E-01 -0.54784969655E-01 -0.97498642886E-01  0.13068279904E+00  0.19439193349E-01 0.  0.
         14    1    1    2    0    0 -0.46870360653E-02 -0.22136523613E-01  0.19428582018E-02  0.22710541225E-01  0.00000000000E+00 0. -1.
     999901    1    3    3    0    0 -0.60064284087E-01  0.76921493268E-01  0.95555784684E-01  0.89053665974E+00  0.88000000000E+00 0. -1.
        -11    1    4    4    0    0  0.28872548443E-01 -0.19481864995E-01 -0.53420100770E-01  0.63774096659E-01  0.51100000000E-03 0. -1.
         11    1    4    4    0    0  0.35878771709E-01 -0.35303104660E-01 -0.44078542116E-01  0.66908702379E-01  0.51100000000E-03 0.  1.
</event>
<event>
 8    1  0.1088270E+005  0.1043930E+01  0.7957747E-01            NaN
         13   -1    0    0    0    0  0.00000000000E+00  0.00000000000E+00  0.74505805969E-08  0.10566000000E+00  0.10566000000E+00 0.  1.
     999900   -1    0    0    0    0 -0.00000000000E+00 -0.00000000000E+00 -0.74505805969E-08  0.93827000000E+00  0.93827000000E+00 0. -1.
     999902    2    1    2    0    0 -0.57612412631E-02  0.21048374036E-01  0.10582195174E-01  0.10196769836E+01  0.10193885138E+01 0.  0.
     999903    2    3    3    0    0  0.29041734703E-01 -0.75750976411E-01  0.98629575037E-01  0.12932104213E+00  0.20359422491E-01 0.  0.
         14    1    1    2    0    0  0.57612412631E-02 -0.21048374036E-01 -0.10582195174E-01  0.24253016414E-01  0.00000000000E+00 0. -1.
     999901    1    3    3    0    0 -0.34802975966E-01  0.96799350447E-01 -0.88047379863E-01  0.89035594145E+00  0.88000000000E+00 0. -1.
        -11    1    4    4    0    0  0.10789121552E-01 -0.22036145216E-01  0.44972979071E-01  0.51233063615E-01  0.51100000000E-03 0. -1.
         11    1    4    4    0    0  0.18252613151E-01 -0.53714831195E-01  0.53656595966E-01  0.78087978517E-01  0.51100000000E-03 0.  1.
</event>
<event>
 8    1  0.1088270E+005  0.1043930E+01  0.7957747E-01            NaN
         13   -1    0    0    0    0  0.00000000000E+00  0.00000000000E+00  0.74505805969E-08  0.10566000000E+00  0.10566000000E+00 0.  1.
     999900   -1    0    0    0    0 -0.00000000000E+00 -0.00000000000E+00 -0.74505805969E-08  0.93827000000E+00  0.93827000000E+00 0. -1.
     999902    2    1    2    0    0 -0.93073971432E-03 -0.15581789649E-01 -0.18528151771E-01  0.10197029314E+01  0.10194150859E+01 0.  0.
     999903    2    3    3    0    0  0.71210697537E-03 -0.91597779365E-01 -0.94490362228E-01  0.13316393786E+00  0.20335818457E-01 0.  0.
         14    1    1    2    0    0  0.93073971432E-03  0.15581789649E-01  0.18528151771E-01  0.24227068604E-01  0.00000000000E+00 0.  1.
     999901    1    3    3    0    0 -0.16428466897E-02  0.76015989716E-01  0.75962210457E-01  0.88653899353E+00  0.88000000000E+00 0.  1.
        -11    1    4    4    0    0 -0.79878371548E-02 -0.31640442780E-01 -0.26049698892E-01  0.41758485306E-01  0.51100000000E-03 0. -1.
         11    1    4    4    0    0  0.86999441301E-02 -0.59957336585E-01 -0.68440663336E-01  0.91405452557E-01  0.51100000000E-03 0.  1.
</event>
<event>
 8    1  0.1088270E+005  0.1043930E+01  0.7957747E-01            NaN
         13   -1    0    0    0    0  0.00000000000E+00  0.00000000000E+00  0.74505805969E-08  0.10566000000E+00  0.10566000000E+00 0. -1.
     999900   -1    0    0    0    0 -0.00000000000E+00 -0.00000000000E+00 -0.74505805969E-08  0.93827000000E+00  0.93827000000E+00 0.  1.
     999902    2    1    2    0    0  0.19500554624E-01  0.13671411273E-01  0.20012743414E-02  0.10200305394E+01  0.10197505171E+01 0.  0.
     999903    2    3    3    0    0  0.76985082095E-01 -0.90111904645E-01  0.49090662507E-01  0.13082142002E+00  0.25641617846E-01 0.  0.
         14    1    1    2    0    0 -0.19500554624E-01 -0.13671411273E-01 -0.20012743414E-02  0.23899460576E-01  0.00000000000E+00 0. -1.
     999901    1    3    3    0    0 -0.57484527472E-01  0.10378331592E+00 -0.47089388165E-01  0.88920911941E+00  0.88000000000E+00 0.  1.
        -11    1    4    4    0    0  0.21060811059E-01 -0.24445050584E-01  0.14925282474E-02  0.32304907090E-01  0.51100000000E-03 0. -1.
         11    1    4    4    0    0  0.55924271036E-01 -0.65666854061E-01  0.47598134259E-01  0.98516512926E-01  0.51100000000E-03 0.  1.
</event>
<event>
 8    1  0.1088270E+005  0.1043930E+01  0.7957747E-01            NaN
         13   -1    0    0    0    0  0.00000000000E+00  0.00000000000E+00  0.74505805969E-08  0.10566000000E+00  0.10566000000E+00 0. -1.
     999900   -1    0    0    0    0 -0.00000000000E+00 -0.00000000000E+00 -0.74505805969E-08  0.93827000000E+00  0.93827000000E+00 0. -1.
     999902    2    1    2    0    0 -0.12968798205E-01  0.18577581272E-01  0.54139532408E-02  0.10206356414E+01  0.10203697787E+01 0.  0.
     999903    2    3    3    0    0  0.20934748098E-01  0.42368863729E-01  0.12165019832E+00  0.13202642457E+00  0.19970521816E-01 0.  0.
         14    1    1    2    0    0  0.12968798205E-01 -0.18577581272E-01 -0.54139532408E-02  0.23294358598E-01  0.00000000000E+00 0. -1.
     999901    1    3    3    0    0 -0.33903546303E-01 -0.23791282457E-01 -0.11623624508E+00  0.88860921683E+00  0.88000000000E+00 0. -1.
        -11    1    4    4    0    0  0.78876789706E-02  0.28144928685E-01  0.92926263677E-01  0.97416138767E-01  0.51100000000E-03 0.  1.
         11    1    4    4    0    0  0.13047069127E-01  0.14223935044E-01  0.28723934642E-01  0.34610285801E-01  0.51100000000E-03 0. -1.
</event>
<event>
 8    1  0.1088270E+005  0.1043930E+01  0.7957747E-01            NaN
         13   -1    0    0    0    0  0.00000000000E+00  0.00000000000E+00  0.74505805969E-08  0.10566000000E+00  0.10566000000E+00 0. -1.
     999900   -1    0    0    0    0 -0.00000000000E+00 -0.00000000000E+00 -0.74505805969E-08  0.93827000000E+00  0.93827000000E+00 0.  1.
     999902    2    1    2    0    0 -0.14224704660E-02  0.83924126759E-02  0.23288951668E-01  0.10191342084E+01  0.10188325198E+01 0.  0.
     999903    2    3    3    0    0  0.45738591540E-02  0.33897919618E-01  0.12615784742E+00  0.13275477688E+00  0.23195671519E-01 0.  0.
         14    1    1    2    0    0  0.14224704660E-02 -0.83924126759E-02 -0.23288951668E-01  0.24795791630E-01  0.00000000000E+00 0.  1.
     999901    1    3    3    0    0 -0.59963296199E-02 -0.25505506942E-01 -0.10286889575E+00  0.88637943149E+00  0.88000000000E+00 0.  1.
        -11    1    4    4    0    0 -0.86213455711E-02  0.85085766870E-02  0.28043900220E-01  0.30552331126E-01  0.51100000000E-03 0.  1.
         11    1    4    4    0    0  0.13195204725E-01  0.25389342931E-01  0.98113947200E-01  0.10220244576E+00  0.51100000000E-03 0. -1.
</event>
<event>
 8    1  0.1088270E+005  0.1043930E+01  0.7957747E-01            NaN
         13   -1    0    0    0    0  0.00000000000E+00  0.00000000000E+00  0.74505805969E-08  0.10566000000E+00  0.10566000000E+00 0. -1.
     999900   -1    0    0    0    0 -0.00000000000E+00 -0.00000000000E+00 -0.74505805969E-08  0.93827000000E+00  0.93827000000E+00 0.  1.
     999902    2    1    2    0    0 -0.30433261358E-03 -0.14262300423E-01  0.18237928015E-01  0.10207755652E+01  0.10205129233E+01 0.  0.
     999903    2    3    3    0    0  0.71681561194E-01 -0.77707483992E-01 -0.74303098033E-01  0.13073562133E+00  0.19853287454E-01 0.  0.
         14    1    1    2    0    0  0.30433261358E-03  0.14262300423E-01 -0.18237928015E-01  0.23154434779E-01  0.00000000000E+00 0.  1.
     999901    1    3    3    0    0 -0.71985893808E-01  0.63445183569E-01  0.92541026047E-01  0.89003994389E+00  0.88000000000E+00 0. -1.
        -11    1    4    4    0    0  0.42670645525E-01 -0.59780694426E-01 -0.49825700382E-01  0.88754588361E-01  0.51100000000E-03 0.  1.
         11    1    4    4    0    0  0.29010915669E-01 -0.17926789567E-01 -0.24477397651E-01  0.41981032965E-01  0.51100000000E-03 0. -1.
</event>
<event>
 8    1  0.1088270E+005  0.1043930E+01  0.7957747E-01            NaN
         13   -1    0    0    0    0  0.00000000000E+00  0.00000000000E+00  0.74505805969E-08  0.10566000000E+00  0.10566000000E+00 0. -1.
     999900   -1    0    0    0    0 -0.00000000000E+00 -0.00000000000E+00 -0.74505805969E-08  0.93827000000E+00  0.93827000000E+00 0.  1.
     999902    2    1    2    0    0  0.79364020836E-02  0.77950924006E-02  0.20850734975E-01  0.10202973300E+01  0.10200235970E+01 0.  0.
     999903    2    3    3    0    0  0.10614080313E-01  0.66612393699E-01 -0.10819722304E+00  0.12893880482E+00  0.19201734848E-01 0.  0.
         14    1    1    2    0    0 -0.79364020836E-02 -0.77950924006E-02 -0.20850734975E-01  0.23632670026E-01  0.00000000000E+00 0.  1.
     999901    1    3    3    0    0 -0.26776782297E-02 -0.58817301299E-01  0.12904795801E+00  0.89135852515E+00  0.88000000000E+00 0. -1.
        -11    1    4    4    0    0  0.71166088945E-02  0.61044919012E-01 -0.85465778143E-01  0.10527007464E+00  0.51100000000E-03 0. -1.
         11    1    4    4    0    0  0.34974714188E-02  0.55674746872E-02 -0.22731444892E-01  0.23668730186E-01  0.51100000000E-03 0.  1.
</event>
<event>
 8    1  0.1088270E+005  0.1043930E+01  0.7957747E-01            NaN
         13   -1    0    0    0    0  0.00000000000E+00  0.00000000000E+00  0.74505805969E-08  0.10566000000E+00  0.10566000000E+00 0. -1.
     999900   -1    0    0    0    0 -0.00000000000E+00 -0.00000000000E+00 -0.74505805969E-08  0.93827000000E+00  0.93827000000E+00 0.  1.
     999902    2    1    2    0    0 -0.88188936896E-02 -0.15211849859E-01  0.84425250596E-02  0.10244248855E+01  0.10242391794E+01 0.  0.
     999903    2    3    3    0    0 -0.48150384972E-01 -0.75928944727E-01 -0.98520025719E-01  0.13500118496E+00  0.20867684438E-01 0.  0.
         14    1    1    2    0    0  0.88188936896E-02  0.15211849859E-01 -0.84425250596E-02  0.19505114494E-01  0.00000000000E+00 0. -1.
     999901    1    3    3    0    0  0.39331491283E-01  0.60717094868E-01  0.10696255078E+00  0.88942370054E+00  0.88000000000E+00 0. -1.
        -11    1    4    4    0    0 -0.86930163063E-02 -0.30279707211E-01 -0.27612559725E-01  0.41894436109E-01  0.51100000000E-03 0.  1.
         11    1    4    4    0    0 -0.39457368666E-01 -0.45649237516E-01 -0.70907465994E-01  0.93106748856E-01  0.51100000000E-03 0. -1.
</event>
<event>
 8    1  0.1088270E+005  0.1043930E+01  0.7957747E-01            NaN
         13   -1    0    0    0    0  0.00000000000E+00  0.00000000000E+00  0.74505805969E-08  0.10566000000E+00  0.10566000000E+00 0. -1.
     999900   -1    0    0    0    0 -0.00000000000E+00 -0.00000000000E+00 -0.74505805969E-08  0.93827000000E+00  0.93827000000E+00 0. -1.
     999902    2    1    2    0    0 -0.40908863761E-02 -0.22568946492E-01 -0.51122306486E-02  0.10204304766E+01  0.10201598551E+01 0.  0.
     999903    2    3    3    0    0 -0.16151537059E-01 -0.13054252086E+00  0.12879763290E-01  0.13356664045E+00  0.19285674393E-01 0.  0.
         14    1    1    2    0    0  0.40908863761E-02  0.22568946492E-01  0.51122306486E-02  0.23499523385E-01  0.00000000000E+00 0. -1.
     999901    1    3    3    0    0  0.12060650683E-01  0.10797357437E+00 -0.17991993938E-01  0.88686383617E+00  0.88000000000E+00 0.  1.
        -11    1    4    4    0    0 -0.10391613528E-01 -0.71294272085E-01 -0.24629425322E-02  0.72091511781E-01  0.51100000000E-03 0.  1.
         11    1    4    4    0    0 -0.57599235314E-02 -0.59248248772E-01  0.15342705822E-01  0.61475128667E-01  0.51100000000E-03 0. -1.
</event>
<event>
 7    1  0.1088270E+005  0.1043930E+01  0.7957747E-01            NaN
         13   -1    0    0    0    0  0.00000000000E+00  0.00000000000E+00  0.74505805969E-08  0.10566000000E+00  0.10566000000E+00 0.  1.
     999900   -1    0    0    0    0 -0.00000000000E+00 -0.00000000000E+00 -0.74505805969E-08  0.93827000000E+00  0.93827000000E+00 0. -1.
     999903    2    1    2    0    0  0.10238470787E+00 -0.39611242200E-01 -0.58243269968E-02  0.11179287098E+00  0.20298874399E-01 0.  0.
         14    1    1    2    0    0 -0.16262819641E-01  0.13581281810E-01 -0.41170244000E-01  0.46302478436E-01  0.00000000000E+00 0. -1.
     999901    1    1    2    0    0 -0.86121888234E-01  0.26029960390E-01  0.46994570997E-01  0.88583465058E+00  0.88000000000E+00 0. -1.
        -11    1    3    3    0    0  0.61235182634E-03  0.11431856635E-02  0.13336812281E-02  0.19291642850E-02  0.51100000000E-03 0. -1.
         11    1    3    3    0    0  0.10177235605E+00 -0.40754427863E-01 -0.71580082248E-02  0.10986370670E+00  0.51100000000E-03 0.  1.
</event>
<event>
 8    1  0.1088270E+005  0.1043930E+01  0.7957747E-01            NaN
         13   -1    0    0    0    0  0.00000000000E+00  0.00000000000E+00  0.74505805969E-08  0.10566000000E+00  0.10566000000E+00 0.  1.
     999900   -1    0    0    0    0 -0.00000000000E+00 -0.00000000000E+00 -0.74505805969E-08  0.93827000000E+00  0.93827000000E+00 0.  1.
     999902    2    1    2    0    0  0.20267570873E-01  0.53424391428E-02  0.12649855451E-01  0.10194486821E+01  0.10191546892E+01 0.  0.
     999903    2    3    3    0    0  0.85281895826E-01  0.86164550205E-01 -0.46384219767E-01  0.13139232229E+00  0.20374372302E-01 0.  0.
         14    1    1    2    0    0 -0.20267570873E-01 -0.53424391428E-02 -0.12649855451E-01  0.24481317939E-01  0.00000000000E+00 0. -1.
     999901    1    3    3    0    0 -0.65014324953E-01 -0.80822111062E-01  0.59034075218E-01  0.88805635977E+00  0.88000000000E+00 0. -1.
        -11    1    4    4    0    0  0.41338508285E-01  0.32624469999E-01 -0.11789522132E-01  0.53967418532E-01  0.51100000000E-03 0.  1.
         11    1    4    4    0    0  0.43943387541E-01  0.53540080206E-01 -0.34594697635E-01  0.77424903762E-01  0.51100000000E-03 0. -1.
</event>
<event>
 8    1  0.1088270E+005  0.1043930E+01  0.7957747E-01            NaN
         13   -1    0    0    0    0  0.00000000000E+00  0.00000000000E+00  0.74505805969E-08  0.10566000000E+00  0.10566000000E+00 0.  1.
     999900   -1    0    0    0    0 -0.00000000000E+00 -0.00000000000E+00 -0.74505805969E-08  0.93827000000E+00  0.93827000000E+00 0.  1.
     999902    2    1    2    0    0 -0.58919307262E-02 -0.28728040529E-02  0.22907895851E-01  0.10201027143E+01  0.10198244007E+01 0.  0.
     999903    2    3    3    0    0 -0.16196809511E-01 -0.10744894996E+00  0.73079330148E-01  0.13243186674E+00  0.19748350450E-01 0.  0.
         14    1    1    2    0    0  0.58919307262E-02  0.28728040529E-02 -0.22907895851E-01  0.23827285686E-01  0.00000000000E+00 0. -1.
     999901    1    3    3    0    0  0.10304878785E-01  0.10457614591E+00 -0.50171434297E-01  0.88767084758E+00  0.88000000000E+00 0.  1.
        -11    1    4    4    0    0 -0.65863638225E-02 -0.35623203891E-01  0.35813983278E-01  0.50944041487E-01  0.51100000000E-03 0. -1.
         11    1    4    4    0    0 -0.96104456889E-02 -0.71825746074E-01  0.37265346870E-01  0.81487825249E-01  0.51100000000E-03 0.  1.
</event>
<event>
 8    1  0.1088270E+005  0.1043930E+01  0.7957747E-01            NaN
         13   -1    0    0    0    0  0.00000000000E+00  0.00000000000E+00  0.74505805969E-08  0.10566000000E+00  0.10566000000E+00 0.  1.
     999900   -1    0    0    0    0 -0.00000000000E+00 -0.00000000000E+00 -0.74505805969E-08  0.93827000000E+00  0.93827000000E+00 0.  1.
     999902    2    1    2    0    0 -0.50605008597E-02 -0.46649474362E-02  0.22560976421E-01  0.10203425444E+01  0.10200698701E+01 0.  0.
     999903    2    3    3    0    0  0.46950337370E-01  0.45234851160E-01  0.11376944182E+00  0.13269728794E+00  0.20360707193E-01 0.  0.
         14    1    1    2    0    0  0.50605008597E-02  0.46649474362E-02 -0.22560976421E-01  0.23587455577E-01  0.00000000000E+00 0. -1.
     999901    1    3    3    0    0 -0.52010838230E-01 -0.49899798596E-01 -0.91208465395E-01  0.88764525648E+00  0.88000000000E+00 0.  1.
        -11    1    4    4    0    0  0.30597148783E-01  0.25740229185E-01  0.87058209144E-01  0.95802598151E-01  0.51100000000E-03 0.  1.
         11    1    4    4    0    0  0.16353188587E-01  0.19494621975E-01  0.26711232672E-01  0.36894689791E-01  0.51100000000E-03 0. -1.
</event>
<event>
 8    1  0.1088270E+005  0.1043930E+01  0.7957747E-01            NaN
         13   -1    0    0    0    0  0.00000000000E+00  0.00000000000E+00  0.74505805969E-08  0.10566000000E+00  0.10566000000E+00 0.  1.
     999900   -1    0    0    0    0 -0.00000000000E+00 -0.00000000000E+00 -0.74505805969E-08  0.93827000000E+00  0.93827000000E+00 0.  1.
     999902    2    1    2    0    0  0.22289185053E-01 -0.23822670660E-02  0.76511258113E-02  0.10202440824E+01  0.10199691000E+01 0.  0.
     999903    2    3    3    0    0 -0.97317230727E-01  0.47482392279E-01  0.66689296067E-01  0.12879712127E+00  0.20396452265E-01 0.  0.
         14    1    1    2    0    0 -0.22289185053E-01  0.23822670660E-02 -0.76511258113E-02  0.23685917607E-01  0.00000000000E+00 0. -1.
     999901    1    3    3    0    0  0.11960641578E+00 -0.49864659345E-01 -0.59038170255E-01  0.89144696112E+00  0.88000000000E+00 0.  1.
        -11    1    4    4    0    0 -0.58687871168E-01  0.20862091222E-01  0.46455522423E-01  0.77703730650E-01  0.51100000000E-03 0. -1.
         11    1    4    4    0    0 -0.38629359559E-01  0.26620301056E-01  0.20233773644E-01  0.51093390621E-01  0.51100000000E-03 0.  1.
</event>
<event>
 7    1  0.1353015E+005  0.1043930E+01  0.7957747E-01            NaN
         13   -1    0    0    0    0  0.00000000000E+00  0.00000000000E+00  0.74505805969E-08  0.10566000000E+00  0.10566000000E+00 0.  1.
     999900   -1    0    0    0    0 -0.00000000000E+00 -0.00000000000E+00 -0.74505805969E-08  0.93827000000E+00  0.93827000000E+00 0.  1.
     999903    2    1    2    0    0  0.95954449397E-01  0.12890153905E-01  0.50828238474E-01  0.11124946722E+00  0.20482228946E-01 0.  0.
         14    1    1    2    0    0  0.17857117339E-01  0.31298175697E-01  0.20388044648E-01  0.41401990365E-01  0.00000000000E+00 0.  1.
     999901    1    1    2    0    0 -0.11381156674E+00 -0.44188329602E-01 -0.71216283122E-01  0.89127854242E+00  0.88000000000E+00 0.  1.
        -11    1    3    3    0    0  0.59279319065E-01 -0.21229012556E-02  0.29800892376E-01  0.66384476242E-01  0.51100000000E-03 0. -1.
         11    1    3    3    0    0  0.36675130332E-01  0.15013055160E-01  0.21027346098E-01  0.44864990973E-01  0.51100000000E-03 0.  1.
</event>
<event>
 8    1  0.1088270E+005  0.1043930E+01  0.7957747E-01            NaN
         13   -1    0    0    0    0  0.00000000000E+00  0.00000000000E+00  0.74505805969E-08  0.10566000000E+00  0.10566000000E+00 0. -1.
     999900   -1    0    0    0    0 -0.00000000000E+00 -0.00000000000E+00 -0.74505805969E-08  0.93827000000E+00  0.93827000000E+00 0.  1.
     999902    2    1    2    0    0  0.68967055063E-02 -0.97020091404E-02 -0.20018815040E-01  0.10206395195E+01  0.10203737463E+01 0.  0.
     999903    2    3    3    0    0  0.10638589472E+00  0.50417242796E-01 -0.56861055105E-01  0.13223095699E+00  0.19798722956E-01 0.  0.
         14    1    1    2    0    0 -0.68967055063E-02  0.97020091404E-02  0.20018815040E-01  0.23290480540E-01  0.00000000000E+00 0. -1.
     999901    1    3    3    0    0 -0.99489189216E-01 -0.60119251936E-01  0.36842240066E-01  0.88840856247E+00  0.88000000000E+00 0.  1.
        -11    1    4    4    0    0  0.41207614818E-01  0.29243327734E-01 -0.19404875318E-01  0.54129936662E-01  0.51100000000E-03 0.  1.
         11    1    4    4    0    0  0.65178279904E-01  0.21173915062E-01 -0.37456179787E-01  0.78101020324E-01  0.51100000000E-03 0. -1.
</event>
<event>
 8    1  0.1088270E+005  0.1043930E+01  0.7957747E-01            NaN
         13   -1    0    0    0    0  0.00000000000E+00  0.00000000000E+00  0.74505805969E-08  0.10566000000E+00  0.10566000000E+00 0.  1.
     999900   -1    0    0    0    0 -0.00000000000E+00 -0.00000000000E+00 -0.74505805969E-08  0.93827000000E+00  0.93827000000E+00 0. -1.
     999902    2    1    2    0    0 -0.15989588174E-02  0.12148943133E-01 -0.20103437769E-01  0.10203863873E+01  0.10201147375E+01 0.  0.
     999903    2    3    3    0    0  0.53542189974E-01  0.19993548532E-02 -0.11938253300E+00  0.13303082206E+00  0.23963449355E-01 0.  0.
         14    1    1    2    0    0  0.15989588174E-02 -0.12148943133E-01  0.20103437769E-01  0.23543612694E-01  0.00000000000E+00 0.  1.
     999901    1    3    3    0    0 -0.55141148791E-01  0.10149588279E-01  0.99279095227E-01  0.88735556525E+00  0.88000000000E+00 0.  1.
        -11    1    4    4    0    0  0.27074601559E-01  0.11616056806E-01 -0.73590731962E-01  0.79270573210E-01  0.51100000000E-03 0. -1.
         11    1    4    4    0    0  0.26467588415E-01 -0.96167019525E-02 -0.45791801034E-01  0.53760248845E-01  0.51100000000E-03 0.  1.
</event>
<event>
 8    1  0.1088270E+005  0.1043930E+01  0.7957747E-01            NaN
         13   -1    0    0    0    0  0.00000000000E+00  0.00000000000E+00  0.74505805969E-08  0.10566000000E+00  0.10566000000E+00 0. -1.
     999900   -1    0    0    0    0 -0.00000000000E+00 -0.00000000000E+00 -0.74505805969E-08  0.93827000000E+00  0.93827000000E+00 0. -1.
     999902    2    1    2    0    0  0.60267323608E-02  0.14959822151E-02 -0.22706252882E-01  0.10203899621E+01  0.10201183957E+01 0.  0.
     999903    2    3    3    0    0  0.11473674150E+00 -0.39572684996E-02  0.56388994507E-01  0.13016321444E+00  0.24136359887E-01 0.  0.
         14    1    1    2    0    0 -0.60267323608E-02 -0.14959822151E-02  0.22706252882E-01  0.23540037928E-01  0.00000000000E+00 0. -1.
     999901    1    3    3    0    0 -0.10871000914E+00  0.54532507147E-02 -0.79095247389E-01  0.89022674763E+00  0.88000000000E+00 0. -1.
        -11    1    4    4    0    0  0.14520034238E-01  0.57338077489E-02  0.20588973871E-02  0.15754622338E-01  0.51100000000E-03 0. -1.
         11    1    4    4    0    0  0.10021670726E+00 -0.96910762485E-02  0.54330097120E-01  0.11440859211E+00  0.51100000000E-03 0.  1.
</event>
<event>
 8    1  0.1088270E+005  0.1043930E+01  0.7957747E-01            NaN
         13   -1    0    0    0    0  0.00000000000E+00  0.00000000000E+00  0.74505805969E-08  0.10566000000E+00  0.10566000000E+00 0. -1.
     999900   -1    0    0    0    0 -0.00000000000E+00 -0.00000000000E+00 -0.74505805969E-08  0.93827000000E+00  0.93827000000E+00 0.  1.
     999902    2    1    2    0    0 -0.21579044913E-01 -0.17781799788E-02 -0.13414017851E-01  0.10184593703E+01  0.10181408232E+01 0.  0.
     999903    2    3    3    0    0 -0.39851093941E-01 -0.11145811035E-02  0.12022765640E+00  0.12818165786E+00  0.19659503279E-01 0.  0.
         14    1    1    2    0    0  0.21579044913E-01  0.17781799788E-02  0.13414017851E-01  0.25470629719E-01  0.00000000000E+00 0.  1.
     999901    1    3    3    0    0  0.18272049029E-01 -0.66359887530E-03 -0.13364167425E+00  0.89027771242E+00  0.88000000000E+00 0.  1.
        -11    1    4    4    0    0 -0.39937003182E-01 -0.32662525356E-02  0.98473495113E-01  0.10631520583E+00  0.51100000000E-03 0.  1.
         11    1    4    4    0    0  0.85909241118E-04  0.21516714321E-02  0.21754161285E-01  0.21866452034E-01  0.51100000000E-03 0. -1.
</event>
<event>
 8    1  0.1088270E+005  0.1043930E+01  0.7957747E-01            NaN
         13   -1    0    0    0    0  0.00000000000E+00  0.00000000000E+00  0.74505805969E-08  0.10566000000E+00  0.10566000000E+00 0. -1.
     999900   -1    0    0    0    0 -0.00000000000E+00 -0.00000000000E+00 -0.74505805969E-08  0.93827000000E+00  0.93827000000E+00 0.  1.
     999902    2    1    2    0    0  0.83407927086E-02 -0.19875100570E-01  0.93427142180E-02  0.10204379853E+01  0.10201675387E+01 0.  0.
     999903    2    3    3    0    0 -0.31616307611E-01 -0.21808458777E-01 -0.12223619694E+00  0.12975660703E+00  0.20491204068E-01 0.  0.
         14    1    1    2    0    0 -0.83407927086E-02  0.19875100570E-01 -0.93427142180E-02  0.23492014700E-01  0.00000000000E+00 0. -1.
     999901    1    3    3    0    0  0.39957100320E-01  0.19333582070E-02  0.13157891116E+00  0.89068137827E+00  0.88000000000E+00 0. -1.
        -11    1    4    4    0    0 -0.35012254742E-03 -0.47728250770E-02 -0.37990189432E-01  0.38293838396E-01  0.51100000000E-03 0. -1.
         11    1    4    4    0    0 -0.31266185064E-01 -0.17035633700E-01 -0.84246007507E-01  0.91462768632E-01  0.51100000000E-03 0.  1.
</event>
<event>
 8    1  0.1088270E+005  0.1043930E+01  0.7957747E-01            NaN
         13   -1    0    0    0    0  0.00000000000E+00  0.00000000000E+00  0.74505805969E-08  0.10566000000E+00  0.10566000000E+00 0. -1.
     999900   -1    0    0    0    0 -0.00000000000E+00 -0.00000000000E+00 -0.74505805969E-08  0.93827000000E+00  0.93827000000E+00 0.  1.
     999902    2    1    2    0    0 -0.52920317591E-02 -0.19387675914E-02  0.21519634329E-01  0.10216845717E+01  0.10214423649E+01 0.  0.
     999903    2    3    3    0    0 -0.93450016129E-01 -0.91274298288E-01 -0.74012048886E-02  0.13230890178E+00  0.19671416163E-01 0.  0.
         14    1    1    2    0    0  0.52920317591E-02  0.19387675914E-02 -0.21519634329E-01  0.22245428330E-01  0.00000000000E+00 0.  1.
     999901    1    3    3    0    0  0.88157984370E-01  0.89335530696E-01  0.28920839218E-01  0.88937566989E+00  0.88000000000E+00 0. -1.
        -11    1    4    4    0    0 -0.66760567685E-02 -0.13471673759E-01 -0.45878100068E-02  0.15727836772E-01  0.51100000000E-03 0. -1.
         11    1    4    4    0    0 -0.86773959360E-01 -0.77802624528E-01 -0.28133948818E-02  0.11658106501E+00  0.51100000000E-03 0.  1.
</event>
<event>
 8    1  0.1088270E+005  0.1043930E+01  0.7957747E-01            NaN
         13   -1    0    0    0    0  0.00000000000E+00  0.00000000000E+00  0.74505805969E-08  0.10566000000E+00  0.10566000000E+00 0.  1.
     999900   -1    0    0    0    0 -0.00000000000E+00 -0.00000000000E+00 -0.74505805969E-08  0.93827000000E+00  0.93827000000E+00 0.  1.
     999902    2    1    2    0    0  0.22671473994E-01 -0.40334205235E-02  0.45317378316E-02  0.10204608530E+01  0.10201909388E+01 0.  0.
     999903    2    3    3    0    0  0.11046957890E+00 -0.71452948253E-01  0.13421537537E-01  0.13348118665E+00  0.18111814976E-01 0.  0.
         14    1    1    2    0    0 -0.22671473994E-01  0.40334205235E-02 -0.45317378316E-02  0.23469147023E-01  0.00000000000E+00 0. -1.
     999901    1    3    3    0    0 -0.87798104909E-01  0.67419527730E-01 -0.88897997056E-02  0.88697966633E+00  0.88000000000E+00 0.  1.
        -11    1    4    4    0    0  0.93084344336E-01 -0.66189101853E-01  0.79124518454E-02  0.11449262151E+00  0.51100000000E-03 0. -1.
         11    1    4    4    0    0  0.17385234567E-01 -0.52638464004E-02  0.55090856918E-02  0.18988565139E-01  0.51100000000E-03 0.  1.
</event>
<event>
 8    1  0.1088270E+005  0.1043930E+01  0.7957747E-01            NaN
         13   -1    0    0    0    0  0.00000000000E+00  0.00000000000E+00  0.74505805969E-08  0.10566000000E+00  0.10566000000E+00 0. -1.
     999900   -1    0    0    0    0 -0.00000000000E+00 -0.00000000000E+00 -0.74505805969E-08  0.93827000000E+00  0.93827000000E+00 0. -1.
     999902    2    1    2    0    0 -0.15758912627E-01  0.54012420895E-02 -0.17055901707E-01  0.10200884286E+01  0.10198097772E+01 0.  0.
     999903    2    3    3    0    0 -0.42040159110E-01  0.29682550023E-01  0.11682568769E+00  0.12924356792E+00  0.20179935361E-01 0.  0.
         14    1    1    2    0    0  0.15758912627E-01 -0.54012420895E-02  0.17055901707E-01  0.23841571389E-01  0.00000000000E+00 0. -1.
     999901    1    3    3    0    0  0.26281246483E-01 -0.24281307934E-01 -0.13388158940E+00  0.89084486069E+00  0.88000000000E+00 0. -1.
        -11    1    4    4    0    0 -0.33252833245E-01  0.15315189188E-01  0.63274949238E-01  0.73104625440E-01  0.51100000000E-03 0. -1.
         11    1    4    4    0    0 -0.87873258641E-02  0.14367360835E-01  0.53550738454E-01  0.56138942484E-01  0.51100000000E-03 0.  1.
</event>
<event>
 8    1  0.1088270E+005  0.1043930E+01  0.7957747E-01            NaN
         13   -1    0    0    0    0  0.00000000000E+00  0.00000000000E+00  0.74505805969E-08  0.10566000000E+00  0.10566000000E+00 0. -1.
     999900   -1    0    0    0    0 -0.00000000000E+00 -0.00000000000E+00 -0.74505805969E-08  0.93827000000E+00  0.93827000000E+00 0. -1.
     999902    2    1    2    0    0  0.52553276994E-02  0.12811876968E-01 -0.19913831454E-01  0.10196746224E+01  0.10193860957E+01 0.  0.
     999903    2    3    3    0    0  0.12051658561E+00  0.16044181983E-01  0.41664411454E-01  0.13001879826E+00  0.19679978107E-01 0.  0.
         14    1    1    2    0    0 -0.52553276994E-02 -0.12811876968E-01  0.19913831454E-01  0.24255377627E-01  0.00000000000E+00 0. -1.
     999901    1    3    3    0    0 -0.11526125791E+00 -0.32323050151E-02 -0.61578242907E-01  0.88965582411E+00  0.88000000000E+00 0. -1.
        -11    1    4    4    0    0  0.35535652100E-01  0.26646694248E-02  0.32009035058E-02  0.35782536768E-01  0.51100000000E-03 0.  1.
         11    1    4    4    0    0  0.84980933508E-01  0.13379512558E-01  0.38463507948E-01  0.94236261497E-01  0.51100000000E-03 0. -1.
</event>
<event>
 8    1  0.1088270E+005  0.1043930E+01  0.7957747E-01            NaN
         13   -1    0    0    0    0  0.00000000000E+00  0.00000000000E+00  0.74505805969E-08  0.10566000000E+00  0.10566000000E+00 0. -1.
     999900   -1    0    0    0    0 -0.00000000000E+00 -0.00000000000E+00 -0.74505805969E-08  0.93827000000E+00  0.93827000000E+00 0.  1.
     999902    2    1    2    0    0 -0.13283242076E-01 -0.19587957068E-01  0.36434368468E-02  0.10199840773E+01  0.10197029522E+01 0.  0.
     999903    2    3    3    0    0 -0.71809927925E-01 -0.92194904139E-01  0.60663406297E-01  0.13322118980E+00  0.20279804014E-01 0.  0.
         14    1    1    2    0    0  0.13283242076E-01  0.19587957068E-01 -0.36434368468E-02  0.23945922705E-01  0.00000000000E+00 0.  1.
     999901    1    3    3    0    0  0.58526685848E-01  0.72606947071E-01 -0.57019969450E-01  0.88676288749E+00  0.88000000000E+00 0. -1.
        -11    1    4    4    0    0 -0.25612260506E-02 -0.10049117941E-01  0.12803998794E-02  0.10461605762E-01  0.51100000000E-03 0. -1.
         11    1    4    4    0    0 -0.69248701874E-01 -0.82145786198E-01  0.59383006417E-01  0.12275958404E+00  0.51100000000E-03 0.  1.
</event>
<event>
 8    1  0.1088270E+005  0.1043930E+01  0.7957747E-01            NaN
         13   -1    0    0    0    0  0.00000000000E+00  0.00000000000E+00  0.74505805969E-08  0.10566000000E+00  0.10566000000E+00 0.  1.
     999900   -1    0    0    0    0 -0.00000000000E+00 -0.00000000000E+00 -0.74505805969E-08  0.93827000000E+00  0.93827000000E+00 0.  1.
     999902    2    1    2    0    0 -0.18871332870E-01  0.32726779219E-03  0.17449206501E-02  0.10249753421E+01  0.10248000648E+01 0.  0.
     999903    2    3    3    0    0 -0.12871991884E+00  0.33673408164E-01  0.26448530417E-01  0.13717528281E+00  0.20367069737E-01 0.  0.
         14    1    1    2    0    0  0.18871332870E-01 -0.32726779219E-03 -0.17449206501E-02  0.18954657913E-01  0.00000000000E+00 0. -1.
     999901    1    3    3    0    0  0.10984858597E+00 -0.33346140372E-01 -0.24703609766E-01  0.88780005928E+00  0.88000000000E+00 0. -1.
        -11    1    4    4    0    0 -0.10582544901E+00  0.20140429824E-01  0.17680131942E-01  0.10916735207E+00  0.51100000000E-03 0. -1.
         11    1    4    4    0    0 -0.22894469828E-01  0.13532978341E-01  0.87683984743E-02  0.28007930739E-01  0.51100000000E-03 0.  1.
</event>
<event>
 8    1  0.1088270E+005  0.1043930E+01  0.7957747E-01            NaN
         13   -1    0    0    0    0  0.00000000000E+00  0.00000000000E+00  0.74505805969E-08  0.10566000000E+00  0.10566000000E+00 0.  1.
     999900   -1    0    0    0    0 -0.00000000000E+00 -0.00000000000E+00 -0.74505805969E-08  0.93827000000E+00  0.93827000000E+00 0. -1.
     999902    2    1    2    0    0 -0.16255187284E-01  0.16837912873E-01 -0.12910445095E-01  0.10172012511E+01  0.10168500181E+01 0.  0.
     999903    2    3    3    0    0 -0.86329764370E-02  0.40349892469E-01 -0.12177295087E+00  0.13014885333E+00  0.20184904161E-01 0.  0.
         14    1    1    2    0    0  0.16255187284E-01 -0.16837912873E-01  0.12910445095E-01  0.26728748869E-01  0.00000000000E+00 0.  1.
     999901    1    3    3    0    0 -0.76222108469E-02 -0.23511979596E-01  0.10886250577E+00  0.88705239780E+00  0.88000000000E+00 0.  1.
        -11    1    4    4    0    0  0.36398245437E-02  0.47507372506E-03 -0.16453084621E-01  0.16865323368E-01  0.51100000000E-03 0.  1.
         11    1    4    4    0    0 -0.12272800981E-01  0.39874818744E-01 -0.10531986625E+00  0.11328352996E+00  0.51100000000E-03 0. -1.
</event>
<event>
 8    1  0.1088270E+005  0.1043930E+01  0.7957747E-01            NaN
         13   -1    0    0    0    0  0.00000000000E+00  0.00000000000E+00  0.74505805969E-08  0.10566000000E+00  0.10566000000E+00 0. -1.
     999900   -1    0    0    0    0 -0.00000000000E+00 -0.00000000000E+00 -0.74505805969E-08  0.93827000000E+00  0.93827000000E+00 0.  1.
     999902    2    1    2    0    0  0.72068107015E-02  0.58833274676E-03  0.22060481804E-01  0.10207147224E+01  0.10204506825E+01 0.  0.
     999903    2    3    3    0    0 -0.10815211194E+00  0.69819596288E-01  0.14410907158E-02  0.13025090610E+00  0.19788038167E-01 0.  0.
         14    1    1    2    0    0 -0.72068107015E-02 -0.58833274676E-03 -0.22060481804E-01  0.23215277585E-01  0.00000000000E+00 0.  1.
     999901    1    3    3    0    0  0.11535892264E+00 -0.69231263542E-01  0.20619391088E-01  0.89046381632E+00  0.88000000000E+00 0. -1.
        -11    1    4    4    0    0 -0.71400541698E-01  0.51034302410E-01 -0.72635198109E-02  0.88065641531E-01  0.51100000000E-03 0.  1.
         11    1    4    4    0    0 -0.36751570239E-01  0.18785293878E-01  0.87046105266E-02  0.42185264566E-01  0.51100000000E-03 0. -1.
</event>
<event>
 8    1  0.1088270E+005  0.1043930E+01  0.7957747E-01            NaN
         13   -1    0    0    0    0  0.00000000000E+00  0.00000000000E+00  0.74505805969E-08  0.10566000000E+00  0.10566000000E+00 0. -1.
     999900   -1    0    0    0    0 -0.00000000000E+00 -0.00000000000E+00 -0.74505805969E-08  0.93827000000E+00  0.93827000000E+00 0. -1.
     999902    2    1    2    0    0  0.18455828287E-01  0.12495496680E-01  0.72687716679E-02  0.10204866624E+01  0.10202173485E+01 0.  0.
     999903    2    3    3    0    0 -0.12365903954E+00 -0.26475213042E-01 -0.48959736966E-02  0.12815077673E+00  0.20153313705E-01 0.  0.
         14    1    1    2    0    0 -0.18455828287E-01 -0.12495496680E-01 -0.72687716679E-02  0.23443337574E-01  0.00000000000E+00 0. -1.
     999901    1    3    3    0    0  0.14211486782E+00  0.38970709722E-01  0.12164745365E-01  0.89233588570E+00  0.88000000000E+00 0. -1.
        -11    1    4    4    0    0 -0.25433985817E-01  0.13879513346E-02 -0.54224659554E-02  0.26047616043E-01  0.51100000000E-03 0.  1.
         11    1    4    4    0    0 -0.98225053719E-01 -0.27863164377E-01  0.52649225880E-03  0.10210316069E+00  0.51100000000E-03 0. -1.
</event>
<event>
 8    1  0.1088270E+005  0.1043930E+01  0.7957747E-01            NaN
         13   -1    0    0    0    0  0.00000000000E+00  0.00000000000E+00  0.74505805969E-08  0.10566000000E+00  0.10566000000E+00 0.  1.
     999900   -1    0    0    0    0 -0.00000000000E+00 -0.00000000000E+00 -0.74505805969E-08  0.93827000000E+00  0.93827000000E+00 0.  1.
     999902    2    1    2    0    0 -0.11539811903E-01 -0.36214838709E-02  0.20516502185E-01  0.10201138444E+01  0.10198357938E+01 0.  0.
     999903    2    3    3    0    0 -0.89476110950E-01 -0.11014768316E-01 -0.90953465857E-01  0.12963404054E+00  0.20128387006E-01 0.  0.
         14    1    1    2    0    0  0.11539811903E-01  0.36214838709E-02 -0.20516502185E-01  0.23816155569E-01  0.00000000000E+00 0. -1.
     999901    1    3    3    0    0  0.77936299047E-01  0.73932844455E-02  0.11146996804E+00  0.89047980389E+00  0.88000000000E+00 0. -1.
        -11    1    4    4    0    0 -0.78268745945E-01 -0.11281328988E-01 -0.87393543691E-01  0.11786075503E+00  0.51100000000E-03 0.  1.
         11    1    4    4    0    0 -0.11207365005E-01  0.26656067129E-03 -0.35599221655E-02  0.11773285513E-01  0.51100000000E-03 0. -1.
</event>
<event>
 8    1  0.1088270E+005  0.1043930E+01  0.7957747E-01            NaN
         13   -1    0    0    0    0  0.00000000000E+00  0.00000000000E+00  0.74505805969E-08  0.10566000000E+00  0.10566000000E+00 0. -1.
     999900   -1    0    0    0    0 -0.00000000000E+00 -0.00000000000E+00 -0.74505805969E-08  0.93827000000E+00  0.93827000000E+00 0. -1.
     999902    2    1    2    0    0  0.15468517746E-01 -0.75055133787E-02  0.14822835926E-01  0.10212292459E+01  0.10209769089E+01 0.  0.
     999903    2    3    3    0    0  0.27066967690E-01 -0.75982303131E-01 -0.10112434030E+00  0.13091057123E+00  0.20137386339E-01 0.  0.
         14    1    1    2    0    0 -0.15468517746E-01  0.75055133787E-02 -0.14822835926E-01  0.22700754112E-01  0.00000000000E+00 0.  1.
     999901    1    3    3    0    0 -0.11598449944E-01  0.68476789752E-01  0.11594717623E+00  0.89031867466E+00  0.88000000000E+00 0.  1.
        -11    1    4    4    0    0  0.19965784565E-01 -0.31263550335E-01 -0.54386604150E-01  0.65834686638E-01  0.51100000000E-03 0.  1.
         11    1    4    4    0    0  0.71011831252E-02 -0.44718752796E-01 -0.46737736151E-01  0.65075884589E-01  0.51100000000E-03 0. -1.
</event>
<event>
 8    1  0.1088270E+005  0.1043930E+01  0.7957747E-01            NaN
         13   -1    0    0    0    0  0.00000000000E+00  0.00000000000E+00  0.74505805969E-08  0.10566000000E+00  0.10566000000E+00 0.  1.
     999900   -1    0    0    0    0 -0.00000000000E+00 -0.00000000000E+00 -0.74505805969E-08  0.93827000000E+00  0.93827000000E+00 0. -1.
     999902    2    1    2    0    0 -0.16689372490E-01 -0.11571925918E-01 -0.13183649631E-01  0.10197173330E+01  0.10194298338E+01 0.  0.
     999903    2    3    3    0    0  0.21470630993E-01 -0.12791225875E+00  0.10928031913E-02  0.13112570805E+00  0.19241183914E-01 0.  0.
         14    1    1    2    0    0  0.16689372490E-01  0.11571925918E-01  0.13183649631E-01  0.24212666956E-01  0.00000000000E+00 0.  1.
     999901    1    3    3    0    0 -0.38160003483E-01  0.11634033283E+00 -0.14276452822E-01  0.88859162500E+00  0.88000000000E+00 0. -1.
        -11    1    4    4    0    0  0.57099219699E-02 -0.26904410636E-01 -0.75614767075E-02  0.28528714860E-01  0.51100000000E-03 0. -1.
         11    1    4    4    0    0  0.15760709023E-01 -0.10100784811E+00  0.86542798989E-02  0.10259699319E+00  0.51100000000E-03 0.  1.
</event>
<event>
 8    1  0.1088270E+005  0.1043930E+01  0.7957747E-01            NaN
         13   -1    0    0    0    0  0.00000000000E+00  0.00000000000E+00  0.74505805969E-08  0.10566000000E+00  0.10566000000E+00 0.  1.
     999900   -1    0    0    0    0 -0.00000000000E+00 -0.00000000000E+00 -0.74505805969E-08  0.93827000000E+00  0.93827000000E+00 0.  1.
     999902    2    1    2    0    0 -0.23498908497E-01 -0.43702623694E-02 -0.86076722727E-03  0.10200126671E+01  0.10197322208E+01 0.  0.
     999903    2    3    3    0    0  0.11894891028E+00  0.13780742999E-01  0.38586309199E-01  0.12750109186E+00  0.20709249963E-01 0.  0.
         14    1    1    2    0    0  0.23498908497E-01  0.43702623694E-02  0.86076722727E-03  0.23917332919E-01  0.00000000000E+00 0. -1.
     999901    1    3    3    0    0 -0.14244781877E+00 -0.18151005368E-01 -0.39447076426E-01  0.89251157522E+00  0.88000000000E+00 0.  1.
        -11    1    4    4    0    0  0.77780975170E-02  0.64346976500E-02  0.32199921936E-02  0.10608185781E-01  0.51100000000E-03 0.  1.
         11    1    4    4    0    0  0.11117081276E+00  0.73460453487E-02  0.35366317005E-01  0.11689290608E+00  0.51100000000E-03 0. -1.
</event>
<event>
 8    1  0.1088270E+005  0.1043930E+01  0.7957747E-01            NaN
         13   -1    0    0    0    0  0.00000000000E+00  0.00000000000E+00  0.74505805969E-08  0.10566000000E+00  0.10566000000E+00 0. -1.
     999900   -1    0    0    0    0 -0.00000000000E+00 -0.00000000000E+00 -0.74505805969E-08  0.93827000000E+00  0.93827000000E+00 0.  1.
     999902    2    1    2    0    0 -0.82656808372E-02  0.10313880067E-01 -0.17805349152E-01  0.10217550578E+01  0.10215144004E+01 0.  0.
     999903    2    3    3    0    0  0.97251966340E-01 -0.18275771799E-01  0.81242631409E-01  0.12947604064E+00  0.19280330674E-01 0.  0.
         14    1    1    2    0    0  0.82656808372E-02 -0.10313880067E-01  0.17805349152E-01  0.22174942168E-01  0.00000000000E+00 0. -1.
     999901    1    3    3    0    0 -0.10551764718E+00  0.28589651866E-01 -0.99047980561E-01  0.89227901719E+00  0.88000000000E+00 0.  1.
        -11    1    4    4    0    0  0.32453895979E-01 -0.40933117129E-02  0.15938594210E-01  0.36391076810E-01  0.51100000000E-03 0.  1.
         11    1    4    4    0    0  0.64798070360E-01 -0.14182460086E-01  0.65304037199E-01  0.93084963834E-01  0.51100000000E-03 0. -1.
</event>
<event>
 8    1  0.1088270E+005  0.1043930E+01  0.7957747E-01            NaN
         13   -1    0    0    0    0  0.00000000000E+00  0.00000000000E+00  0.74505805969E-08  0.10566000000E+00  0.10566000000E+00 0. -1.
     999900   -1    0    0    0    0 -0.00000000000E+00 -0.00000000000E+00 -0.74505805969E-08  0.93827000000E+00  0.93827000000E+00 0.  1.
     999902    2    1    2    0    0 -0.17883141213E-01 -0.11781240050E-01  0.10134238547E-01  0.10202380784E+01  0.10199629550E+01 0.  0.
     999903    2    3    3    0    0  0.75230401696E-01 -0.99093199590E-01  0.34651112770E-01  0.13069067257E+00  0.20006917205E-01 0.  0.
         14    1    1    2    0    0  0.17883141213E-01  0.11781240050E-01 -0.10134238547E-01  0.23691921570E-01  0.00000000000E+00 0.  1.
     999901    1    3    3    0    0 -0.93113542909E-01  0.87311959540E-01 -0.24516874223E-01  0.88954740586E+00  0.88000000000E+00 0. -1.
        -11    1    4    4    0    0  0.21567126906E-01 -0.33560852418E-01  0.21093796968E-02  0.39952251272E-01  0.51100000000E-03 0. -1.
         11    1    4    4    0    0  0.53663274790E-01 -0.65532347171E-01  0.32541733073E-01  0.90738421297E-01  0.51100000000E-03 0.  1.
</event>
<event>
 8    1  0.1088270E+005  0.1043930E+01  0.7957747E-01            NaN
         13   -1    0    0    0    0  0.00000000000E+00  0.00000000000E+00  0.74505805969E-08  0.10566000000E+00  0.10566000000E+00 0. -1.
     999900   -1    0    0    0    0 -0.00000000000E+00 -0.00000000000E+00 -0.74505805969E-08  0.93827000000E+00  0.93827000000E+00 0. -1.
     999902    2    1    2    0    0  0.30860958072E-02 -0.21277084332E-02 -0.22919676979E-01  0.10207058160E+01  0.10204415711E+01 0.  0.
     999903    2    3    3    0    0  0.58840563002E-01  0.64638975079E-01  0.92602043426E-01  0.12890336110E+00  0.20013223219E-01 0.  0.
         14    1    1    2    0    0 -0.30860958072E-02  0.21277084332E-02  0.22919676979E-01  0.23224184019E-01  0.00000000000E+00 0. -1.
     999901    1    3    3    0    0 -0.55754467195E-01 -0.66766683512E-01 -0.11552172041E+00  0.89180245488E+00  0.88000000000E+00 0. -1.
        -11    1    4    4    0    0  0.48017605667E-01  0.39421230781E-01  0.61445799978E-01  0.87381756370E-01  0.51100000000E-03 0.  1.
         11    1    4    4    0    0  0.10822957335E-01  0.25217744297E-01  0.31156243448E-01  0.41521604735E-01  0.51100000000E-03 0. -1.
</event>
<event>
 8    1  0.1088270E+005  0.1043930E+01  0.7957747E-01            NaN
         13   -1    0    0    0    0  0.00000000000E+00  0.00000000000E+00  0.74505805969E-08  0.10566000000E+00  0.10566000000E+00 0. -1.
     999900   -1    0    0    0    0 -0.00000000000E+00 -0.00000000000E+00 -0.74505805969E-08  0.93827000000E+00  0.93827000000E+00 0. -1.
     999902    2    1    2    0    0  0.15171094841E-02 -0.19216921610E-01  0.14169414156E-01  0.10200058700E+01  0.10197252625E+01 0.  0.
     999903    2    3    3    0    0 -0.61538246967E-01 -0.80638409450E-01 -0.79967180790E-01  0.13061828542E+00  0.19413334705E-01 0.  0.
         14    1    1    2    0    0 -0.15171094841E-02  0.19216921610E-01 -0.14169414156E-01  0.23924129971E-01  0.00000000000E+00 0. -1.
     999901    1    3    3    0    0  0.63055356452E-01  0.61421487840E-01  0.94136594946E-01  0.88938758461E+00  0.88000000000E+00 0.  1.
        -11    1    4    4    0    0 -0.51667361524E-01 -0.54240685079E-01 -0.61464849842E-01  0.96900758778E-01  0.51100000000E-03 0. -1.
         11    1    4    4    0    0 -0.98708854439E-02 -0.26397724372E-01 -0.18502330949E-01  0.33717526644E-01  0.51100000000E-03 0.  1.
</event>
<event>
 8    1  0.1088270E+005  0.1043930E+01  0.7957747E-01            NaN
         13   -1    0    0    0    0  0.00000000000E+00  0.00000000000E+00  0.74505805969E-08  0.10566000000E+00  0.10566000000E+00 0.  1.
     999900   -1    0    0    0    0 -0.00000000000E+00 -0.00000000000E+00 -0.74505805969E-08  0.93827000000E+00  0.93827000000E+00 0.  1.
     999902    2    1    2    0    0 -0.15541592390E-01  0.70481222297E-03 -0.18080247341E-01  0.10200776794E+01  0.10197987737E+01 0.  0.
     999903    2    3    3    0    0 -0.11265329021E+00  0.20299097280E-01  0.60665187235E-01  0.13102455313E+00  0.19604882951E-01 0.  0.
         14    1    1    2    0    0  0.15541592390E-01 -0.70481222297E-03  0.18080247341E-01  0.23852320604E-01  0.00000000000E+00 0.  1.
     999901    1    3    3    0    0  0.97111697815E-01 -0.19594285057E-01 -0.78745434576E-01  0.88905312627E+00  0.88000000000E+00 0.  1.
        -11    1    4    4    0    0 -0.24866471344E-01 -0.23882288718E-02  0.83617937249E-02  0.26348164064E-01  0.51100000000E-03 0. -1.
         11    1    4    4    0    0 -0.87786818862E-01  0.22687326152E-01  0.52303393510E-01  0.10467638906E+00  0.51100000000E-03 0.  1.
</event>
<event>
 8    1  0.1088270E+005  0.1043930E+01  0.7957747E-01            NaN
         13   -1    0    0    0    0  0.00000000000E+00  0.00000000000E+00  0.74505805969E-08  0.10566000000E+00  0.10566000000E+00 0. -1.
     999900   -1    0    0    0    0 -0.00000000000E+00 -0.00000000000E+00 -0.74505805969E-08  0.93827000000E+00  0.93827000000E+00 0.  1.
     999902    2    1    2    0    0 -0.36802888214E-02  0.12650373604E-01 -0.20558100068E-01  0.10195125481E+01  0.10192201057E+01 0.  0.
     999903    2    3    3    0    0  0.15384476472E-02 -0.69664703227E-01  0.10402697069E+00  0.12691832511E+00  0.20763258924E-01 0.  0.
         14    1    1    2    0    0  0.36802888214E-02 -0.12650373604E-01  0.20558100068E-01  0.24417451885E-01  0.00000000000E+00 0. -1.
     999901    1    3    3    0    0 -0.52187364686E-02  0.82315076831E-01 -0.12458507076E+00  0.89259422300E+00  0.88000000000E+00 0.  1.
        -11    1    4    4    0    0  0.90336690303E-02 -0.17990142227E-01  0.23562007008E-01  0.30994865522E-01  0.51100000000E-03 0.  1.
         11    1    4    4    0    0 -0.74952213831E-02 -0.51674561000E-01  0.80464963682E-01  0.95923459589E-01  0.51100000000E-03 0. -1.
</event>
<event>
 8    1  0.1088270E+005  0.1043930E+01  0.7957747E-01            NaN
         13   -1    0    0    0    0  0.00000000000E+00  0.00000000000E+00  0.74505805969E-08  0.10566000000E+00  0.10566000000E+00 0.  1.
     999900   -1    0    0    0    0 -0.00000000000E+00 -0.00000000000E+00 -0.74505805969E-08  0.93827000000E+00  0.93827000000E+00 0.  1.
     999902    2    1    2    0    0 -0.17625220272E-01 -0.44962061089E-02  0.14167597156E-01  0.10208738714E+01  0.10206134803E+01 0.  0.
     999903    2    3    3    0    0  0.78253425379E-01  0.56239324698E-01 -0.82463788399E-01  0.12833863728E+00  0.19597683407E-01 0.  0.
         14    1    1    2    0    0  0.17625220272E-01  0.44962061089E-02 -0.14167597156E-01  0.23056128647E-01  0.00000000000E+00 0. -1.
     999901    1    3    3    0    0 -0.95878645650E-01 -0.60735530807E-01  0.96631385555E-01  0.89253523408E+00  0.88000000000E+00 0. -1.
        -11    1    4    4    0    0  0.68091158252E-01  0.54519802987E-01 -0.78277098731E-01  0.11720230397E+00  0.51100000000E-03 0.  1.
         11    1    4    4    0    0  0.10162267127E-01  0.17195217109E-02 -0.41866896676E-02  0.11136333303E-01  0.51100000000E-03 0. -1.
</event>
<event>
 8    1  0.1088270E+005  0.1043930E+01  0.7957747E-01            NaN
         13   -1    0    0    0    0  0.00000000000E+00  0.00000000000E+00  0.74505805969E-08  0.10566000000E+00  0.10566000000E+00 0. -1.
     999900   -1    0    0    0    0 -0.00000000000E+00 -0.00000000000E+00 -0.74505805969E-08  0.93827000000E+00  0.93827000000E+00 0.  1.
     999902    2    1    2    0    0  0.10666555010E-01  0.16232064562E-01 -0.11093455165E-01  0.10215621645E+01  0.10213172553E+01 0.  0.
     999903    2    3    3    0    0  0.79517302993E-01 -0.10022492362E+00  0.20162224263E-01  0.13067520589E+00  0.17362527407E-01 0.  0.
         14    1    1    2    0    0 -0.10666555010E-01 -0.16232064562E-01  0.11093455165E-01  0.22367835462E-01  0.00000000000E+00 0. -1.
     999901    1    3    3    0    0 -0.68850747982E-01  0.11645698818E+00 -0.31255679427E-01  0.89088695865E+00  0.88000000000E+00 0.  1.
        -11    1    4    4    0    0  0.36755364681E-01 -0.33620550999E-01  0.10791845709E-01  0.50970808676E-01  0.51100000000E-03 0.  1.
         11    1    4    4    0    0  0.42761938312E-01 -0.66604372617E-01  0.93703785535E-02  0.79704397214E-01  0.51100000000E-03 0. -1.
</event>
<event>
 8    1  0.1088270E+005  0.1043930E+01  0.7957747E-01            NaN
         13   -1    0    0    0    0  0.00000000000E+00  0.00000000000E+00  0.74505805969E-08  0.10566000000E+00  0.10566000000E+00 0.  1.
     999900   -1    0    0    0    0 -0.00000000000E+00 -0.00000000000E+00 -0.74505805969E-08  0.93827000000E+00  0.93827000000E+00 0. -1.
     999902    2    1    2    0    0 -0.16066002288E-01  0.93364069552E-03 -0.18476093649E-01  0.10194278746E+01  0.10191333756E+01 0.  0.
     999903    2    3    3    0    0 -0.45298413575E-01  0.45385087801E-01 -0.11447096300E+00  0.13261026087E+00  0.19238696672E-01 0.  0.
         14    1    1    2    0    0  0.16066002288E-01 -0.93364069552E-03  0.18476093649E-01  0.24502125438E-01  0.00000000000E+00 0.  1.
     999901    1    3    3    0    0  0.29232411287E-01 -0.44451447105E-01  0.95994869351E-01  0.88681761370E+00  0.88000000000E+00 0.  1.
        -11    1    4    4    0    0 -0.37588897247E-01  0.30124640688E-01 -0.70104547101E-01  0.85060730176E-01  0.51100000000E-03 0.  1.
         11    1    4    4    0    0 -0.77095163275E-02  0.15260447113E-01 -0.44366415899E-01  0.47549530690E-01  0.51100000000E-03 0. -1.
</event>
<event>
 8    1  0.1088270E+005  0.1043930E+01  0.7957747E-01            NaN
         13   -1    0    0    0    0  0.00000000000E+00  0.00000000000E+00  0.74505805969E-08  0.10566000000E+00  0.10566000000E+00 0. -1.
     999900   -1    0    0    0    0 -0.00000000000E+00 -0.00000000000E+00 -0.74505805969E-08  0.93827000000E+00  0.93827000000E+00 0. -1.
     999902    2    1    2    0    0  0.10258074752E-02 -0.12984171666E-01  0.20379714072E-01  0.10197437696E+01  0.10194569054E+01 0.  0.
     999903    2    3    3    0    0  0.12672888732E-01 -0.49556883927E-01 -0.11607284914E+00  0.12840067080E+00  0.19933366539E-01 0.  0.
         14    1    1    2    0    0 -0.10258074752E-02  0.12984171666E-01 -0.20379714072E-01  0.24186230390E-01  0.00000000000E+00 0.  1.
     999901    1    3    3    0    0 -0.11647081257E-01  0.36572712261E-01  0.13645256321E+00  0.89134309881E+00  0.88000000000E+00 0.  1.
        -11    1    4    4    0    0 -0.18967582596E-02 -0.44212207894E-02 -0.27547423339E-01  0.27969028206E-01  0.51100000000E-03 0.  1.
         11    1    4    4    0    0  0.14569646991E-01 -0.45135663138E-01 -0.88525425801E-01  0.10043164260E+00  0.51100000000E-03 0. -1.
</event>
<event>
 8    1  0.1088270E+005  0.1043930E+01  0.7957747E-01            NaN
         13   -1    0    0    0    0  0.00000000000E+00  0.00000000000E+00  0.74505805969E-08  0.10566000000E+00  0.10566000000E+00 0.  1.
     999900   -1    0    0    0    0 -0.00000000000E+00 -0.00000000000E+00 -0.74505805969E-08  0.93827000000E+00  0.93827000000E+00 0.  1.
     999902    2    1    2    0    0  0.89535509491E-02  0.19476036274E-01 -0.84681232900E-02  0.10208824150E+01  0.10206222191E+01 0.  0.
     999903    2    3    3    0    0  0.10666315219E+00 -0.39778594444E-01 -0.63441980637E-01  0.13179276683E+00  0.19623553972E-01 0.  0.
         14    1    1    2    0    0 -0.89535509491E-02 -0.19476036274E-01  0.84681232900E-02  0.23047585027E-01  0.00000000000E+00 0. -1.
     999901    1    3    3    0    0 -0.97709601245E-01  0.59254630718E-01  0.54973857347E-01  0.88908964814E+00  0.88000000000E+00 0.  1.
        -11    1    4    4    0    0  0.69602129649E-01 -0.29835157623E-01 -0.51579925940E-01  0.91626104157E-01  0.51100000000E-03 0.  1.
         11    1    4    4    0    0  0.37061022545E-01 -0.99434368211E-02 -0.11862054698E-01  0.40166662676E-01  0.51100000000E-03 0. -1.
</event>
<event>
 8    1  0.1088270E+005  0.1043930E+01  0.7957747E-01            NaN
         13   -1    0    0    0    0  0.00000000000E+00  0.00000000000E+00  0.74505805969E-08  0.10566000000E+00  0.10566000000E+00 0. -1.
     999900   -1    0    0    0    0 -0.00000000000E+00 -0.00000000000E+00 -0.74505805969E-08  0.93827000000E+00  0.93827000000E+00 0. -1.
     999902    2    1    2    0    0 -0.15062952560E-01 -0.49060313519E-02  0.17821668983E-01  0.10200852193E+01  0.10198064919E+01 0.  0.
     999903    2    3    3    0    0  0.61673960592E-01  0.97412588384E-01 -0.51766518050E-01  0.12812099937E+00  0.21031602342E-01 0.  0.
         14    1    1    2    0    0  0.15062952560E-01  0.49060313519E-02 -0.17821668983E-01  0.23844780745E-01  0.00000000000E+00 0.  1.
     999901    1    3    3    0    0 -0.76736913152E-01 -0.10231861974E+00  0.69588187033E-01  0.89196421989E+00  0.88000000000E+00 0.  1.
        -11    1    4    4    0    0  0.50249026506E-01  0.65969483938E-01 -0.29916825368E-01  0.88160166952E-01  0.51100000000E-03 0.  1.
         11    1    4    4    0    0  0.11424934086E-01  0.31443104446E-01 -0.21849692681E-01  0.39960832415E-01  0.51100000000E-03 0. -1.
</event>
<event>
 8    1  0.1088270E+005  0.1043930E+01  0.7957747E-01            NaN
         13   -1    0    0    0    0  0.00000000000E+00  0.00000000000E+00  0.74505805969E-08  0.10566000000E+00  0.10566000000E+00 0. -1.
     999900   -1    0    0    0    0 -0.00000000000E+00 -0.00000000000E+00 -0.74505805969E-08  0.93827000000E+00  0.93827000000E+00 0. -1.
     999902    2    1    2    0    0 -0.95025310150E-02  0.17682239601E-01 -0.76634227694E-02  0.10224430798E+01  0.10222172781E+01 0.  0.
     999903    2    3    3    0    0  0.74617678678E-01  0.53978546098E-01  0.92794331200E-01  0.13200195768E+00  0.18227658099E-01 0.  0.
         14    1    1    2    0    0  0.95025310150E-02 -0.17682239601E-01  0.76634227694E-02  0.21486920243E-01  0.00000000000E+00 0.  1.
     999901    1    3    3    0    0 -0.84120209693E-01 -0.36296306497E-01 -0.10045775397E+00  0.89044112207E+00  0.88000000000E+00 0. -1.
        -11    1    4    4    0    0  0.61306929735E-02  0.15529321053E-02  0.17330405907E-02  0.65773509218E-02  0.51100000000E-03 0. -1.
         11    1    4    4    0    0  0.68486985704E-01  0.52425613992E-01  0.91061290609E-01  0.12542460676E+00  0.51100000000E-03 0.  1.
</event>
<event>
 8    1  0.1088270E+005  0.1043930E+01  0.7957747E-01            NaN
         13   -1    0    0    0    0  0.00000000000E+00  0.00000000000E+00  0.74505805969E-08  0.10566000000E+00  0.10566000000E+00 0.  1.
     999900   -1    0    0    0    0 -0.00000000000E+00 -0.00000000000E+00 -0.74505805969E-08  0.93827000000E+00  0.93827000000E+00 0.  1.
     999902    2    1    2    0    0 -0.14662730341E-01  0.21231241358E-02 -0.17373791290E-01  0.10210968675E+01  0.10208415454E+01 0.  0.
     999903    2    3    3    0    0  0.39678392321E-01  0.94174281993E-01  0.77188460889E-01  0.12959903079E+00  0.19866556860E-01 0.  0.
         14    1    1    2    0    0  0.14662730341E-01 -0.21231241358E-02  0.17373791290E-01  0.22833132525E-01  0.00000000000E+00 0.  1.
     999901    1    3    3    0    0 -0.54341122661E-01 -0.92051157857E-01 -0.94562252179E-01  0.89149783668E+00  0.88000000000E+00 0.  1.
        -11    1    4    4    0    0  0.12752219278E-01  0.40164462547E-01  0.43124829745E-01  0.60297721431E-01  0.51100000000E-03 0. -1.
         11    1    4    4    0    0  0.26926173043E-01  0.54009819446E-01  0.34063631144E-01  0.69301309360E-01  0.51100000000E-03 0.  1.
</event>
<event>
 8    1  0.1088270E+005  0.1043930E+01  0.7957747E-01            NaN
         13   -1    0    0    0    0  0.00000000000E+00  0.00000000000E+00  0.74505805969E-08  0.10566000000E+00  0.10566000000E+00 0. -1.
     999900   -1    0    0    0    0 -0.00000000000E+00 -0.00000000000E+00 -0.74505805969E-08  0.93827000000E+00  0.93827000000E+00 0. -1.
     999902    2    1    2    0    0 -0.25340844839E-02  0.18003060095E-01  0.13786965998E-01  0.10211130723E+01  0.10208581166E+01 0.  0.
     999903    2    3    3    0    0  0.62095884296E-01  0.49391233557E-01 -0.10181651045E+00  0.13064891580E+00  0.20177824475E-01 0.  0.
         14    1    1    2    0    0  0.25340844839E-02 -0.18003060095E-01 -0.13786965998E-01  0.22816927672E-01  0.00000000000E+00 0.  1.
     999901    1    3    3    0    0 -0.64629968780E-01 -0.31388173462E-01  0.11560347645E+00  0.89046415653E+00  0.88000000000E+00 0.  1.
        -11    1    4    4    0    0  0.19203704681E-01  0.13000377111E-01 -0.45387049010E-01  0.50970946797E-01  0.51100000000E-03 0. -1.
         11    1    4    4    0    0  0.42892179615E-01  0.36390856446E-01 -0.56429461438E-01  0.79677969001E-01  0.51100000000E-03 0.  1.
</event>
<event>
 8    1  0.1088270E+005  0.1043930E+01  0.7957747E-01            NaN
         13   -1    0    0    0    0  0.00000000000E+00  0.00000000000E+00  0.74505805969E-08  0.10566000000E+00  0.10566000000E+00 0.  1.
     999900   -1    0    0    0    0 -0.00000000000E+00 -0.00000000000E+00 -0.74505805969E-08  0.93827000000E+00  0.93827000000E+00 0.  1.
     999902    2    1    2    0    0  0.26795728651E-01  0.13832978019E-01  0.15049785915E-01  0.10102275014E+01  0.10096651654E+01 0.  0.
     999903    2    3    3    0    0  0.95526580611E-01  0.46850785493E-01 -0.59998974646E-01  0.12374770916E+00  0.19831663023E-01 0.  0.
         14    1    1    2    0    0 -0.26795728651E-01 -0.13832978019E-01 -0.15049785915E-01  0.33702498585E-01  0.00000000000E+00 0.  1.
     999901    1    3    3    0    0 -0.68730851960E-01 -0.33017807474E-01  0.75048760561E-01  0.88647979226E+00  0.88000000000E+00 0. -1.
        -11    1    4    4    0    0  0.71572253310E-01  0.36892228361E-01 -0.35284415069E-01  0.87914020640E-01  0.51100000000E-03 0. -1.
         11    1    4    4    0    0  0.23954327301E-01  0.99585571326E-02 -0.24714559577E-01  0.35833688516E-01  0.51100000000E-03 0.  1.
</event>
<event>
 8    1  0.1088270E+005  0.1043930E+01  0.7957747E-01            NaN
         13   -1    0    0    0    0  0.00000000000E+00  0.00000000000E+00  0.74505805969E-08  0.10566000000E+00  0.10566000000E+00 0.  1.
     999900   -1    0    0    0    0 -0.00000000000E+00 -0.00000000000E+00 -0.74505805969E-08  0.93827000000E+00  0.93827000000E+00 0. -1.
     999902    2    1    2    0    0  0.91725274870E-02 -0.61312137842E-02 -0.20694690680E-01  0.10204779795E+01  0.10202084637E+01 0.  0.
     999903    2    3    3    0    0 -0.10940989665E+00 -0.44734162399E-01 -0.53497257920E-01  0.13108043770E+00  0.18666916490E-01 0.  0.
         14    1    1    2    0    0 -0.91725274870E-02  0.61312137842E-02  0.20694690680E-01  0.23452020495E-01  0.00000000000E+00 0.  1.
     999901    1    3    3    0    0  0.11858242414E+00  0.38602948615E-01  0.32802567240E-01  0.88939754181E+00  0.88000000000E+00 0.  1.
        -11    1    4    4    0    0 -0.10282643474E+00 -0.43456452183E-01 -0.45293285029E-01  0.12047191253E+00  0.51100000000E-03 0. -1.
         11    1    4    4    0    0 -0.65834619089E-02 -0.12777102155E-02 -0.82039728905E-02  0.10608525170E-01  0.51100000000E-03 0.  1.
</event>
<event>
 8    1  0.1088270E+005  0.1043930E+01  0.7957747E-01            NaN
         13   -1    0    0    0    0  0.00000000000E+00  0.00000000000E+00  0.74505805969E-08  0.10566000000E+00  0.10566000000E+00 0.  1.
     999900   -1    0    0    0    0 -0.00000000000E+00 -0.00000000000E+00 -0.74505805969E-08  0.93827000000E+00  0.93827000000E+00 0.  1.
     999902    2    1    2    0    0 -0.20815482940E-01 -0.96948090855E-02 -0.99715752173E-02  0.10188959039E+01  0.10185883158E+01 0.  0.
     999903    2    3    3    0    0  0.11660700235E+00 -0.28536358950E-02 -0.47907678942E-01  0.12739666722E+00  0.18150175819E-01 0.  0.
         14    1    1    2    0    0  0.20815482940E-01  0.96948090855E-02  0.99715752173E-02  0.25034096060E-01  0.00000000000E+00 0.  1.
     999901    1    3    3    0    0 -0.13742248529E+00 -0.68411731905E-02  0.37936103724E-01  0.89149923672E+00  0.88000000000E+00 0.  1.
        -11    1    4    4    0    0  0.47256013337E-01 -0.90695975178E-02 -0.15185819845E-01  0.50460466120E-01  0.51100000000E-03 0. -1.
         11    1    4    4    0    0  0.69350989009E-01  0.62159616228E-02 -0.32721859097E-01  0.76936201096E-01  0.51100000000E-03 0.  1.
</event>
<event>
 8    1  0.1088270E+005  0.1043930E+01  0.7957747E-01            NaN
         13   -1    0    0    0    0  0.00000000000E+00  0.00000000000E+00  0.74505805969E-08  0.10566000000E+00  0.10566000000E+00 0. -1.
     999900   -1    0    0    0    0 -0.00000000000E+00 -0.00000000000E+00 -0.74505805969E-08  0.93827000000E+00  0.93827000000E+00 0. -1.
     999902    2    1    2    0    0  0.14509592717E-01  0.12065220029E-01  0.13302508128E-01  0.10208420261E+01  0.10205809070E+01 0.  0.
     999903    2    3    3    0    0  0.27995983235E-01 -0.12108331671E+00 -0.30739540985E-01  0.12963491346E+00  0.20380057546E-01 0.  0.
         14    1    1    2    0    0 -0.14509592717E-01 -0.12065220029E-01 -0.13302508128E-01  0.23087973875E-01  0.00000000000E+00 0.  1.
     999901    1    3    3    0    0 -0.13486390518E-01  0.13314853674E+00  0.44042049113E-01  0.89120711266E+00  0.88000000000E+00 0.  1.
        -11    1    4    4    0    0  0.22431258828E-01 -0.79225905211E-01 -0.11183574692E-01  0.83097767076E-01  0.51100000000E-03 0.  1.
         11    1    4    4    0    0  0.55647244069E-02 -0.41857411502E-01 -0.19555966293E-01  0.46537146389E-01  0.51100000000E-03 0. -1.
</event>
<event>
 8    1  0.1088270E+005  0.1043930E+01  0.7957747E-01            NaN
         13   -1    0    0    0    0  0.00000000000E+00  0.00000000000E+00  0.74505805969E-08  0.10566000000E+00  0.10566000000E+00 0.  1.
     999900   -1    0    0    0    0 -0.00000000000E+00 -0.00000000000E+00 -0.74505805969E-08  0.93827000000E+00  0.93827000000E+00 0.  1.
     999902    2    1    2    0    0  0.42159125856E-02  0.15112272252E-01 -0.12691857142E-01  0.10237498630E+01  0.10235509484E+01 0.  0.
     999903    2    3    3    0    0 -0.95692709856E-01  0.19034318328E-01  0.86434680836E-01  0.13255786022E+00  0.24108759036E-01 0.  0.
         14    1    1    2    0    0 -0.42159125856E-02 -0.15112272252E-01  0.12691857142E-01  0.20180136998E-01  0.00000000000E+00 0.  1.
     999901    1    3    3    0    0  0.99908622441E-01 -0.39220460761E-02 -0.99126537978E-01  0.89119200278E+00  0.88000000000E+00 0.  1.
        -11    1    4    4    0    0 -0.44689967204E-01 -0.11326079419E-02  0.47929763404E-01  0.65543873172E-01  0.51100000000E-03 0. -1.
         11    1    4    4    0    0 -0.51002742652E-01  0.20166926270E-01  0.38504917432E-01  0.67013987053E-01  0.51100000000E-03 0.  1.
</event>
<event>
 8    1  0.1088270E+005  0.1043930E+01  0.7957747E-01            NaN
         13   -1    0    0    0    0  0.00000000000E+00  0.00000000000E+00  0.74505805969E-08  0.10566000000E+00  0.10566000000E+00 0.  1.
     999900   -1    0    0    0    0 -0.00000000000E+00 -0.00000000000E+00 -0.74505805969E-08  0.93827000000E+00  0.93827000000E+00 0. -1.
     999902    2    1    2    0    0  0.17830154542E-01 -0.66932968321E-02 -0.14748192131E-01  0.10198421648E+01  0.10195576577E+01 0.  0.
     999903    2    3    3    0    0  0.47246532001E-01 -0.22903597552E-01  0.11667504823E+00  0.12944890044E+00  0.19675908613E-01 0.  0.
         14    1    1    2    0    0 -0.17830154542E-01  0.66932968321E-02  0.14748192131E-01  0.24087835200E-01  0.00000000000E+00 0.  1.
     999901    1    3    3    0    0 -0.29416377459E-01  0.16210300720E-01 -0.13142324036E+00  0.89039326436E+00  0.88000000000E+00 0. -1.
        -11    1    4    4    0    0  0.18611166736E-01 -0.16782704304E-01  0.69936554419E-01  0.74292781991E-01  0.51100000000E-03 0.  1.
         11    1    4    4    0    0  0.28635365265E-01 -0.61208932482E-02  0.46738493807E-01  0.55156118449E-01  0.51100000000E-03 0. -1.
</event>
<event>
 8    1  0.1088270E+005  0.1043930E+01  0.7957747E-01            NaN
         13   -1    0    0    0    0  0.00000000000E+00  0.00000000000E+00  0.74505805969E-08  0.10566000000E+00  0.10566000000E+00 0.  1.
     999900   -1    0    0    0    0 -0.00000000000E+00 -0.00000000000E+00 -0.74505805969E-08  0.93827000000E+00  0.93827000000E+00 0. -1.
     999902    2    1    2    0    0  0.49883523775E-02 -0.19578334826E-01  0.12086221622E-01  0.10203870264E+01  0.10201153915E+01 0.  0.
     999903    2    3    3    0    0  0.19320679686E-01 -0.82160449668E-01 -0.98447051876E-01  0.13115165750E+00  0.19629240672E-01 0.  0.
         14    1    1    2    0    0 -0.49883523775E-02  0.19578334826E-01 -0.12086221622E-01  0.23542973625E-01  0.00000000000E+00 0. -1.
     999901    1    3    3    0    0 -0.14332327308E-01  0.62582114842E-01  0.11053327350E+00  0.88923536887E+00  0.88000000000E+00 0.  1.
        -11    1    4    4    0    0  0.13179574298E-01 -0.18764250988E-01 -0.24739643420E-01  0.33735876621E-01  0.51100000000E-03 0.  1.
         11    1    4    4    0    0  0.61411053872E-02 -0.63396198680E-01 -0.73707408456E-01  0.97415780881E-01  0.51100000000E-03 0. -1.
</event>
<event>
 8    1  0.1088270E+005  0.1043930E+01  0.7957747E-01            NaN
         13   -1    0    0    0    0  0.00000000000E+00  0.00000000000E+00  0.74505805969E-08  0.10566000000E+00  0.10566000000E+00 0. -1.
     999900   -1    0    0    0    0 -0.00000000000E+00 -0.00000000000E+00 -0.74505805969E-08  0.93827000000E+00  0.93827000000E+00 0.  1.
     999902    2    1    2    0    0 -0.24326494763E-02  0.20412207529E-01 -0.79839760263E-02  0.10218773386E+01  0.10216393568E+01 0.  0.
     999903    2    3    3    0    0  0.50127783129E-03 -0.11539060958E+00  0.54806209558E-01  0.12924436789E+00  0.19625034189E-01 0.  0.
         14    1    1    2    0    0  0.24326494763E-02 -0.20412207529E-01  0.79839760263E-02  0.22052661356E-01  0.00000000000E+00 0. -1.
     999901    1    3    3    0    0 -0.29339273076E-02  0.13580281711E+00 -0.62790185585E-01  0.89263297075E+00  0.88000000000E+00 0.  1.
        -11    1    4    4    0    0 -0.23809720798E-02 -0.11337022288E+00  0.53999383846E-01  0.12559725730E+00  0.51100000000E-03 0. -1.
         11    1    4    4    0    0  0.28822499111E-02 -0.20203867037E-02  0.80682571242E-03  0.36471105978E-02  0.51100000000E-03 0.  1.
</event>
<event>
 8    1  0.1088270E+005  0.1043930E+01  0.7957747E-01            NaN
         13   -1    0    0    0    0  0.00000000000E+00  0.00000000000E+00  0.74505805969E-08  0.10566000000E+00  0.10566000000E+00 0. -1.
     999900   -1    0    0    0    0 -0.00000000000E+00 -0.00000000000E+00 -0.74505805969E-08  0.93827000000E+00  0.93827000000E+00 0. -1.
     999902    2    1    2    0    0  0.12273900351E-01 -0.68942324465E-02  0.18673049786E-01  0.10205449223E+01  0.10202769607E+01 0.  0.
     999903    2    3    3    0    0 -0.93660321980E-01  0.65159675869E-01 -0.54190543967E-01  0.12828771249E+00  0.22429508391E-01 0.  0.
         14    1    1    2    0    0 -0.12273900351E-01  0.68942324465E-02 -0.18673049786E-01  0.23385077703E-01  0.00000000000E+00 0.  1.
     999901    1    3    3    0    0  0.10593422233E+00 -0.72053908316E-01  0.72863593754E-01  0.89225720981E+00  0.88000000000E+00 0.  1.
        -11    1    4    4    0    0 -0.51022444890E-01  0.21952931383E-01 -0.24476416298E-01  0.60700717909E-01  0.51100000000E-03 0. -1.
         11    1    4    4    0    0 -0.42637877091E-01  0.43206744487E-01 -0.29714127669E-01  0.67586994578E-01  0.51100000000E-03 0.  1.
</event>
<event>
 8    1  0.1088270E+005  0.1043930E+01  0.7957747E-01            NaN
         13   -1    0    0    0    0  0.00000000000E+00  0.00000000000E+00  0.74505805969E-08  0.10566000000E+00  0.10566000000E+00 0. -1.
     999900   -1    0    0    0    0 -0.00000000000E+00 -0.00000000000E+00 -0.74505805969E-08  0.93827000000E+00  0.93827000000E+00 0. -1.
     999902    2    1    2    0    0 -0.20084350293E-01 -0.78937263295E-02 -0.87269598616E-02  0.10206522881E+01  0.10203868097E+01 0.  0.
     999903    2    3    3    0    0  0.80778383696E-01  0.75131134433E-01  0.62226629828E-01  0.12818333599E+00  0.19722564065E-01 0.  0.
         14    1    1    2    0    0  0.20084350293E-01  0.78937263295E-02  0.87269598616E-02  0.23277711883E-01  0.00000000000E+00 0. -1.
     999901    1    3    3    0    0 -0.10086273399E+00 -0.83024860762E-01 -0.70953589690E-01  0.89246895212E+00  0.88000000000E+00 0. -1.
        -11    1    4    4    0    0  0.30213825936E-01  0.16015258944E-01  0.21156721790E-01  0.40214820584E-01  0.51100000000E-03 0.  1.
         11    1    4    4    0    0  0.50564557760E-01  0.59115875489E-01  0.41069908039E-01  0.87968515411E-01  0.51100000000E-03 0. -1.
</event>
<event>
 8    1  0.1088270E+005  0.1043930E+01  0.7957747E-01            NaN
         13   -1    0    0    0    0  0.00000000000E+00  0.00000000000E+00  0.74505805969E-08  0.10566000000E+00  0.10566000000E+00 0. -1.
     999900   -1    0    0    0    0 -0.00000000000E+00 -0.00000000000E+00 -0.74505805969E-08  0.93827000000E+00  0.93827000000E+00 0.  1.
     999902    2    1    2    0    0 -0.18780655944E-01 -0.14345605655E-01  0.40790583269E-02  0.10199477533E+01  0.10196657645E+01 0.  0.
     999903    2    3    3    0    0  0.11630732520E+00 -0.51247933130E-01  0.55633099385E-02  0.12887382404E+00  0.20585615365E-01 0.  0.
         14    1    1    2    0    0  0.18780655944E-01  0.14345605655E-01 -0.40790583269E-02  0.23982246686E-01  0.00000000000E+00 0. -1.
     999901    1    3    3    0    0 -0.13508798115E+00  0.36902327475E-01 -0.14842516116E-02  0.89107392927E+00  0.88000000000E+00 0. -1.
        -11    1    4    4    0    0  0.43836722394E-01 -0.29665365759E-01  0.58472694729E-02  0.53255458285E-01  0.51100000000E-03 0.  1.
         11    1    4    4    0    0  0.72470602809E-01 -0.21582567371E-01 -0.28395953439E-03  0.75618365758E-01  0.51100000000E-03 0. -1.
</event>
<event>
 8    1  0.1088270E+005  0.1043930E+01  0.7957747E-01            NaN
         13   -1    0    0    0    0  0.00000000000E+00  0.00000000000E+00  0.74505805969E-08  0.10566000000E+00  0.10566000000E+00 0.  1.
     999900   -1    0    0    0    0 -0.00000000000E+00 -0.00000000000E+00 -0.74505805969E-08  0.93827000000E+00  0.93827000000E+00 0. -1.
     999902    2    1    2    0    0 -0.21323717803E-01  0.28617361975E-02  0.89602138038E-02  0.10206238655E+01  0.10203577308E+01 0.  0.
     999903    2    3    3    0    0  0.68157558523E-01  0.10184539927E+00  0.38449011842E-01  0.13007670020E+00  0.20583568370E-01 0.  0.
         14    1    1    2    0    0  0.21323717803E-01 -0.28617361975E-02 -0.89602138038E-02  0.23306134523E-01  0.00000000000E+00 0. -1.
     999901    1    3    3    0    0 -0.89481276325E-01 -0.98983663077E-01 -0.29488798038E-01  0.89054716527E+00  0.88000000000E+00 0. -1.
        -11    1    4    4    0    0  0.32060227476E-01  0.40045357615E-01  0.65462365243E-02  0.51716565875E-01  0.51100000000E-03 0. -1.
         11    1    4    4    0    0  0.36097331047E-01  0.61800041660E-01  0.31902775318E-01  0.78360134327E-01  0.51100000000E-03 0.  1.
</event>
<event>
 8    1  0.1088270E+005  0.1043930E+01  0.7957747E-01            NaN
         13   -1    0    0    0    0  0.00000000000E+00  0.00000000000E+00  0.74505805969E-08  0.10566000000E+00  0.10566000000E+00 0.  1.
     999900   -1    0    0    0    0 -0.00000000000E+00 -0.00000000000E+00 -0.74505805969E-08  0.93827000000E+00  0.93827000000E+00 0.  1.
     999902    2    1    2    0    0 -0.51713818771E-02  0.14690865228E-01 -0.12305695480E-01  0.10240806964E+01  0.10238883132E+01 0.  0.
     999903    2    3    3    0    0  0.89860785874E-01  0.71491064592E-01 -0.68694380579E-01  0.13535292068E+00  0.20385339302E-01 0.  0.
         14    1    1    2    0    0  0.51713818771E-02 -0.14690865228E-01  0.12305695480E-01  0.19849303588E-01  0.00000000000E+00 0.  1.
     999901    1    3    3    0    0 -0.95032167751E-01 -0.56800199363E-01  0.56388685099E-01  0.88872777573E+00  0.88000000000E+00 0.  1.
        -11    1    4    4    0    0  0.64433187739E-01  0.40397576556E-01 -0.39524522919E-01  0.85709094656E-01  0.51100000000E-03 0. -1.
         11    1    4    4    0    0  0.25427598136E-01  0.31093488036E-01 -0.29169857660E-01  0.49643826022E-01  0.51100000000E-03 0.  1.
</event>
<event>
 8    1  0.1088270E+005  0.1043930E+01  0.7957747E-01            NaN
         13   -1    0    0    0    0  0.00000000000E+00  0.00000000000E+00  0.74505805969E-08  0.10566000000E+00  0.10566000000E+00 0. -1.
     999900   -1    0    0    0    0 -0.00000000000E+00 -0.00000000000E+00 -0.74505805969E-08  0.93827000000E+00  0.93827000000E+00 0. -1.
     999902    2    1    2    0    0  0.79494342076E-02 -0.13359330155E-01  0.17507803892E-01  0.10205165764E+01  0.10202479573E+01 0.  0.
     999903    2    3    3    0    0  0.42751527447E-01 -0.11473911146E+00  0.48400201495E-01  0.13347464620E+00  0.21912208347E-01 0.  0.
         14    1    1    2    0    0 -0.79494342076E-02  0.13359330155E-01 -0.17507803892E-01  0.23413423576E-01  0.00000000000E+00 0.  1.
     999901    1    3    3    0    0 -0.34802093239E-01  0.10137978131E+00 -0.30892397603E-01  0.88704193023E+00  0.88000000000E+00 0. -1.
        -11    1    4    4    0    0  0.40914905421E-01 -0.82552270836E-01  0.35102732572E-01  0.98597007362E-01  0.51100000000E-03 0. -1.
         11    1    4    4    0    0  0.18366220256E-02 -0.32186840626E-01  0.13297468923E-01  0.34877638835E-01  0.51100000000E-03 0.  1.
</event>
<event>
 8    1  0.1088270E+005  0.1043930E+01  0.7957747E-01            NaN
         13   -1    0    0    0    0  0.00000000000E+00  0.00000000000E+00  0.74505805969E-08  0.10566000000E+00  0.10566000000E+00 0.  1.
     999900   -1    0    0    0    0 -0.00000000000E+00 -0.00000000000E+00 -0.74505805969E-08  0.93827000000E+00  0.93827000000E+00 0.  1.
     999902    2    1    2    0    0 -0.45672992913E-02 -0.11878697595E-01  0.20626333663E-01  0.10196934714E+01  0.10194053984E+01 0.  0.
     999903    2    3    3    0    0 -0.98118660619E-01  0.38212396413E-01 -0.71097005704E-01  0.12858509082E+00  0.19796023862E-01 0.  0.
         14    1    1    2    0    0  0.45672992913E-02  0.11878697595E-01 -0.20626333663E-01  0.24236528625E-01  0.00000000000E+00 0. -1.
     999901    1    3    3    0    0  0.93551361328E-01 -0.50091094008E-01  0.91723339367E-01  0.89110838055E+00  0.88000000000E+00 0.  1.
        -11    1    4    4    0    0 -0.14336827175E-01  0.71143230998E-02 -0.31509500802E-02  0.16320165870E-01  0.51100000000E-03 0. -1.
         11    1    4    4    0    0 -0.83781833445E-01  0.31098073313E-01 -0.67946055623E-01  0.11226492495E+00  0.51100000000E-03 0.  1.
</event>
<event>
 8    1  0.1088270E+005  0.1043930E+01  0.7957747E-01            NaN
         13   -1    0    0    0    0  0.00000000000E+00  0.00000000000E+00  0.74505805969E-08  0.10566000000E+00  0.10566000000E+00 0.  1.
     999900   -1    0    0    0    0 -0.00000000000E+00 -0.00000000000E+00 -0.74505805969E-08  0.93827000000E+00  0.93827000000E+00 0. -1.
     999902    2    1    2    0    0  0.15014463960E-02 -0.22968805474E-01  0.91363010564E-02  0.10191652597E+01  0.10188643355E+01 0.  0.
     999903    2    3    3    0    0  0.97831532781E-01  0.78222447509E-01 -0.16757830581E-01  0.12776767090E+00  0.18814694826E-01 0.  0.
         14    1    1    2    0    0 -0.15014463960E-02  0.22968805474E-01 -0.91363010564E-02  0.24764740322E-01  0.00000000000E+00 0. -1.
     999901    1    3    3    0    0 -0.96330086385E-01 -0.10119125298E+00  0.25894131637E-01  0.89139758878E+00  0.88000000000E+00 0.  1.
        -11    1    4    4    0    0  0.65244559309E-01  0.62943680197E-01 -0.11252593209E-01  0.91354481943E-01  0.51100000000E-03 0. -1.
         11    1    4    4    0    0  0.32586973472E-01  0.15278767312E-01 -0.55052373722E-02  0.36413188959E-01  0.51100000000E-03 0.  1.
</event>
<event>
 8    1  0.1088270E+005  0.1043930E+01  0.7957747E-01            NaN
         13   -1    0    0    0    0  0.00000000000E+00  0.00000000000E+00  0.74505805969E-08  0.10566000000E+00  0.10566000000E+00 0.  1.
     999900   -1    0    0    0    0 -0.00000000000E+00 -0.00000000000E+00 -0.74505805969E-08  0.93827000000E+00  0.93827000000E+00 0.  1.
     999902    2    1    2    0    0  0.64982546565E-02 -0.21703803818E-02  0.21573957785E-01  0.10212943308E+01  0.10210434548E+01 0.  0.
     999903    2    3    3    0    0 -0.27017198897E-01  0.59136557274E-01 -0.10940734890E+00  0.12886061960E+00  0.20199748679E-01 0.  0.
         14    1    1    2    0    0 -0.64982546565E-02  0.21703803818E-02 -0.21573957785E-01  0.22635669177E-01  0.00000000000E+00 0. -1.
     999901    1    3    3    0    0  0.33515453553E-01 -0.61306937655E-01  0.13098130669E+00  0.89243371123E+00  0.88000000000E+00 0. -1.
        -11    1    4    4    0    0 -0.32205489207E-02  0.19363666561E-01 -0.19313213670E-01  0.27542419307E-01  0.51100000000E-03 0. -1.
         11    1    4    4    0    0 -0.23796649976E-01  0.39772890713E-01 -0.90094135232E-01  0.10131820029E+00  0.51100000000E-03 0.  1.
</event>
<event>
 8    1  0.1088270E+005  0.1043930E+01  0.7957747E-01            NaN
         13   -1    0    0    0    0  0.00000000000E+00  0.00000000000E+00  0.74505805969E-08  0.10566000000E+00  0.10566000000E+00 0.  1.
     999900   -1    0    0    0    0 -0.00000000000E+00 -0.00000000000E+00 -0.74505805969E-08  0.93827000000E+00  0.93827000000E+00 0.  1.
     999902    2    1    2    0    0 -0.12343041929E-01 -0.14727163045E-01 -0.17119079920E-01  0.10181947535E+01  0.10178694676E+01 0.  0.
     999903    2    3    3    0    0 -0.49339525648E-01 -0.11925459114E+00  0.82128769415E-02  0.13087495147E+00  0.20118530597E-01 0.  0.
         14    1    1    2    0    0  0.12343041929E-01  0.14727163045E-01  0.17119079920E-01  0.25735246506E-01  0.00000000000E+00 0.  1.
     999901    1    3    3    0    0  0.36996483719E-01  0.10452742810E+00 -0.25331956861E-01  0.88731980203E+00  0.88000000000E+00 0.  1.
        -11    1    4    4    0    0 -0.90840869860E-02 -0.47238123736E-01  0.35931360920E-02  0.48240363996E-01  0.51100000000E-03 0. -1.
         11    1    4    4    0    0 -0.40255438662E-01 -0.72016467408E-01  0.46197408495E-02  0.82634587470E-01  0.51100000000E-03 0.  1.
</event>
<event>
 8    1  0.1088270E+005  0.1043930E+01  0.7957747E-01            NaN
         13   -1    0    0    0    0  0.00000000000E+00  0.00000000000E+00  0.74505805969E-08  0.10566000000E+00  0.10566000000E+00 0.  1.
     999900   -1    0    0    0    0 -0.00000000000E+00 -0.00000000000E+00 -0.74505805969E-08  0.93827000000E+00  0.93827000000E+00 0.  1.
     999902    2    1    2    0    0  0.21479382630E-01  0.91217512493E-02 -0.10881368867E-01  0.10181817105E+01  0.10178560906E+01 0.  0.
     999903    2    3    3    0    0 -0.12362285160E+00 -0.54001168844E-02  0.96859286706E-02  0.12594376199E+00  0.21359851827E-01 0.  0.
         14    1    1    2    0    0 -0.21479382630E-01 -0.91217512493E-02  0.10881368867E-01  0.25748289505E-01  0.00000000000E+00 0.  1.
     999901    1    3    3    0    0  0.14510223423E+00  0.14521868134E-01 -0.20567297537E-01  0.89223794851E+00  0.88000000000E+00 0. -1.
        -11    1    4    4    0    0 -0.82238060224E-01  0.52534473592E-05  0.15845611852E-01  0.83752272285E-01  0.51100000000E-03 0. -1.
         11    1    4    4    0    0 -0.41384791372E-01 -0.54053703318E-02 -0.61596831812E-02  0.42191489701E-01  0.51100000000E-03 0.  1.
</event>
<event>
 8    1  0.1088270E+005  0.1043930E+01  0.7957747E-01            NaN
         13   -1    0    0    0    0  0.00000000000E+00  0.00000000000E+00  0.74505805969E-08  0.10566000000E+00  0.10566000000E+00 0. -1.
     999900   -1    0    0    0    0 -0.00000000000E+00 -0.00000000000E+00 -0.74505805969E-08  0.93827000000E+00  0.93827000000E+00 0. -1.
     999902    2    1    2    0    0 -0.11270373111E-01  0.20283064579E-01 -0.44241461597E-02  0.10203080380E+01  0.10200345560E+01 0.  0.
     999903    2    3    3    0    0  0.92536265978E-01 -0.61581195081E-01 -0.61376292579E-01  0.12861239358E+00  0.20466909440E-01 0.  0.
         14    1    1    2    0    0  0.11270373111E-01 -0.20283064579E-01  0.44241461597E-02  0.23621961985E-01  0.00000000000E+00 0.  1.
     999901    1    3    3    0    0 -0.10380663909E+00  0.81864259660E-01  0.56952146419E-01  0.89169564444E+00  0.88000000000E+00 0. -1.
        -11    1    4    4    0    0  0.80321847009E-01 -0.51817943819E-01 -0.60108476050E-01  0.11291584664E+00  0.51100000000E-03 0. -1.
         11    1    4    4    0    0  0.12214418969E-01 -0.97632512620E-02 -0.12678165289E-02  0.15696546936E-01  0.51100000000E-03 0.  1.
</event>
<event>
 8    1  0.1088270E+005  0.1043930E+01  0.7957747E-01            NaN
         13   -1    0    0    0    0  0.00000000000E+00  0.00000000000E+00  0.74505805969E-08  0.10566000000E+00  0.10566000000E+00 0. -1.
     999900   -1    0    0    0    0 -0.00000000000E+00 -0.00000000000E+00 -0.74505805969E-08  0.93827000000E+00  0.93827000000E+00 0.  1.
     999902    2    1    2    0    0  0.22955897422E-01  0.26001463426E-02 -0.14460399468E-01  0.10166749612E+01  0.10163095688E+01 0.  0.
     999903    2    3    3    0    0 -0.10034791945E+00 -0.62502944785E-01 -0.36651709857E-01  0.12542039712E+00  0.20263393913E-01 0.  0.
         14    1    1    2    0    0 -0.22955897422E-01 -0.26001463426E-02  0.14460399468E-01  0.27255038804E-01  0.00000000000E+00 0. -1.
     999901    1    3    3    0    0  0.12330381687E+00  0.65103091127E-01  0.22191310389E-01  0.89125456408E+00  0.88000000000E+00 0. -1.
        -11    1    4    4    0    0 -0.57959361501E-01 -0.41898038756E-01 -0.31000393781E-01  0.77948821497E-01  0.51100000000E-03 0.  1.
         11    1    4    4    0    0 -0.42388557951E-01 -0.20604906029E-01 -0.56513160758E-02  0.47471575622E-01  0.51100000000E-03 0. -1.
</event>
<event>
 8    1  0.1088270E+005  0.1043930E+01  0.7957747E-01            NaN
         13   -1    0    0    0    0  0.00000000000E+00  0.00000000000E+00  0.74505805969E-08  0.10566000000E+00  0.10566000000E+00 0. -1.
     999900   -1    0    0    0    0 -0.00000000000E+00 -0.00000000000E+00 -0.74505805969E-08  0.93827000000E+00  0.93827000000E+00 0. -1.
     999902    2    1    2    0    0 -0.21139714715E-01 -0.30296090533E-02  0.10734948326E-01  0.10200280088E+01  0.10197479264E+01 0.  0.
     999903    2    3    3    0    0  0.11411298017E+00 -0.23027564175E-01 -0.48099194998E-01  0.12752889611E+00  0.19951085902E-01 0.  0.
         14    1    1    2    0    0  0.21139714715E-01  0.30296090533E-02 -0.10734948326E-01  0.23901991231E-01  0.00000000000E+00 0. -1.
     999901    1    3    3    0    0 -0.13525269488E+00  0.19997955121E-01  0.58834143324E-01  0.89249911266E+00  0.88000000000E+00 0.  1.
        -11    1    4    4    0    0  0.46088028960E-01 -0.12536139682E-01 -0.29829121334E-01  0.56314286039E-01  0.51100000000E-03 0. -1.
         11    1    4    4    0    0  0.68024951206E-01 -0.10491424493E-01 -0.18270073665E-01  0.71214610068E-01  0.51100000000E-03 0.  1.
</event>
<event>
 8    1  0.1088270E+005  0.1043930E+01  0.7957747E-01            NaN
         13   -1    0    0    0    0  0.00000000000E+00  0.00000000000E+00  0.74505805969E-08  0.10566000000E+00  0.10566000000E+00 0.  1.
     999900   -1    0    0    0    0 -0.00000000000E+00 -0.00000000000E+00 -0.74505805969E-08  0.93827000000E+00  0.93827000000E+00 0. -1.
     999902    2    1    2    0    0  0.24798767811E-01  0.26083616083E-02  0.41569310986E-02  0.10186503143E+01  0.10183365849E+01 0.  0.
     999903    2    3    3    0    0  0.43491900572E-01 -0.98946525454E-01 -0.68458020568E-01  0.12964201311E+00  0.20942556390E-01 0.  0.
         14    1    1    2    0    0 -0.24798767811E-01 -0.26083616083E-02 -0.41569310986E-02  0.25279685745E-01  0.00000000000E+00 0. -1.
     999901    1    3    3    0    0 -0.18693132761E-01  0.10155488706E+00  0.72614951667E-01  0.88900830114E+00  0.88000000000E+00 0. -1.
        -11    1    4    4    0    0  0.13231560683E-01 -0.40841058613E-01 -0.38238056867E-01  0.57493272482E-01  0.51100000000E-03 0.  1.
         11    1    4    4    0    0  0.30260339890E-01 -0.58105466841E-01 -0.30219963702E-01  0.72148740628E-01  0.51100000000E-03 0. -1.
</event>
<event>
 8    1  0.1088270E+005  0.1043930E+01  0.7957747E-01            NaN
         13   -1    0    0    0    0  0.00000000000E+00  0.00000000000E+00  0.74505805969E-08  0.10566000000E+00  0.10566000000E+00 0.  1.
     999900   -1    0    0    0    0 -0.00000000000E+00 -0.00000000000E+00 -0.74505805969E-08  0.93827000000E+00  0.93827000000E+00 0. -1.
     999902    2    1    2    0    0 -0.11450527848E-01  0.21055792876E-01 -0.31498909173E-02  0.10197559889E+01  0.10194694179E+01 0.  0.
     999903    2    3    3    0    0  0.32062950083E-01 -0.10297718893E+00 -0.65499254503E-01  0.12781145781E+00  0.20329343292E-01 0.  0.
         14    1    1    2    0    0  0.11450527848E-01 -0.21055792876E-01  0.31498909173E-02  0.24174011136E-01  0.00000000000E+00 0.  1.
     999901    1    3    3    0    0 -0.43513477930E-01  0.12403298181E+00  0.62349363585E-01  0.89194453105E+00  0.88000000000E+00 0. -1.
        -11    1    4    4    0    0  0.16400706804E-01 -0.34986590543E-01 -0.33106663192E-01  0.50885724620E-01  0.51100000000E-03 0.  1.
         11    1    4    4    0    0  0.15662243279E-01 -0.67990598390E-01 -0.32392591311E-01  0.76925733190E-01  0.51100000000E-03 0. -1.
</event>
<event>
 8    1  0.1088270E+005  0.1043930E+01  0.7957747E-01            NaN
         13   -1    0    0    0    0  0.00000000000E+00  0.00000000000E+00  0.74505805969E-08  0.10566000000E+00  0.10566000000E+00 0. -1.
     999900   -1    0    0    0    0 -0.00000000000E+00 -0.00000000000E+00 -0.74505805969E-08  0.93827000000E+00  0.93827000000E+00 0. -1.
     999902    2    1    2    0    0  0.20042319381E-01 -0.23907125215E-01  0.14452290469E-01  0.10095481167E+01  0.10089624800E+01 0.  0.
     999903    2    3    3    0    0  0.20196861674E-01 -0.47464611423E-01 -0.10753264041E+00  0.12082132940E+00  0.19331899134E-01 0.  0.
         14    1    1    2    0    0 -0.20042319381E-01  0.23907125215E-01 -0.14452290469E-01  0.34381883340E-01  0.00000000000E+00 0.  1.
     999901    1    3    3    0    0 -0.15454229340E-03  0.23557486209E-01  0.12198493088E+00  0.88872678726E+00  0.88000000000E+00 0.  1.
        -11    1    4    4    0    0  0.21330339227E-02 -0.54809833864E-02 -0.27687678644E-02  0.65205988287E-02  0.51100000000E-03 0. -1.
         11    1    4    4    0    0  0.18063827751E-01 -0.41983628037E-01 -0.10476387255E+00  0.11430073057E+00  0.51100000000E-03 0.  1.
</event>
<event>
 8    1  0.1088270E+005  0.1043930E+01  0.7957747E-01            NaN
         13   -1    0    0    0    0  0.00000000000E+00  0.00000000000E+00  0.74505805969E-08  0.10566000000E+00  0.10566000000E+00 0. -1.
     999900   -1    0    0    0    0 -0.00000000000E+00 -0.00000000000E+00 -0.74505805969E-08  0.93827000000E+00  0.93827000000E+00 0. -1.
     999902    2    1    2    0    0 -0.48704326031E-02 -0.23390695976E-01  0.30903674437E-02  0.10198385878E+01  0.10195539951E+01 0.  0.
     999903    2    3    3    0    0  0.10146392999E+00 -0.80873278565E-01 -0.71022655570E-02  0.13151706167E+00  0.20270151970E-01 0.  0.
         14    1    1    2    0    0  0.48704326031E-02  0.23390695976E-01 -0.30903674437E-02  0.24091412223E-01  0.00000000000E+00 0. -1.
     999901    1    3    3    0    0 -0.10633436259E+00  0.57482582590E-01  0.10192633001E-01  0.88832152610E+00  0.88000000000E+00 0. -1.
        -11    1    4    4    0    0  0.32861196503E-01 -0.38785779467E-01 -0.30912332634E-02  0.50931441846E-01  0.51100000000E-03 0.  1.
         11    1    4    4    0    0  0.68602733486E-01 -0.42087499098E-01 -0.40110322936E-02  0.80585619828E-01  0.51100000000E-03 0. -1.
</event>
<event>
 8    1  0.1088270E+005  0.1043930E+01  0.7957747E-01            NaN
         13   -1    0    0    0    0  0.00000000000E+00  0.00000000000E+00  0.74505805969E-08  0.10566000000E+00  0.10566000000E+00 0.  1.
     999900   -1    0    0    0    0 -0.00000000000E+00 -0.00000000000E+00 -0.74505805969E-08  0.93827000000E+00  0.93827000000E+00 0.  1.
     999902    2    1    2    0    0  0.98528478021E-02  0.20695963187E-01  0.58004449029E-02  0.10202858324E+01  0.10200118299E+01 0.  0.
     999903    2    3    3    0    0  0.53576485240E-01 -0.38114771359E-01  0.11136495495E+00  0.13095219151E+00  0.20570554313E-01 0.  0.
         14    1    1    2    0    0 -0.98528478021E-02 -0.20695963187E-01 -0.58004449029E-02  0.23644167634E-01  0.00000000000E+00 0. -1.
     999901    1    3    3    0    0 -0.43723637438E-01  0.58810734546E-01 -0.10556451005E+00  0.88933364085E+00  0.88000000000E+00 0.  1.
        -11    1    4    4    0    0  0.43923669107E-01 -0.32177913135E-01  0.10410107206E+00  0.11748191830E+00  0.51100000000E-03 0.  1.
         11    1    4    4    0    0  0.96528161327E-02 -0.59368582247E-02  0.72638828862E-02  0.13470273214E-01  0.51100000000E-03 0. -1.
</event>
<event>
 8    1  0.1088270E+005  0.1043930E+01  0.7957747E-01            NaN
         13   -1    0    0    0    0  0.00000000000E+00  0.00000000000E+00  0.74505805969E-08  0.10566000000E+00  0.10566000000E+00 0. -1.
     999900   -1    0    0    0    0 -0.00000000000E+00 -0.00000000000E+00 -0.74505805969E-08  0.93827000000E+00  0.93827000000E+00 0. -1.
     999902    2    1    2    0    0  0.18334941291E-01  0.28139917430E-02 -0.14493650832E-01  0.10203895128E+01  0.10201179360E+01 0.  0.
     999903    2    3    3    0    0 -0.47549434310E-01  0.92364940190E-01 -0.77568341846E-01  0.13115470697E+00  0.19811073243E-01 0.  0.
         14    1    1    2    0    0 -0.18334941291E-01 -0.28139917430E-02  0.14493650832E-01  0.23540487169E-01  0.00000000000E+00 0. -1.
     999901    1    3    3    0    0  0.65884375601E-01 -0.89550948447E-01  0.63074691013E-01  0.88923480587E+00  0.88000000000E+00 0.  1.
        -11    1    4    4    0    0 -0.22790696780E-01  0.53556344201E-01 -0.32196313488E-01  0.66517378084E-01  0.51100000000E-03 0.  1.
         11    1    4    4    0    0 -0.24758737530E-01  0.38808595989E-01 -0.45372028357E-01  0.64637328882E-01  0.51100000000E-03 0. -1.
</event>
<event>
 8    1  0.1088270E+005  0.1043930E+01  0.7957747E-01            NaN
         13   -1    0    0    0    0  0.00000000000E+00  0.00000000000E+00  0.74505805969E-08  0.10566000000E+00  0.10566000000E+00 0.  1.
     999900   -1    0    0    0    0 -0.00000000000E+00 -0.00000000000E+00 -0.74505805969E-08  0.93827000000E+00  0.93827000000E+00 0.  1.
     999902    2    1    2    0    0  0.18953889694E-01 -0.27347106652E-02  0.14100690457E-01  0.10201485356E+01  0.10198713040E+01 0.  0.
     999903    2    3    3    0    0  0.28813122034E-01 -0.10608211786E+00  0.70785347699E-01  0.13223466513E+00  0.19794683187E-01 0.  0.
         14    1    1    2    0    0 -0.18953889694E-01  0.27347106652E-02 -0.14100690457E-01  0.23781464386E-01  0.00000000000E+00 0. -1.
     999901    1    3    3    0    0 -0.98592323395E-02  0.10334740719E+00 -0.56684657242E-01  0.88791387049E+00  0.88000000000E+00 0.  1.
        -11    1    4    4    0    0  0.13617078274E-01 -0.70795277956E-01  0.55072201133E-01  0.90722679966E-01  0.51100000000E-03 0.  1.
         11    1    4    4    0    0  0.15196043760E-01 -0.35286839900E-01  0.15713146566E-01  0.41511985162E-01  0.51100000000E-03 0. -1.
</event>
<event>
 8    1  0.1190544E+005  0.1043930E+01  0.7957747E-01            NaN
         13   -1    0    0    0    0  0.00000000000E+00  0.00000000000E+00  0.74505805969E-08  0.10566000000E+00  0.10566000000E+00 0. -1.
     999900   -1    0    0    0    0 -0.00000000000E+00 -0.00000000000E+00 -0.74505805969E-08  0.93827000000E+00  0.93827000000E+00 0. -1.
     999902    2    1    2    0    0 -0.23983472983E-02  0.12692835069E-01 -0.20445517179E-01  0.10197457220E+01  0.10194589046E+01 0.  0.
     999903    2    3    3    0    0  0.11451703121E+00 -0.31781884117E-01 -0.49802704747E-01  0.13041504620E+00  0.20088212486E-01 0.  0.
         14    1    1    2    0    0  0.23983472983E-02 -0.12692835069E-01  0.20445517179E-01  0.24184278046E-01  0.00000000000E+00 0. -1.
     999901    1    3    3    0    0 -0.11691537850E+00  0.44474719186E-01  0.29357187568E-01  0.88933067576E+00  0.88000000000E+00 0.  1.
        -11    1    4    4    0    0  0.53293002012E-01 -0.24593496234E-01 -0.20650273961E-01  0.62222817809E-01  0.51100000000E-03 0.  1.
         11    1    4    4    0    0  0.61224029194E-01 -0.71883878822E-02 -0.29152430786E-01  0.68192228390E-01  0.51100000000E-03 0. -1.
</event>
<event>
 8    1  0.1088270E+005  0.1043930E+01  0.7957747E-01            NaN
         13   -1    0    0    0    0  0.00000000000E+00  0.00000000000E+00  0.74505805969E-08  0.10566000000E+00  0.10566000000E+00 0. -1.
     999900   -1    0    0    0    0 -0.00000000000E+00 -0.00000000000E+00 -0.74505805969E-08  0.93827000000E+00  0.93827000000E+00 0. -1.
     999902    2    1    2    0    0 -0.12113614608E-01 -0.10451739430E-01  0.17872528464E-01  0.10199423826E+01  0.10196602660E+01 0.  0.
     999903    2    3    3    0    0  0.40988480593E-01  0.37873318652E-01 -0.11276414503E+00  0.12740606163E+00  0.20052638903E-01 0.  0.
         14    1    1    2    0    0  0.12113614608E-01  0.10451739430E-01 -0.17872528464E-01  0.23987617424E-01  0.00000000000E+00 0.  1.
     999901    1    3    3    0    0 -0.53102095200E-01 -0.48325058081E-01  0.13063667350E+00  0.89253632095E+00  0.88000000000E+00 0.  1.
        -11    1    4    4    0    0  0.34475346741E-01  0.20057763402E-01 -0.68905077472E-01  0.79618052150E-01  0.51100000000E-03 0. -1.
         11    1    4    4    0    0  0.65131338517E-02  0.17815555249E-01 -0.43859067561E-01  0.47788009476E-01  0.51100000000E-03 0.  1.
</event>
<event>
 8    1  0.1088270E+005  0.1043930E+01  0.7957747E-01            NaN
         13   -1    0    0    0    0  0.00000000000E+00  0.00000000000E+00  0.74505805969E-08  0.10566000000E+00  0.10566000000E+00 0. -1.
     999900   -1    0    0    0    0 -0.00000000000E+00 -0.00000000000E+00 -0.74505805969E-08  0.93827000000E+00  0.93827000000E+00 0. -1.
     999902    2    1    2    0    0  0.13548048960E-01 -0.80727271434E-02  0.11301099091E-01  0.10245281085E+01  0.10243443814E+01 0.  0.
     999903    2    3    3    0    0  0.99019776299E-01  0.86663882039E-01 -0.20918598022E-01  0.13474243193E+00  0.20059677754E-01 0.  0.
         14    1    1    2    0    0 -0.13548048960E-01  0.80727271434E-02 -0.11301099091E-01  0.19401891527E-01  0.00000000000E+00 0.  1.
     999901    1    3    3    0    0 -0.85471727339E-01 -0.94736609183E-01  0.32219697113E-01  0.88978567654E+00  0.88000000000E+00 0.  1.
        -11    1    4    4    0    0  0.56992806538E-01  0.51016672997E-01 -0.22090658447E-01  0.79618711572E-01  0.51100000000E-03 0.  1.
         11    1    4    4    0    0  0.42026969761E-01  0.35647209042E-01  0.11720604253E-02  0.55123720361E-01  0.51100000000E-03 0. -1.
</event>
<event>
 8    1  0.1088270E+005  0.1043930E+01  0.7957747E-01            NaN
         13   -1    0    0    0    0  0.00000000000E+00  0.00000000000E+00  0.74505805969E-08  0.10566000000E+00  0.10566000000E+00 0.  1.
     999900   -1    0    0    0    0 -0.00000000000E+00 -0.00000000000E+00 -0.74505805969E-08  0.93827000000E+00  0.93827000000E+00 0. -1.
     999902    2    1    2    0    0 -0.74287841287E-02 -0.20869212349E-01 -0.83183232824E-02  0.10202676806E+01  0.10199932523E+01 0.  0.
     999903    2    3    3    0    0 -0.72942852394E-01  0.10305911950E+00 -0.18218380818E-01  0.12911767317E+00  0.19940468892E-01 0.  0.
         14    1    1    2    0    0  0.74287841287E-02  0.20869212349E-01  0.83183232824E-02  0.23662319411E-01  0.00000000000E+00 0. -1.
     999901    1    3    3    0    0  0.65514068265E-01 -0.12392833185E+00  0.99000575354E-02  0.89115000741E+00  0.88000000000E+00 0.  1.
        -11    1    4    4    0    0 -0.30153023420E-01  0.48727399584E-01  0.10812543922E-02  0.57314871749E-01  0.51100000000E-03 0. -1.
         11    1    4    4    0    0 -0.42789828974E-01  0.54331719913E-01 -0.19299635210E-01  0.71802801426E-01  0.51100000000E-03 0.  1.
</event>
<event>
 8    1  0.1088270E+005  0.1043930E+01  0.7957747E-01            NaN
         13   -1    0    0    0    0  0.00000000000E+00  0.00000000000E+00  0.74505805969E-08  0.10566000000E+00  0.10566000000E+00 0. -1.
     999900   -1    0    0    0    0 -0.00000000000E+00 -0.00000000000E+00 -0.74505805969E-08  0.93827000000E+00  0.93827000000E+00 0. -1.
     999902    2    1    2    0    0  0.22516687247E-01  0.59310478641E-02 -0.82467107000E-02  0.10192280412E+01  0.10189286595E+01 0.  0.
     999903    2    3    3    0    0 -0.58320023074E-01 -0.99355893491E-01  0.50390832737E-01  0.12734336517E+00  0.20106664731E-01 0.  0.
         14    1    1    2    0    0 -0.22516687247E-01 -0.59310478641E-02  0.82467107000E-02  0.24701958843E-01  0.00000000000E+00 0. -1.
     999901    1    3    3    0    0  0.80836710321E-01  0.10528694136E+00 -0.58637543437E-01  0.89188467598E+00  0.88000000000E+00 0. -1.
        -11    1    4    4    0    0 -0.14572143315E-01 -0.21249981191E-01  0.27118167568E-02  0.25913782675E-01  0.51100000000E-03 0. -1.
         11    1    4    4    0    0 -0.43747879759E-01 -0.78105912300E-01  0.47679015980E-01  0.10142958250E+00  0.51100000000E-03 0.  1.
</event>
<event>
 8    1  0.1088270E+005  0.1043930E+01  0.7957747E-01            NaN
         13   -1    0    0    0    0  0.00000000000E+00  0.00000000000E+00  0.74505805969E-08  0.10566000000E+00  0.10566000000E+00 0. -1.
     999900   -1    0    0    0    0 -0.00000000000E+00 -0.00000000000E+00 -0.74505805969E-08  0.93827000000E+00  0.93827000000E+00 0. -1.
     999902    2    1    2    0    0 -0.19231644205E-01 -0.38240067244E-02 -0.12581084263E-01  0.10206327288E+01  0.10203667988E+01 0.  0.
     999903    2    3    3    0    0 -0.21081828522E-01  0.11927789607E+00 -0.48456907774E-01  0.13133830261E+00  0.15166338922E-01 0.  0.
         14    1    1    2    0    0  0.19231644205E-01  0.38240067244E-02  0.12581084263E-01  0.23297271245E-01  0.00000000000E+00 0.  1.
     999901    1    3    3    0    0  0.18501843166E-02 -0.12310190280E+00  0.35875823511E-01  0.88929442614E+00  0.88000000000E+00 0.  1.
        -11    1    4    4    0    0 -0.36584780966E-02  0.40613946404E-01 -0.23104848365E-01  0.46871870492E-01  0.51100000000E-03 0.  1.
         11    1    4    4    0    0 -0.17423350425E-01  0.78663949671E-01 -0.25352059409E-01  0.84466432120E-01  0.51100000000E-03 0. -1.
</event>
<event>
 8    1  0.1088270E+005  0.1043930E+01  0.7957747E-01            NaN
         13   -1    0    0    0    0  0.00000000000E+00  0.00000000000E+00  0.74505805969E-08  0.10566000000E+00  0.10566000000E+00 0.  1.
     999900   -1    0    0    0    0 -0.00000000000E+00 -0.00000000000E+00 -0.74505805969E-08  0.93827000000E+00  0.93827000000E+00 0. -1.
     999902    2    1    2    0    0  0.22301856513E-01 -0.56829864921E-02 -0.10956810323E-02  0.10208893911E+01  0.10206293545E+01 0.  0.
     999903    2    3    3    0    0 -0.80385035448E-01 -0.47729764731E-01 -0.87594190133E-01  0.12971347057E+00  0.20321366512E-01 0.  0.
         14    1    1    2    0    0 -0.22301856513E-01  0.56829864921E-02  0.10956810323E-02  0.23040608853E-01  0.00000000000E+00 0. -1.
     999901    1    3    3    0    0  0.10268689196E+00  0.42046778239E-01  0.86498509100E-01  0.89117592058E+00  0.88000000000E+00 0.  1.
        -11    1    4    4    0    0 -0.38031835695E-01 -0.15874556603E-01 -0.27294222763E-01  0.49433367182E-01  0.51100000000E-03 0.  1.
         11    1    4    4    0    0 -0.42353199753E-01 -0.31855208128E-01 -0.60299967369E-01  0.80280103388E-01  0.51100000000E-03 0. -1.
</event>
<event>
 8    1  0.1088270E+005  0.1043930E+01  0.7957747E-01            NaN
         13   -1    0    0    0    0  0.00000000000E+00  0.00000000000E+00  0.74505805969E-08  0.10566000000E+00  0.10566000000E+00 0. -1.
     999900   -1    0    0    0    0 -0.00000000000E+00 -0.00000000000E+00 -0.74505805969E-08  0.93827000000E+00  0.93827000000E+00 0.  1.
     999902    2    1    2    0    0  0.13202778350E-01  0.14222138529E-01 -0.16207861657E-01  0.10186460652E+01  0.10183322291E+01 0.  0.
     999903    2    3    3    0    0 -0.94414646830E-01 -0.72515045345E-01  0.37010904705E-01  0.12626885438E+00  0.20036446313E-01 0.  0.
         14    1    1    2    0    0 -0.13202778350E-01 -0.14222138529E-01  0.16207861657E-01  0.25283934821E-01  0.00000000000E+00 0. -1.
     999901    1    3    3    0    0  0.10761742518E+00  0.86737183873E-01 -0.53218766362E-01  0.89237721080E+00  0.88000000000E+00 0. -1.
        -11    1    4    4    0    0 -0.55812036453E-01 -0.31014082223E-01  0.23132160810E-01  0.67913288051E-01  0.51100000000E-03 0. -1.
         11    1    4    4    0    0 -0.38602610378E-01 -0.41500963122E-01  0.13878743895E-01  0.58355566325E-01  0.51100000000E-03 0.  1.
</event>
<event>
 8    1  0.1088270E+005  0.1043930E+01  0.7957747E-01            NaN
         13   -1    0    0    0    0  0.00000000000E+00  0.00000000000E+00  0.74505805969E-08  0.10566000000E+00  0.10566000000E+00 0. -1.
     999900   -1    0    0    0    0 -0.00000000000E+00 -0.00000000000E+00 -0.74505805969E-08  0.93827000000E+00  0.93827000000E+00 0.  1.
     999902    2    1    2    0    0  0.22235856055E-01 -0.32501437589E-02  0.13073065071E-03  0.10214574875E+01  0.10212102550E+01 0.  0.
     999903    2    3    3    0    0  0.62654682222E-01  0.16645856007E-01 -0.11431769694E+00  0.13290362028E+00  0.19802593861E-01 0.  0.
         14    1    1    2    0    0 -0.22235856055E-01  0.32501437589E-02 -0.13073065071E-03  0.22472512531E-01  0.00000000000E+00 0. -1.
     999901    1    3    3    0    0 -0.40418826166E-01 -0.19895999766E-01  0.11444842759E+00  0.88855386719E+00  0.88000000000E+00 0. -1.
        -11    1    4    4    0    0  0.78674858640E-02  0.61251675491E-02 -0.78364154952E-02  0.12691947846E-01  0.51100000000E-03 0. -1.
         11    1    4    4    0    0  0.54787196358E-01  0.10520688458E-01 -0.10648128145E+00  0.12021167243E+00  0.51100000000E-03 0.  1.
</event>
<event>
 8    1  0.1088270E+005  0.1043930E+01  0.7957747E-01            NaN
         13   -1    0    0    0    0  0.00000000000E+00  0.00000000000E+00  0.74505805969E-08  0.10566000000E+00  0.10566000000E+00 0. -1.
     999900   -1    0    0    0    0 -0.00000000000E+00 -0.00000000000E+00 -0.74505805969E-08  0.93827000000E+00  0.93827000000E+00 0.  1.
     999902    2    1    2    0    0  0.20461866481E-01 -0.52204608880E-02  0.13237293913E-01  0.10190067751E+01  0.10187019390E+01 0.  0.
     999903    2    3    3    0    0  0.61842316974E-01  0.12564889378E-01 -0.11100755878E+00  0.12913855796E+00  0.19280571351E-01 0.  0.
         14    1    1    2    0    0 -0.20461866481E-01  0.52204608880E-02 -0.13237293913E-01  0.24923224950E-01  0.00000000000E+00 0.  1.
     999901    1    3    3    0    0 -0.41380450493E-01 -0.17785350266E-01  0.12424485269E+00  0.88986821709E+00  0.88000000000E+00 0. -1.
        -11    1    4    4    0    0  0.36924205132E-01  0.11928950301E-01 -0.83111905876E-01  0.91725387976E-01  0.51100000000E-03 0.  1.
         11    1    4    4    0    0  0.24918111842E-01  0.63593907777E-03 -0.27895652904E-01  0.37413169984E-01  0.51100000000E-03 0. -1.
</event>
<event>
 8    1  0.1088270E+005  0.1043930E+01  0.7957747E-01            NaN
         13   -1    0    0    0    0  0.00000000000E+00  0.00000000000E+00  0.74505805969E-08  0.10566000000E+00  0.10566000000E+00 0. -1.
     999900   -1    0    0    0    0 -0.00000000000E+00 -0.00000000000E+00 -0.74505805969E-08  0.93827000000E+00  0.93827000000E+00 0.  1.
     999902    2    1    2    0    0  0.15826477257E-01  0.96220172835E-02  0.14537383502E-01  0.10203843822E+01  0.10201126856E+01 0.  0.
     999903    2    3    3    0    0  0.46791738544E-01 -0.11836717073E+00 -0.14698432718E-01  0.13010644098E+00  0.22613893011E-01 0.  0.
         14    1    1    2    0    0 -0.15826477257E-01 -0.96220172835E-02 -0.14537383502E-01  0.23545617810E-01  0.00000000000E+00 0.  1.
     999901    1    3    3    0    0 -0.30965261286E-01  0.12798918802E+00  0.29235816220E-01  0.89027794121E+00  0.88000000000E+00 0.  1.
        -11    1    4    4    0    0  0.23078578164E-01 -0.74477257655E-01  0.43107162366E-03  0.77973903466E-01  0.51100000000E-03 0.  1.
         11    1    4    4    0    0  0.23713160380E-01 -0.43889913076E-01 -0.15129504341E-01  0.52132537514E-01  0.51100000000E-03 0. -1.
</event>
<event>
 8    1  0.1088270E+005  0.1043930E+01  0.7957747E-01            NaN
         13   -1    0    0    0    0  0.00000000000E+00  0.00000000000E+00  0.74505805969E-08  0.10566000000E+00  0.10566000000E+00 0.  1.
     999900   -1    0    0    0    0 -0.00000000000E+00 -0.00000000000E+00 -0.74505805969E-08  0.93827000000E+00  0.93827000000E+00 0. -1.
     999902    2    1    2    0    0  0.11200545124E-01 -0.16356651377E-01  0.13333762966E-01  0.10200389663E+01  0.10197591438E+01 0.  0.
     999903    2    3    3    0    0 -0.73197311375E-01 -0.97536718346E-01 -0.42297235494E-01  0.13054022577E+00  0.19504783909E-01 0.  0.
         14    1    1    2    0    0 -0.11200545124E-01  0.16356651377E-01 -0.13333762966E-01  0.23891033678E-01  0.00000000000E+00 0. -1.
     999901    1    3    3    0    0  0.84397856499E-01  0.81180066969E-01  0.55630998460E-01  0.88949874055E+00  0.88000000000E+00 0.  1.
        -11    1    4    4    0    0 -0.38807703681E-01 -0.42781282926E-01 -0.28552764944E-01  0.64434443745E-01  0.51100000000E-03 0.  1.
         11    1    4    4    0    0 -0.34389607694E-01 -0.54755435421E-01 -0.13744470550E-01  0.66105782025E-01  0.51100000000E-03 0. -1.
</event>
<event>
 8    1  0.1088270E+005  0.1043930E+01  0.7957747E-01            NaN
         13   -1    0    0    0    0  0.00000000000E+00  0.00000000000E+00  0.74505805969E-08  0.10566000000E+00  0.10566000000E+00 0.  1.
     999900   -1    0    0    0    0 -0.00000000000E+00 -0.00000000000E+00 -0.74505805969E-08  0.93827000000E+00  0.93827000000E+00 0. -1.
     999902    2    1    2    0    0 -0.20577126155E-01 -0.83867685129E-03  0.95374026981E-02  0.10212345478E+01  0.10209823300E+01 0.  0.
     999903    2    3    3    0    0 -0.12663070523E-01 -0.12781382882E+00  0.28991140140E-01  0.13187310869E+00  0.73008491540E-02 0.  0.
         14    1    1    2    0    0  0.20577126155E-01  0.83867685129E-03 -0.95374026981E-02  0.22695452185E-01  0.00000000000E+00 0. -1.
     999901    1    3    3    0    0 -0.79140556317E-02  0.12697515197E+00 -0.19453737442E-01  0.88936143912E+00  0.88000000000E+00 0.  1.
        -11    1    4    4    0    0 -0.26039435155E-02 -0.60915079830E-01  0.14942807732E-01  0.62777194079E-01  0.51100000000E-03 0.  1.
         11    1    4    4    0    0 -0.10059127008E-01 -0.66898748987E-01  0.14048332408E-01  0.69095914616E-01  0.51100000000E-03 0. -1.
</event>
<event>
 8    1  0.1088270E+005  0.1043930E+01  0.7957747E-01            NaN
         13   -1    0    0    0    0  0.00000000000E+00  0.00000000000E+00  0.74505805969E-08  0.10566000000E+00  0.10566000000E+00 0.  1.
     999900   -1    0    0    0    0 -0.00000000000E+00 -0.00000000000E+00 -0.74505805969E-08  0.93827000000E+00  0.93827000000E+00 0.  1.
     999902    2    1    2    0    0 -0.22407701891E-01  0.97771994724E-02 -0.54521150925E-03  0.10194760435E+01  0.10191827153E+01 0.  0.
     999903    2    3    3    0    0  0.50296828358E-01 -0.81667393360E-01  0.82266386686E-01  0.12790113184E+00  0.19789064334E-01 0.  0.
         14    1    1    2    0    0  0.22407701891E-01 -0.97771994724E-02  0.54521150925E-03  0.24453956513E-01  0.00000000000E+00 0. -1.
     999901    1    3    3    0    0 -0.72704530249E-01  0.91444592832E-01 -0.82811598196E-01  0.89157491164E+00  0.88000000000E+00 0.  1.
        -11    1    4    4    0    0  0.13273235643E-01 -0.35157386299E-01  0.40471454823E-01  0.55230610826E-01  0.51100000000E-03 0.  1.
         11    1    4    4    0    0  0.37023592715E-01 -0.46510007061E-01  0.41794931864E-01  0.72670521017E-01  0.51100000000E-03 0. -1.
</event>
<event>
 8    1  0.1088270E+005  0.1043930E+01  0.7957747E-01            NaN
         13   -1    0    0    0    0  0.00000000000E+00  0.00000000000E+00  0.74505805969E-08  0.10566000000E+00  0.10566000000E+00 0.  1.
     999900   -1    0    0    0    0 -0.00000000000E+00 -0.00000000000E+00 -0.74505805969E-08  0.93827000000E+00  0.93827000000E+00 0.  1.
     999902    2    1    2    0    0  0.23265695853E-01 -0.22679286588E-03 -0.44150213290E-02  0.10202480142E+01  0.10199731242E+01 0.  0.
     999903    2    3    3    0    0  0.79507518265E-01 -0.83470196668E-01 -0.62552482662E-01  0.13262615142E+00  0.19701871991E-01 0.  0.
         14    1    1    2    0    0 -0.23265695853E-01  0.22679286588E-03  0.44150213290E-02  0.23681985809E-01  0.00000000000E+00 0. -1.
     999901    1    3    3    0    0 -0.56241822412E-01  0.83243403802E-01  0.58137461333E-01  0.88762186277E+00  0.88000000000E+00 0. -1.
        -11    1    4    4    0    0  0.49811674913E-01 -0.65185551652E-01 -0.45270871842E-01  0.93702038719E-01  0.51100000000E-03 0. -1.
         11    1    4    4    0    0  0.29695843352E-01 -0.18284645016E-01 -0.17281610821E-01  0.38924112697E-01  0.51100000000E-03 0.  1.
</event>
<event>
 8    1  0.1088270E+005  0.1043930E+01  0.7957747E-01            NaN
         13   -1    0    0    0    0  0.00000000000E+00  0.00000000000E+00  0.74505805969E-08  0.10566000000E+00  0.10566000000E+00 0. -1.
     999900   -1    0    0    0    0 -0.00000000000E+00 -0.00000000000E+00 -0.74505805969E-08  0.93827000000E+00  0.93827000000E+00 0.  1.
     999902    2    1    2    0    0  0.40456421945E-02  0.16240595492E-01 -0.15812301297E-01  0.10209049477E+01  0.10206452661E+01 0.  0.
     999903    2    3    3    0    0 -0.60337372714E-01 -0.10826061055E+00  0.29355861186E-01  0.12866849592E+00  0.18244366639E-01 0.  0.
         14    1    1    2    0    0 -0.40456421945E-02 -0.16240595492E-01  0.15812301297E-01  0.23025052334E-01  0.00000000000E+00 0. -1.
     999901    1    3    3    0    0  0.64383014909E-01  0.12450120604E+00 -0.45168162484E-01  0.89223645174E+00  0.88000000000E+00 0. -1.
        -11    1    4    4    0    0 -0.49130575558E-01 -0.77596292091E-01  0.27884479730E-01  0.95983349242E-01  0.51100000000E-03 0.  1.
         11    1    4    4    0    0 -0.11206797156E-01 -0.30664318461E-01  0.14713814559E-02  0.32685146681E-01  0.51100000000E-03 0. -1.
</event>
<event>
 8    1  0.1088270E+005  0.1043930E+01  0.7957747E-01            NaN
         13   -1    0    0    0    0  0.00000000000E+00  0.00000000000E+00  0.74505805969E-08  0.10566000000E+00  0.10566000000E+00 0. -1.
     999900   -1    0    0    0    0 -0.00000000000E+00 -0.00000000000E+00 -0.74505805969E-08  0.93827000000E+00  0.93827000000E+00 0.  1.
     999902    2    1    2    0    0 -0.16067657790E-01 -0.24296507087E-02 -0.17245909163E-01  0.10202341309E+01  0.10199589147E+01 0.  0.
     999903    2    3    3    0    0 -0.11895816066E+00  0.17106493992E-01 -0.54101484752E-01  0.13325811658E+00  0.19674319744E-01 0.  0.
         14    1    1    2    0    0  0.16067657790E-01  0.24296507087E-02  0.17245909163E-01  0.23695869098E-01  0.00000000000E+00 0. -1.
     999901    1    3    3    0    0  0.10289050287E+00 -0.19536144701E-01  0.36855575589E-01  0.88697601432E+00  0.88000000000E+00 0.  1.
        -11    1    4    4    0    0 -0.56520486040E-01  0.11054985392E-01 -0.15661546960E-01  0.59685201000E-01  0.51100000000E-03 0. -1.
         11    1    4    4    0    0 -0.62437674622E-01  0.60515086003E-02 -0.38439937792E-01  0.73572915580E-01  0.51100000000E-03 0.  1.
</event>
<event>
 8    1  0.1088270E+005  0.1043930E+01  0.7957747E-01            NaN
         13   -1    0    0    0    0  0.00000000000E+00  0.00000000000E+00  0.74505805969E-08  0.10566000000E+00  0.10566000000E+00 0. -1.
     999900   -1    0    0    0    0 -0.00000000000E+00 -0.00000000000E+00 -0.74505805969E-08  0.93827000000E+00  0.93827000000E+00 0. -1.
     999902    2    1    2    0    0  0.19040019758E-01  0.35502867831E-02  0.13047969329E-01  0.10205767049E+01  0.10203094796E+01 0.  0.
     999903    2    3    3    0    0  0.18877829549E-01  0.45434010737E-01  0.12175335243E+00  0.13289932378E+00  0.20438435645E-01 0.  0.
         14    1    1    2    0    0 -0.19040019758E-01 -0.35502867831E-02 -0.13047969329E-01  0.23353295104E-01  0.00000000000E+00 0.  1.
     999901    1    3    3    0    0  0.16219020857E-03 -0.41883723954E-01 -0.10870538310E+00  0.88767738112E+00  0.88000000000E+00 0. -1.
        -11    1    4    4    0    0  0.44836562785E-02  0.29547830398E-01  0.52623109964E-01  0.60519668523E-01  0.51100000000E-03 0. -1.
         11    1    4    4    0    0  0.14394173271E-01  0.15886180339E-01  0.69130242467E-01  0.72379655253E-01  0.51100000000E-03 0.  1.
</event>
<event>
 8    1  0.1201652E+005  0.1043930E+01  0.7957747E-01            NaN
         13   -1    0    0    0    0  0.00000000000E+00  0.00000000000E+00  0.74505805969E-08  0.10566000000E+00  0.10566000000E+00 0. -1.
     999900   -1    0    0    0    0 -0.00000000000E+00 -0.00000000000E+00 -0.74505805969E-08  0.93827000000E+00  0.93827000000E+00 0.  1.
     999902    2    1    2    0    0  0.68210355746E-02 -0.15958047310E-01 -0.16831910769E-01  0.10197535855E+01  0.10194669568E+01 0.  0.
     999903    2    3    3    0    0 -0.52325254157E-02  0.60058799284E-01 -0.11455671236E+00  0.13100503488E+00  0.20115668586E-01 0.  0.
         14    1    1    2    0    0 -0.68210355746E-02  0.15958047310E-01  0.16831910769E-01  0.24176414548E-01  0.00000000000E+00 0. -1.
     999901    1    3    3    0    0  0.12053560990E-01 -0.76016846594E-01  0.97724801594E-01  0.88874855057E+00  0.88000000000E+00 0. -1.
        -11    1    4    4    0    0 -0.64650798781E-02  0.32681408754E-01 -0.43137750631E-01  0.54506865498E-01  0.51100000000E-03 0.  1.
         11    1    4    4    0    0  0.12325544624E-02  0.27377390531E-01 -0.71418961732E-01  0.76498169381E-01  0.51100000000E-03 0. -1.
</event>
<event>
 8    1  0.1088270E+005  0.1043930E+01  0.7957747E-01            NaN
         13   -1    0    0    0    0  0.00000000000E+00  0.00000000000E+00  0.74505805969E-08  0.10566000000E+00  0.10566000000E+00 0.  1.
     999900   -1    0    0    0    0 -0.00000000000E+00 -0.00000000000E+00 -0.74505805969E-08  0.93827000000E+00  0.93827000000E+00 0. -1.
     999902    2    1    2    0    0  0.27885979761E-02  0.20828262901E-01 -0.12499132591E-01  0.10194796190E+01  0.10191863777E+01 0.  0.
     999903    2    3    3    0    0  0.65803591109E-01  0.47230247283E-01 -0.10266766590E+00  0.13223764609E+00  0.19629991380E-01 0.  0.
         14    1    1    2    0    0 -0.27885979761E-02 -0.20828262901E-01  0.12499132591E-01  0.24450380972E-01  0.00000000000E+00 0. -1.
     999901    1    3    3    0    0 -0.63014993133E-01 -0.26401984382E-01  0.90168533308E-01  0.88724197294E+00  0.88000000000E+00 0.  1.
        -11    1    4    4    0    0  0.43259309894E-01  0.33138483426E-01 -0.53655695998E-01  0.76476936460E-01  0.51100000000E-03 0. -1.
         11    1    4    4    0    0  0.22544281216E-01  0.14091763857E-01 -0.49011969901E-01  0.55760709633E-01  0.51100000000E-03 0.  1.
</event>
<event>
 8    1  0.1088270E+005  0.1043930E+01  0.7957747E-01            NaN
         13   -1    0    0    0    0  0.00000000000E+00  0.00000000000E+00  0.74505805969E-08  0.10566000000E+00  0.10566000000E+00 0. -1.
     999900   -1    0    0    0    0 -0.00000000000E+00 -0.00000000000E+00 -0.74505805969E-08  0.93827000000E+00  0.93827000000E+00 0. -1.
     999902    2    1    2    0    0 -0.12461859372E-01  0.17052494080E-01 -0.89855697846E-02  0.10209773104E+01  0.10207192770E+01 0.  0.
     999903    2    3    3    0    0  0.25845230822E-02  0.11620957895E+00 -0.62962526990E-01  0.13363744714E+00  0.19579108124E-01 0.  0.
         14    1    1    2    0    0  0.12461859372E-01 -0.17052494080E-01  0.89855697846E-02  0.22952689553E-01  0.00000000000E+00 0.  1.
     999901    1    3    3    0    0 -0.15046382454E-01 -0.99157084865E-01  0.53976957206E-01  0.88733986331E+00  0.88000000000E+00 0.  1.
        -11    1    4    4    0    0 -0.34976262825E-02  0.10542128581E+00 -0.56349236862E-01  0.11958837112E+00  0.51100000000E-03 0. -1.
         11    1    4    4    0    0  0.60821493647E-02  0.10788293135E-01 -0.66132901281E-02  0.14049076019E-01  0.51100000000E-03 0.  1.
</event>
<event>
 7    1  0.1088270E+005  0.1043930E+01  0.7957747E-01            NaN
         13   -1    0    0    0    0  0.00000000000E+00  0.00000000000E+00  0.74505805969E-08  0.10566000000E+00  0.10566000000E+00 0. -1.
     999900   -1    0    0    0    0 -0.00000000000E+00 -0.00000000000E+00 -0.74505805969E-08  0.93827000000E+00  0.93827000000E+00 0.  1.
     999903    2    1    2    0    0  0.12703041834E-04  0.25729649632E-01 -0.60987402771E-01  0.68857507055E-01  0.18970449377E-01 0.  0.
         14    1    1    2    0    0 -0.70435815302E-01 -0.35133574474E-01 -0.36650537916E-01  0.86826459459E-01  0.00000000000E+00 0.  1.
     999901    1    1    2    0    0  0.70423112260E-01  0.94039248422E-02  0.97637940687E-01  0.88824603349E+00  0.88000000000E+00 0. -1.
        -11    1    3    3    0    0  0.53516150861E-02  0.61586490404E-02 -0.34693725682E-01  0.35643855918E-01  0.51100000000E-03 0.  1.
         11    1    3    3    0    0 -0.53389120443E-02  0.19571000592E-01 -0.26293677089E-01  0.33213651137E-01  0.51100000000E-03 0. -1.
</event>
<event>
 8    1  0.1088270E+005  0.1043930E+01  0.7957747E-01            NaN
         13   -1    0    0    0    0  0.00000000000E+00  0.00000000000E+00  0.74505805969E-08  0.10566000000E+00  0.10566000000E+00 0. -1.
     999900   -1    0    0    0    0 -0.00000000000E+00 -0.00000000000E+00 -0.74505805969E-08  0.93827000000E+00  0.93827000000E+00 0. -1.
     999902    2    1    2    0    0  0.87804929426E-02 -0.21760070083E-01 -0.69039976384E-02  0.10194705869E+01  0.10191771262E+01 0.  0.
     999903    2    3    3    0    0 -0.11250954341E+00  0.38349085611E-01 -0.44119743709E-01  0.12834242816E+00  0.19904204522E-01 0.  0.
         14    1    1    2    0    0 -0.87804929426E-02  0.21760070083E-01  0.69039976384E-02  0.24459413111E-01  0.00000000000E+00 0. -1.
     999901    1    3    3    0    0  0.12129003635E+00 -0.60109155694E-01  0.37215746070E-01  0.89112815872E+00  0.88000000000E+00 0.  1.
        -11    1    4    4    0    0 -0.50586161518E-01  0.21299751442E-01 -0.30097432807E-01  0.62599965904E-01  0.51100000000E-03 0. -1.
         11    1    4    4    0    0 -0.61923381888E-01  0.17049334169E-01 -0.14022310901E-01  0.65742462261E-01  0.51100000000E-03 0.  1.
</event>
<event>
 8    1  0.1088270E+005  0.1043930E+01  0.7957747E-01            NaN
         13   -1    0    0    0    0  0.00000000000E+00  0.00000000000E+00  0.74505805969E-08  0.10566000000E+00  0.10566000000E+00 0.  1.
     999900   -1    0    0    0    0 -0.00000000000E+00 -0.00000000000E+00 -0.74505805969E-08  0.93827000000E+00  0.93827000000E+00 0. -1.
     999902    2    1    2    0    0 -0.18141480913E-01  0.11386466435E-01  0.94016790407E-02  0.10205386230E+01  0.10202705154E+01 0.  0.
     999903    2    3    3    0    0 -0.17294697477E-02 -0.37479475735E-01 -0.12205009557E+00  0.12928287777E+00  0.20251777415E-01 0.  0.
         14    1    1    2    0    0  0.18141480913E-01 -0.11386466435E-01 -0.94016790407E-02  0.23391376967E-01  0.00000000000E+00 0.  1.
     999901    1    3    3    0    0 -0.16412011166E-01  0.48865942170E-01  0.13145177461E+00  0.89125574526E+00  0.88000000000E+00 0.  1.
        -11    1    4    4    0    0  0.66747077392E-02 -0.31309429491E-01 -0.86653890057E-01  0.92379596673E-01  0.51100000000E-03 0. -1.
         11    1    4    4    0    0 -0.84041774869E-02 -0.61700462441E-02 -0.35396205516E-01  0.36903281098E-01  0.51100000000E-03 0.  1.
</event>
<event>
 8    1  0.1088270E+005  0.1043930E+01  0.7957747E-01            NaN
         13   -1    0    0    0    0  0.00000000000E+00  0.00000000000E+00  0.74505805969E-08  0.10566000000E+00  0.10566000000E+00 0.  1.
     999900   -1    0    0    0    0 -0.00000000000E+00 -0.00000000000E+00 -0.74505805969E-08  0.93827000000E+00  0.93827000000E+00 0. -1.
     999902    2    1    2    0    0 -0.42786058299E-02  0.20834601622E-01 -0.88459767077E-02  0.10208944102E+01  0.10206344882E+01 0.  0.
     999903    2    3    3    0    0  0.71739033065E-01 -0.64641158338E-01  0.82812333753E-01  0.12876996103E+00  0.19971280030E-01 0.  0.
         14    1    1    2    0    0  0.42786058299E-02 -0.20834601622E-01  0.88459767077E-02  0.23035589780E-01  0.00000000000E+00 0.  1.
     999901    1    3    3    0    0 -0.76017638895E-01  0.85475759960E-01 -0.91658310461E-01  0.89212444919E+00  0.88000000000E+00 0.  1.
        -11    1    4    4    0    0  0.60692940476E-01 -0.59577604434E-01  0.64301272775E-01  0.10662100532E+00  0.51100000000E-03 0.  1.
         11    1    4    4    0    0  0.11046092589E-01 -0.50635539035E-02  0.18511060977E-01  0.22148955712E-01  0.51100000000E-03 0. -1.
</event>
<event>
 8    1  0.1088270E+005  0.1043930E+01  0.7957747E-01            NaN
         13   -1    0    0    0    0  0.00000000000E+00  0.00000000000E+00  0.74505805969E-08  0.10566000000E+00  0.10566000000E+00 0. -1.
     999900   -1    0    0    0    0 -0.00000000000E+00 -0.00000000000E+00 -0.74505805969E-08  0.93827000000E+00  0.93827000000E+00 0.  1.
     999902    2    1    2    0    0  0.20142037897E-01  0.97088204813E-02 -0.68974502865E-02  0.10205304764E+01  0.10202621798E+01 0.  0.
     999903    2    3    3    0    0  0.75217020089E-01  0.70455798315E-01 -0.82495960385E-01  0.13349125305E+00  0.19816950647E-01 0.  0.
         14    1    1    2    0    0 -0.20142037897E-01 -0.97088204813E-02  0.68974502865E-02  0.23399523633E-01  0.00000000000E+00 0. -1.
     999901    1    3    3    0    0 -0.55074982192E-01 -0.60746977834E-01  0.75598510099E-01  0.88703922332E+00  0.88000000000E+00 0. -1.
        -11    1    4    4    0    0  0.61280329761E-01  0.45515286020E-01 -0.61619481662E-01  0.98102710046E-01  0.51100000000E-03 0.  1.
         11    1    4    4    0    0  0.13936690327E-01  0.24940512296E-01 -0.20876478724E-01  0.35388543001E-01  0.51100000000E-03 0. -1.
</event>
<event>
 8    1  0.1088270E+005  0.1043930E+01  0.7957747E-01            NaN
         13   -1    0    0    0    0  0.00000000000E+00  0.00000000000E+00  0.74505805969E-08  0.10566000000E+00  0.10566000000E+00 0.  1.
     999900   -1    0    0    0    0 -0.00000000000E+00 -0.00000000000E+00 -0.74505805969E-08  0.93827000000E+00  0.93827000000E+00 0. -1.
     999902    2    1    2    0    0  0.20319941363E-01  0.44146300096E-02  0.12289653077E-01  0.10197758172E+01  0.10194897217E+01 0.  0.
     999903    2    3    3    0    0  0.24149839434E-01  0.83309436261E-01 -0.94388662890E-01  0.12982114324E+00  0.20509330410E-01 0.  0.
         14    1    1    2    0    0 -0.20319941363E-01 -0.44146300096E-02 -0.12289653077E-01  0.24154182823E-01  0.00000000000E+00 0. -1.
     999901    1    3    3    0    0 -0.38298980708E-02 -0.78894806251E-01  0.10667831597E+00  0.88995467394E+00  0.88000000000E+00 0.  1.
        -11    1    4    4    0    0  0.11201948457E-01  0.68629726177E-01 -0.74464629920E-01  0.10188604023E+00  0.51100000000E-03 0.  1.
         11    1    4    4    0    0  0.12947890977E-01  0.14679710084E-01 -0.19924032971E-01  0.27935103002E-01  0.51100000000E-03 0. -1.
</event>
<event>
 8    1  0.1088270E+005  0.1043930E+01  0.7957747E-01            NaN
         13   -1    0    0    0    0  0.00000000000E+00  0.00000000000E+00  0.74505805969E-08  0.10566000000E+00  0.10566000000E+00 0. -1.
     999900   -1    0    0    0    0 -0.00000000000E+00 -0.00000000000E+00 -0.74505805969E-08  0.93827000000E+00  0.93827000000E+00 0. -1.
     999902    2    1    2    0    0 -0.20622278209E-01 -0.11479309395E-01  0.42811629904E-02  0.10199428939E+01  0.10196607895E+01 0.  0.
     999903    2    3    3    0    0  0.81246909383E-01  0.95696346604E-01 -0.92549382123E-02  0.12750400038E+00  0.20316623601E-01 0.  0.
         14    1    1    2    0    0  0.20622278209E-01  0.11479309395E-01 -0.42811629904E-02  0.23987106105E-01  0.00000000000E+00 0.  1.
     999901    1    3    3    0    0 -0.10186918759E+00 -0.10717565600E+00  0.13536101203E-01  0.89243889351E+00  0.88000000000E+00 0. -1.
        -11    1    4    4    0    0  0.15039378740E-01  0.73066087497E-02 -0.97458207197E-03  0.16756502484E-01  0.51100000000E-03 0. -1.
         11    1    4    4    0    0  0.66207530643E-01  0.88389737854E-01 -0.82803561403E-02  0.11074749790E+00  0.51100000000E-03 0.  1.
</event>
<event>
 8    1  0.1088270E+005  0.1043930E+01  0.7957747E-01            NaN
         13   -1    0    0    0    0  0.00000000000E+00  0.00000000000E+00  0.74505805969E-08  0.10566000000E+00  0.10566000000E+00 0. -1.
     999900   -1    0    0    0    0 -0.00000000000E+00 -0.00000000000E+00 -0.74505805969E-08  0.93827000000E+00  0.93827000000E+00 0. -1.
     999902    2    1    2    0    0 -0.15859834079E-01 -0.99283920316E-02  0.11699248609E-01  0.10218623829E+01  0.10216240747E+01 0.  0.
     999903    2    3    3    0    0 -0.12586042089E-01  0.83396909070E-01 -0.97097691089E-01  0.13025871333E+00  0.20637778143E-01 0.  0.
         14    1    1    2    0    0  0.15859834079E-01  0.99283920316E-02 -0.11699248609E-01  0.22067617075E-01  0.00000000000E+00 0.  1.
     999901    1    3    3    0    0 -0.32737919902E-02 -0.93325301101E-01  0.10879693970E+00  0.89160366959E+00  0.88000000000E+00 0.  1.
        -11    1    4    4    0    0 -0.98859763618E-02  0.78616912007E-01 -0.96266184249E-01  0.12468276037E+00  0.51100000000E-03 0. -1.
         11    1    4    4    0    0 -0.27000657274E-02  0.47799970624E-02 -0.83150684017E-03  0.55759529655E-02  0.51100000000E-03 0.  1.
</event>
<event>
 8    1  0.1088270E+005  0.1043930E+01  0.7957747E-01            NaN
         13   -1    0    0    0    0  0.00000000000E+00  0.00000000000E+00  0.74505805969E-08  0.10566000000E+00  0.10566000000E+00 0. -1.
     999900   -1    0    0    0    0 -0.00000000000E+00 -0.00000000000E+00 -0.74505805969E-08  0.93827000000E+00  0.93827000000E+00 0. -1.
     999902    2    1    2    0    0 -0.64206966675E-02 -0.20331212675E-01  0.11423243593E-01  0.10197416960E+01  0.10194547820E+01 0.  0.
     999903    2    3    3    0    0  0.29578452808E-01  0.12059776873E+00  0.21673544392E-01  0.12774282539E+00  0.20731141278E-01 0.  0.
         14    1    1    2    0    0  0.64206966675E-02  0.20331212675E-01 -0.11423243593E-01  0.24188303965E-01  0.00000000000E+00 0. -1.
     999901    1    3    3    0    0 -0.35999149476E-01 -0.14092898141E+00 -0.10250300799E-01  0.89199887064E+00  0.88000000000E+00 0. -1.
        -11    1    4    4    0    0  0.61910832587E-02  0.13099784480E-01 -0.34363399554E-02  0.14899779147E-01  0.51100000000E-03 0. -1.
         11    1    4    4    0    0  0.23387369549E-01  0.10749798425E+00  0.25109884347E-01  0.11284304624E+00  0.51100000000E-03 0.  1.
</event>
<event>
 8    1  0.1088270E+005  0.1043930E+01  0.7957747E-01            NaN
         13   -1    0    0    0    0  0.00000000000E+00  0.00000000000E+00  0.74505805969E-08  0.10566000000E+00  0.10566000000E+00 0. -1.
     999900   -1    0    0    0    0 -0.00000000000E+00 -0.00000000000E+00 -0.74505805969E-08  0.93827000000E+00  0.93827000000E+00 0. -1.
     999902    2    1    2    0    0 -0.13479038671E-01  0.12871906766E-01  0.14723495721E-01  0.10201781202E+01  0.10199015860E+01 0.  0.
     999903    2    3    3    0    0 -0.63968434627E-01 -0.10247786226E+00  0.45711478783E-01  0.13067544826E+00  0.19820711487E-01 0.  0.
         14    1    1    2    0    0  0.13479038671E-01 -0.12871906766E-01 -0.14723495721E-01  0.23751879789E-01  0.00000000000E+00 0.  1.
     999901    1    3    3    0    0  0.50489395957E-01  0.11534976902E+00 -0.30987983062E-01  0.88950267195E+00  0.88000000000E+00 0. -1.
        -11    1    4    4    0    0 -0.37721560282E-01 -0.46421800288E-01  0.15477748048E-01  0.61787712838E-01  0.51100000000E-03 0.  1.
         11    1    4    4    0    0 -0.26246874345E-01 -0.56056061967E-01  0.30233730735E-01  0.68887735420E-01  0.51100000000E-03 0. -1.
</event>
<event>
 8    1  0.1088270E+005  0.1043930E+01  0.7957747E-01            NaN
         13   -1    0    0    0    0  0.00000000000E+00  0.00000000000E+00  0.74505805969E-08  0.10566000000E+00  0.10566000000E+00 0.  1.
     999900   -1    0    0    0    0 -0.00000000000E+00 -0.00000000000E+00 -0.74505805969E-08  0.93827000000E+00  0.93827000000E+00 0.  1.
     999902    2    1    2    0    0 -0.11512043997E-01  0.17681904083E-01 -0.99943366739E-02  0.10205834016E+01  0.10203163314E+01 0.  0.
     999903    2    3    3    0    0 -0.68100513200E-01  0.57476428935E-01 -0.97449519454E-01  0.13354661095E+00  0.19926582097E-01 0.  0.
         14    1    1    2    0    0  0.11512043997E-01 -0.17681904083E-01  0.99943366739E-02  0.23346598350E-01  0.00000000000E+00 0.  1.
     999901    1    3    3    0    0  0.56588469203E-01 -0.39794524852E-01  0.87455182780E-01  0.88703679070E+00  0.88000000000E+00 0. -1.
        -11    1    4    4    0    0 -0.32137375083E-01  0.19496995945E-01 -0.52548719037E-01  0.64610933452E-01  0.51100000000E-03 0. -1.
         11    1    4    4    0    0 -0.35963138117E-01  0.37979432990E-01 -0.44900800416E-01  0.68935677501E-01  0.51100000000E-03 0.  1.
</event>
<event>
 8    1  0.1088270E+005  0.1043930E+01  0.7957747E-01            NaN
         13   -1    0    0    0    0  0.00000000000E+00  0.00000000000E+00  0.74505805969E-08  0.10566000000E+00  0.10566000000E+00 0.  1.
     999900   -1    0    0    0    0 -0.00000000000E+00 -0.00000000000E+00 -0.74505805969E-08  0.93827000000E+00  0.93827000000E+00 0.  1.
     999902    2    1    2    0    0  0.54964115179E-02  0.19426958892E-01  0.10926845310E-01  0.10209732315E+01  0.10207151053E+01 0.  0.
     999903    2    3    3    0    0  0.23856496061E-01  0.12921226478E+00 -0.16484354137E-01  0.13353800573E+00  0.17196606341E-01 0.  0.
         14    1    1    2    0    0 -0.54964115179E-02 -0.19426958892E-01 -0.10926845310E-01  0.22956768496E-01  0.00000000000E+00 0. -1.
     999901    1    3    3    0    0 -0.18360084543E-01 -0.10978530588E+00  0.27411199448E-01  0.88743522578E+00  0.88000000000E+00 0. -1.
        -11    1    4    4    0    0  0.16783086708E-01  0.95982412799E-01 -0.46252298663E-02  0.97549728029E-01  0.51100000000E-03 0.  1.
         11    1    4    4    0    0  0.70734093530E-02  0.33229851977E-01 -0.11859124271E-01  0.35988277699E-01  0.51100000000E-03 0. -1.
</event>
<event>
 8    1  0.1088270E+005  0.1043930E+01  0.7957747E-01            NaN
         13   -1    0    0    0    0  0.00000000000E+00  0.00000000000E+00  0.74505805969E-08  0.10566000000E+00  0.10566000000E+00 0. -1.
     999900   -1    0    0    0    0 -0.00000000000E+00 -0.00000000000E+00 -0.74505805969E-08  0.93827000000E+00  0.93827000000E+00 0. -1.
     999902    2    1    2    0    0  0.71744811514E-02 -0.23081886228E-01 -0.66421640555E-02  0.10188627904E+01  0.10185543779E+01 0.  0.
     999903    2    3    3    0    0 -0.29743225396E-01  0.78473082063E-01 -0.94561278649E-01  0.12790482322E+00  0.19368126357E-01 0.  0.
         14    1    1    2    0    0 -0.71744811514E-02  0.23081886228E-01  0.66421640555E-02  0.25067209557E-01  0.00000000000E+00 0.  1.
     999901    1    3    3    0    0  0.36917706548E-01 -0.10155496829E+00  0.87919114594E-01  0.89095796722E+00  0.88000000000E+00 0.  1.
        -11    1    4    4    0    0 -0.16154515865E-01  0.64949678732E-01 -0.74583313302E-01  0.10021158064E+00  0.51100000000E-03 0. -1.
         11    1    4    4    0    0 -0.13588709531E-01  0.13523403332E-01 -0.19977965347E-01  0.27693242584E-01  0.51100000000E-03 0.  1.
</event>
<event>
 8    1  0.1088270E+005  0.1043930E+01  0.7957747E-01            NaN
         13   -1    0    0    0    0  0.00000000000E+00  0.00000000000E+00  0.74505805969E-08  0.10566000000E+00  0.10566000000E+00 0.  1.
     999900   -1    0    0    0    0 -0.00000000000E+00 -0.00000000000E+00 -0.74505805969E-08  0.93827000000E+00  0.93827000000E+00 0.  1.
     999902    2    1    2    0    0  0.17415369088E-01 -0.14882863862E-01  0.78905573617E-02  0.10197007695E+01  0.10194128720E+01 0.  0.
     999903    2    3    3    0    0 -0.51542721237E-01  0.38224773612E-01  0.11070824753E+00  0.12944961569E+00  0.19572978854E-01 0.  0.
         14    1    1    2    0    0 -0.17415369088E-01  0.14882863862E-01 -0.78905573617E-02  0.24229230542E-01  0.00000000000E+00 0.  1.
     999901    1    3    3    0    0  0.68958090325E-01 -0.53107637474E-01 -0.10281769016E+00  0.89025115377E+00  0.88000000000E+00 0.  1.
        -11    1    4    4    0    0 -0.24050184956E-01  0.15580042682E-01  0.68277250499E-01  0.74048586638E-01  0.51100000000E-03 0. -1.
         11    1    4    4    0    0 -0.27492536281E-01  0.22644730930E-01  0.42430997026E-01  0.55401029049E-01  0.51100000000E-03 0.  1.
</event>
<event>
 8    1  0.1088270E+005  0.1043930E+01  0.7957747E-01            NaN
         13   -1    0    0    0    0  0.00000000000E+00  0.00000000000E+00  0.74505805969E-08  0.10566000000E+00  0.10566000000E+00 0. -1.
     999900   -1    0    0    0    0 -0.00000000000E+00 -0.00000000000E+00 -0.74505805969E-08  0.93827000000E+00  0.93827000000E+00 0. -1.
     999902    2    1    2    0    0 -0.10924282668E-01  0.20722877324E-01  0.42960247321E-02  0.10201133372E+01  0.10198352746E+01 0.  0.
     999903    2    3    3    0    0  0.80192732582E-01 -0.39632538215E-01  0.90975126991E-01  0.12912604585E+00  0.19885913152E-01 0.  0.
         14    1    1    2    0    0  0.10924282668E-01 -0.20722877324E-01 -0.42960247321E-02  0.23816662757E-01  0.00000000000E+00 0.  1.
     999901    1    3    3    0    0 -0.91117015249E-01  0.60355415539E-01 -0.86679102259E-01  0.89098729139E+00  0.88000000000E+00 0. -1.
        -11    1    4    4    0    0  0.50085673098E-01 -0.26508585812E-01  0.43714107865E-01  0.71571391763E-01  0.51100000000E-03 0.  1.
         11    1    4    4    0    0  0.30107059484E-01 -0.13123952403E-01  0.47261019126E-01  0.57554654089E-01  0.51100000000E-03 0. -1.
</event>
<event>
 8    1  0.1088270E+005  0.1043930E+01  0.7957747E-01            NaN
         13   -1    0    0    0    0  0.00000000000E+00  0.00000000000E+00  0.74505805969E-08  0.10566000000E+00  0.10566000000E+00 0. -1.
     999900   -1    0    0    0    0 -0.00000000000E+00 -0.00000000000E+00 -0.74505805969E-08  0.93827000000E+00  0.93827000000E+00 0. -1.
     999902    2    1    2    0    0  0.18091932503E-01 -0.15568798149E-01  0.25677699075E-02  0.10199237729E+01  0.10196412132E+01 0.  0.
     999903    2    3    3    0    0  0.35243144996E-01 -0.38017747368E-01  0.11932568662E+00  0.13176245279E+00  0.20863750758E-01 0.  0.
         14    1    1    2    0    0 -0.18091932503E-01  0.15568798149E-01 -0.25677699075E-02  0.24006227104E-01  0.00000000000E+00 0.  1.
     999901    1    3    3    0    0 -0.17151212494E-01  0.22448949219E-01 -0.11675791671E+00  0.88816132010E+00  0.88000000000E+00 0. -1.
        -11    1    4    4    0    0  0.81446974610E-02 -0.20507096463E-01  0.64190214119E-01  0.67878728713E-01  0.51100000000E-03 0.  1.
         11    1    4    4    0    0  0.27098447535E-01 -0.17510650905E-01  0.55135472497E-01  0.63883724081E-01  0.51100000000E-03 0. -1.
</event>
<event>
 8    1  0.1088270E+005  0.1043930E+01  0.7957747E-01            NaN
         13   -1    0    0    0    0  0.00000000000E+00  0.00000000000E+00  0.74505805969E-08  0.10566000000E+00  0.10566000000E+00 0.  1.
     999900   -1    0    0    0    0 -0.00000000000E+00 -0.00000000000E+00 -0.74505805969E-08  0.93827000000E+00  0.93827000000E+00 0. -1.
     999902    2    1    2    0    0 -0.14407450894E-01 -0.87101851630E-02 -0.17216705186E-01  0.10198497819E+01  0.10195654568E+01 0.  0.
     999903    2    3    3    0    0  0.63674909340E-01 -0.19638197253E-01 -0.11131900278E+00  0.13132768377E+00  0.20368781827E-01 0.  0.
         14    1    1    2    0    0  0.14407450894E-01  0.87101851630E-02  0.17216705186E-01  0.24080218112E-01  0.00000000000E+00 0.  1.
     999901    1    3    3    0    0 -0.78082360234E-01  0.10928012090E-01  0.94102297598E-01  0.88852209812E+00  0.88000000000E+00 0.  1.
        -11    1    4    4    0    0  0.39650532522E-01 -0.84483431964E-02 -0.48955373612E-01  0.63564368624E-01  0.51100000000E-03 0.  1.
         11    1    4    4    0    0  0.24024376818E-01 -0.11189854057E-01 -0.62363629172E-01  0.67763315148E-01  0.51100000000E-03 0. -1.
</event>
<event>
 8    1  0.1088270E+005  0.1043930E+01  0.7957747E-01            NaN
         13   -1    0    0    0    0  0.00000000000E+00  0.00000000000E+00  0.74505805969E-08  0.10566000000E+00  0.10566000000E+00 0.  1.
     999900   -1    0    0    0    0 -0.00000000000E+00 -0.00000000000E+00 -0.74505805969E-08  0.93827000000E+00  0.93827000000E+00 0. -1.
     999902    2    1    2    0    0 -0.15513760592E-01 -0.15694161114E-01  0.12529749030E-01  0.10185532770E+01  0.10182371040E+01 0.  0.
     999903    2    3    3    0    0 -0.60530174544E-02 -0.77821399865E-01  0.10412336156E+00  0.13157036321E+00  0.19397854394E-01 0.  0.
         14    1    1    2    0    0  0.15513760592E-01  0.15694161114E-01 -0.12529749030E-01  0.25376723026E-01  0.00000000000E+00 0. -1.
     999901    1    3    3    0    0 -0.94607431378E-02  0.62127238750E-01 -0.91593612529E-01  0.88698291377E+00  0.88000000000E+00 0. -1.
        -11    1    4    4    0    0  0.13700038117E-02 -0.33826506195E-01  0.30986067178E-01  0.45896698269E-01  0.51100000000E-03 0.  1.
         11    1    4    4    0    0 -0.74230212661E-02 -0.43994893669E-01  0.73137294381E-01  0.85673664939E-01  0.51100000000E-03 0. -1.
</event>
<event>
 8    1  0.1088270E+005  0.1043930E+01  0.7957747E-01            NaN
         13   -1    0    0    0    0  0.00000000000E+00  0.00000000000E+00  0.74505805969E-08  0.10566000000E+00  0.10566000000E+00 0.  1.
     999900   -1    0    0    0    0 -0.00000000000E+00 -0.00000000000E+00 -0.74505805969E-08  0.93827000000E+00  0.93827000000E+00 0.  1.
     999902    2    1    2    0    0  0.24716271373E-02 -0.13967571139E-01 -0.18376095664E-01  0.10207161490E+01  0.10204521420E+01 0.  0.
     999903    2    3    3    0    0 -0.96992051019E-01  0.82652689356E-01 -0.15844342629E-01  0.12985425864E+00  0.19291455989E-01 0.  0.
         14    1    1    2    0    0 -0.24716271373E-02  0.13967571139E-01  0.18376095664E-01  0.23213850953E-01  0.00000000000E+00 0.  1.
     999901    1    3    3    0    0  0.99463678156E-01 -0.96620260495E-01 -0.25317530350E-02  0.89086189041E+00  0.88000000000E+00 0.  1.
        -11    1    4    4    0    0 -0.16579071215E-01  0.99468842021E-02  0.37148670097E-02  0.19694351108E-01  0.51100000000E-03 0. -1.
         11    1    4    4    0    0 -0.80412979804E-01  0.72705805154E-01 -0.19559209639E-01  0.11015990753E+00  0.51100000000E-03 0.  1.
</event>
<event>
 8    1  0.1088270E+005  0.1043930E+01  0.7957747E-01            NaN
         13   -1    0    0    0    0  0.00000000000E+00  0.00000000000E+00  0.74505805969E-08  0.10566000000E+00  0.10566000000E+00 0. -1.
     999900   -1    0    0    0    0 -0.00000000000E+00 -0.00000000000E+00 -0.74505805969E-08  0.93827000000E+00  0.93827000000E+00 0.  1.
     999902    2    1    2    0    0 -0.52453073120E-04 -0.20698476562E-01  0.95718026928E-02  0.10211254152E+01  0.10208707383E+01 0.  0.
     999903    2    3    3    0    0 -0.84489412258E-01  0.11903312671E-01  0.98721839522E-01  0.13200213585E+00  0.19960276372E-01 0.  0.
         14    1    1    2    0    0  0.52453073120E-04  0.20698476562E-01 -0.95718026928E-02  0.22804584848E-01  0.00000000000E+00 0. -1.
     999901    1    3    3    0    0  0.84436959185E-01 -0.32601789233E-01 -0.89150036830E-01  0.88912327931E+00  0.88000000000E+00 0.  1.
        -11    1    4    4    0    0 -0.30153187042E-01 -0.49464753074E-02  0.38543796429E-01  0.49189101139E-01  0.51100000000E-03 0.  1.
         11    1    4    4    0    0 -0.54336225217E-01  0.16849787979E-01  0.60178043093E-01  0.82813034706E-01  0.51100000000E-03 0. -1.
</event>
<event>
 8    1  0.1088270E+005  0.1043930E+01  0.7957747E-01            NaN
         13   -1    0    0    0    0  0.00000000000E+00  0.00000000000E+00  0.74505805969E-08  0.10566000000E+00  0.10566000000E+00 0.  1.
     999900   -1    0    0    0    0 -0.00000000000E+00 -0.00000000000E+00 -0.74505805969E-08  0.93827000000E+00  0.93827000000E+00 0.  1.
     999902    2    1    2    0    0 -0.15919369084E-01 -0.14731902045E-01 -0.81798097505E-02  0.10207488754E+01  0.10204856207E+01 0.  0.
     999903    2    3    3    0    0  0.87925537780E-01 -0.88410611706E-01  0.33881753292E-01  0.13059074787E+00  0.18937628310E-01 0.  0.
         14    1    1    2    0    0  0.15919369084E-01  0.14731902045E-01  0.81798097505E-02  0.23181124594E-01  0.00000000000E+00 0. -1.
     999901    1    3    3    0    0 -0.10384490686E+00  0.73678709661E-01 -0.42061563042E-01  0.89015812754E+00  0.88000000000E+00 0. -1.
        -11    1    4    4    0    0  0.46920201304E-01 -0.57906856265E-01  0.14496022165E-01  0.75928289013E-01  0.51100000000E-03 0. -1.
         11    1    4    4    0    0  0.41005336476E-01 -0.30503755441E-01  0.19385731127E-01  0.54662458853E-01  0.51100000000E-03 0.  1.
</event>
<event>
 8    1  0.1088270E+005  0.1043930E+01  0.7957747E-01            NaN
         13   -1    0    0    0    0  0.00000000000E+00  0.00000000000E+00  0.74505805969E-08  0.10566000000E+00  0.10566000000E+00 0. -1.
     999900   -1    0    0    0    0 -0.00000000000E+00 -0.00000000000E+00 -0.74505805969E-08  0.93827000000E+00  0.93827000000E+00 0.  1.
     999902    2    1    2    0    0 -0.11816181099E-01 -0.88938611329E-02 -0.17344557712E-01  0.10211362161E+01  0.10208817832E+01 0.  0.
     999903    2    3    3    0    0  0.12702011450E+00 -0.16269320955E-01 -0.13425241053E-01  0.13021238355E+00  0.19396583199E-01 0.  0.
         14    1    1    2    0    0  0.11816181099E-01  0.88938611329E-02  0.17344557712E-01  0.22793783886E-01  0.00000000000E+00 0. -1.
     999901    1    3    3    0    0 -0.13883629560E+00  0.73754598216E-02 -0.39193166590E-02  0.89092383256E+00  0.88000000000E+00 0.  1.
        -11    1    4    4    0    0  0.60999619488E-01 -0.27269226461E-02 -0.14684566365E-01  0.62803561166E-01  0.51100000000E-03 0. -1.
         11    1    4    4    0    0  0.66020495016E-01 -0.13542398309E-01  0.12593253123E-02  0.67408822385E-01  0.51100000000E-03 0.  1.
</event>
<event>
 8    1  0.1088270E+005  0.1043930E+01  0.7957747E-01            NaN
         13   -1    0    0    0    0  0.00000000000E+00  0.00000000000E+00  0.74505805969E-08  0.10566000000E+00  0.10566000000E+00 0.  1.
     999900   -1    0    0    0    0 -0.00000000000E+00 -0.00000000000E+00 -0.74505805969E-08  0.93827000000E+00  0.93827000000E+00 0. -1.
     999902    2    1    2    0    0  0.46632599214E-02 -0.59500730918E-02 -0.22125459190E-01  0.10205486975E+01  0.10202808234E+01 0.  0.
     999903    2    3    3    0    0  0.10122963660E+00 -0.62735526973E-01  0.49523645554E-01  0.13055810928E+00  0.20239633383E-01 0.  0.
         14    1    1    2    0    0 -0.46632599214E-02  0.59500730918E-02  0.22125459190E-01  0.23381302514E-01  0.00000000000E+00 0.  1.
     999901    1    3    3    0    0 -0.96566376681E-01  0.56785453881E-01 -0.71649104744E-01  0.88999058820E+00  0.88000000000E+00 0. -1.
        -11    1    4    4    0    0  0.60859503642E-01 -0.27033406195E-01  0.22706356997E-01  0.70359960226E-01  0.51100000000E-03 0. -1.
         11    1    4    4    0    0  0.40370132961E-01 -0.35702120778E-01  0.26817288557E-01  0.60198149057E-01  0.51100000000E-03 0.  1.
</event>
<event>
 8    1  0.1088270E+005  0.1043930E+01  0.7957747E-01            NaN
         13   -1    0    0    0    0  0.00000000000E+00  0.00000000000E+00  0.74505805969E-08  0.10566000000E+00  0.10566000000E+00 0. -1.
     999900   -1    0    0    0    0 -0.00000000000E+00 -0.00000000000E+00 -0.74505805969E-08  0.93827000000E+00  0.93827000000E+00 0.  1.
     999902    2    1    2    0    0  0.43681859648E-02  0.10264725306E-01  0.21043898420E-01  0.10201121224E+01  0.10198340311E+01 0.  0.
     999903    2    3    3    0    0  0.37942726374E-01 -0.60303445290E-01  0.10944349524E+00  0.13223735350E+00  0.20801033956E-01 0.  0.
         14    1    1    2    0    0 -0.43681859648E-02 -0.10264725306E-01 -0.21043898420E-01  0.23817877634E-01  0.00000000000E+00 0.  1.
     999901    1    3    3    0    0 -0.33574540410E-01  0.70568170596E-01 -0.88399596816E-01  0.88787476886E+00  0.88000000000E+00 0.  1.
        -11    1    4    4    0    0  0.26921635506E-01 -0.33174725819E-01  0.48593185734E-01  0.64706226225E-01  0.51100000000E-03 0. -1.
         11    1    4    4    0    0  0.11021090869E-01 -0.27128719471E-01  0.60850309503E-01  0.67531127280E-01  0.51100000000E-03 0.  1.
</event>
<event>
 8    1  0.1088270E+005  0.1043930E+01  0.7957747E-01            NaN
         13   -1    0    0    0    0  0.00000000000E+00  0.00000000000E+00  0.74505805969E-08  0.10566000000E+00  0.10566000000E+00 0. -1.
     999900   -1    0    0    0    0 -0.00000000000E+00 -0.00000000000E+00 -0.74505805969E-08  0.93827000000E+00  0.93827000000E+00 0. -1.
     999902    2    1    2    0    0  0.19689329587E-01 -0.12423406467E-01  0.27409535409E-03  0.10206472627E+01  0.10203816683E+01 0.  0.
     999903    2    3    3    0    0  0.52653490312E-01 -0.37018551826E-01  0.11453192810E+00  0.13230813297E+00  0.15656189649E-01 0.  0.
         14    1    1    2    0    0 -0.19689329587E-01  0.12423406467E-01 -0.27409535409E-03  0.23282737298E-01  0.00000000000E+00 0.  1.
     999901    1    3    3    0    0 -0.32964160725E-01  0.24595145359E-01 -0.11425783275E+00  0.88833912973E+00  0.88000000000E+00 0.  1.
        -11    1    4    4    0    0  0.45678861576E-01 -0.32399072108E-01  0.10808968553E+00  0.12173700961E+00  0.51100000000E-03 0. -1.
         11    1    4    4    0    0  0.69746287363E-02 -0.46194797180E-02  0.64422425679E-02  0.10571123364E-01  0.51100000000E-03 0.  1.
</event>
<event>
 8    1  0.1088270E+005  0.1043930E+01  0.7957747E-01            NaN
         13   -1    0    0    0    0  0.00000000000E+00  0.00000000000E+00  0.74505805969E-08  0.10566000000E+00  0.10566000000E+00 0. -1.
     999900   -1    0    0    0    0 -0.00000000000E+00 -0.00000000000E+00 -0.74505805969E-08  0.93827000000E+00  0.93827000000E+00 0.  1.
     999902    2    1    2    0    0  0.36540172656E-02  0.10023523118E-01  0.20476540353E-01  0.10208407912E+01  0.10205796438E+01 0.  0.
     999903    2    3    3    0    0  0.97719380778E-02  0.59330788463E-01  0.11789418571E+00  0.13407203161E+00  0.21462464966E-01 0.  0.
         14    1    1    2    0    0 -0.36540172656E-02 -0.10023523118E-01 -0.20476540353E-01  0.23089208793E-01  0.00000000000E+00 0.  1.
     999901    1    3    3    0    0 -0.61179208122E-02 -0.49307265345E-01 -0.97417645357E-01  0.88676875960E+00  0.88000000000E+00 0.  1.
        -11    1    4    4    0    0  0.92179250369E-02  0.15663601712E-01  0.20919046284E-01  0.27716171796E-01  0.51100000000E-03 0.  1.
         11    1    4    4    0    0  0.55401304088E-03  0.43667186751E-01  0.96975139425E-01  0.10635585981E+00  0.51100000000E-03 0. -1.
</event>
<event>
 8    1  0.1088270E+005  0.1043930E+01  0.7957747E-01            NaN
         13   -1    0    0    0    0  0.00000000000E+00  0.00000000000E+00  0.74505805969E-08  0.10566000000E+00  0.10566000000E+00 0.  1.
     999900   -1    0    0    0    0 -0.00000000000E+00 -0.00000000000E+00 -0.74505805969E-08  0.93827000000E+00  0.93827000000E+00 0. -1.
     999902    2    1    2    0    0 -0.43515778857E-02  0.26846205237E-02  0.22869926819E-01  0.10204954748E+01  0.10202263657E+01 0.  0.
     999903    2    3    3    0    0  0.49933041424E-01  0.27758509274E-01  0.11870390814E+00  0.13327528132E+00  0.20195032573E-01 0.  0.
         14    1    1    2    0    0  0.43515778857E-02 -0.26846205237E-02 -0.22869926819E-01  0.23434525175E-01  0.00000000000E+00 0. -1.
     999901    1    3    3    0    0 -0.54284619309E-01 -0.25073888750E-01 -0.95833981318E-01  0.88722019351E+00  0.88000000000E+00 0. -1.
        -11    1    4    4    0    0  0.21408734824E-01  0.63772857214E-02  0.65709392669E-01  0.69404532315E-01  0.51100000000E-03 0.  1.
         11    1    4    4    0    0  0.28524306599E-01  0.21381223553E-01  0.52994515468E-01  0.63870749004E-01  0.51100000000E-03 0. -1.
</event>
<event>
 8    1  0.1088270E+005  0.1043930E+01  0.7957747E-01            NaN
         13   -1    0    0    0    0  0.00000000000E+00  0.00000000000E+00  0.74505805969E-08  0.10566000000E+00  0.10566000000E+00 0.  1.
     999900   -1    0    0    0    0 -0.00000000000E+00 -0.00000000000E+00 -0.74505805969E-08  0.93827000000E+00  0.93827000000E+00 0.  1.
     999902    2    1    2    0    0 -0.93057656875E-02  0.51581874448E-04 -0.13859733745E-01  0.10272359245E+01  0.10271002641E+01 0.  0.
     999903    2    3    3    0    0  0.11437900819E+00 -0.38844721795E-01  0.57276059341E-01  0.13489566053E+00  0.18022828052E-01 0.  0.
         14    1    1    2    0    0  0.93057656875E-02 -0.51581874448E-04  0.13859733745E-01  0.16694075452E-01  0.00000000000E+00 0.  1.
     999901    1    3    3    0    0 -0.12368477388E+00  0.38896303670E-01 -0.71135793086E-01  0.89234026402E+00  0.88000000000E+00 0.  1.
        -11    1    4    4    0    0  0.41355038885E-01 -0.20078502554E-01  0.29069899294E-01  0.54393985623E-01  0.51100000000E-03 0. -1.
         11    1    4    4    0    0  0.73023969303E-01 -0.18766219241E-01  0.28206160047E-01  0.80501674908E-01  0.51100000000E-03 0.  1.
</event>
<event>
 8    1  0.1088270E+005  0.1043930E+01  0.7957747E-01            NaN
         13   -1    0    0    0    0  0.00000000000E+00  0.00000000000E+00  0.74505805969E-08  0.10566000000E+00  0.10566000000E+00 0. -1.
     999900   -1    0    0    0    0 -0.00000000000E+00 -0.00000000000E+00 -0.74505805969E-08  0.93827000000E+00  0.93827000000E+00 0.  1.
     999902    2    1    2    0    0 -0.14300934251E-01  0.18968316782E-03  0.18800957718E-01  0.10203073687E+01  0.10200338709E+01 0.  0.
     999903    2    3    3    0    0 -0.20713542312E-02 -0.12553375949E+00 -0.25380828663E-01  0.13019053537E+00  0.23288919199E-01 0.  0.
         14    1    1    2    0    0  0.14300934251E-01 -0.18968316782E-03 -0.18800957718E-01  0.23622631336E-01  0.00000000000E+00 0.  1.
     999901    1    3    3    0    0 -0.12229580020E-01  0.12572344266E+00  0.44181786381E-01  0.89011683329E+00  0.88000000000E+00 0.  1.
        -11    1    4    4    0    0 -0.11404163574E-01 -0.65999214220E-01 -0.79054485052E-02  0.67444113617E-01  0.51100000000E-03 0.  1.
         11    1    4    4    0    0  0.93328093430E-02 -0.59534545268E-01 -0.17475380158E-01  0.62746421755E-01  0.51100000000E-03 0. -1.
</event>
<event>
 8    1  0.1088270E+005  0.1043930E+01  0.7957747E-01            NaN
         13   -1    0    0    0    0  0.00000000000E+00  0.00000000000E+00  0.74505805969E-08  0.10566000000E+00  0.10566000000E+00 0. -1.
     999900   -1    0    0    0    0 -0.00000000000E+00 -0.00000000000E+00 -0.74505805969E-08  0.93827000000E+00  0.93827000000E+00 0.  1.
     999902    2    1    2    0    0  0.23970614302E-02 -0.20127257467E-01  0.12491715704E-01  0.10201204356E+01  0.10198425407E+01 0.  0.
     999903    2    3    3    0    0 -0.31794727875E-01 -0.79967868501E-01  0.99651060709E-01  0.13313299001E+00  0.19705187495E-01 0.  0.
         14    1    1    2    0    0 -0.23970614302E-02  0.20127257467E-01 -0.12491715704E-01  0.23809564420E-01  0.00000000000E+00 0.  1.
     999901    1    3    3    0    0  0.34191789306E-01  0.59840611034E-01 -0.87159345005E-01  0.88698744557E+00  0.88000000000E+00 0.  1.
        -11    1    4    4    0    0  0.21472330473E-02 -0.11675328625E-01  0.11001865389E-01  0.16193395916E-01  0.51100000000E-03 0.  1.
         11    1    4    4    0    0 -0.33941960923E-01 -0.68292539876E-01  0.88649195320E-01  0.11693959409E+00  0.51100000000E-03 0. -1.
</event>
<event>
 8    1  0.1088270E+005  0.1043930E+01  0.7957747E-01            NaN
         13   -1    0    0    0    0  0.00000000000E+00  0.00000000000E+00  0.74505805969E-08  0.10566000000E+00  0.10566000000E+00 0. -1.
     999900   -1    0    0    0    0 -0.00000000000E+00 -0.00000000000E+00 -0.74505805969E-08  0.93827000000E+00  0.93827000000E+00 0.  1.
     999902    2    1    2    0    0 -0.97399854058E-02  0.10236654419E-01 -0.18785134991E-01  0.10204238794E+01  0.10201531042E+01 0.  0.
     999903    2    3    3    0    0 -0.37857943218E-01 -0.62569838003E-01 -0.10854103985E+00  0.13242189328E+00  0.20154205393E-01 0.  0.
         14    1    1    2    0    0  0.97399854058E-02 -0.10236654419E-01  0.18785134991E-01  0.23506120608E-01  0.00000000000E+00 0. -1.
     999901    1    3    3    0    0  0.28117957812E-01  0.72806492423E-01  0.89755904857E-01  0.88800198612E+00  0.88000000000E+00 0. -1.
        -11    1    4    4    0    0 -0.16415780483E-01 -0.39365589213E-01 -0.75415958316E-01  0.86642687820E-01  0.51100000000E-03 0. -1.
         11    1    4    4    0    0 -0.21442162735E-01 -0.23204248790E-01 -0.33125081532E-01  0.45779205456E-01  0.51100000000E-03 0.  1.
</event>
<event>
 8    1  0.1088270E+005  0.1043930E+01  0.7957747E-01            NaN
         13   -1    0    0    0    0  0.00000000000E+00  0.00000000000E+00  0.74505805969E-08  0.10566000000E+00  0.10566000000E+00 0. -1.
     999900   -1    0    0    0    0 -0.00000000000E+00 -0.00000000000E+00 -0.74505805969E-08  0.93827000000E+00  0.93827000000E+00 0.  1.
     999902    2    1    2    0    0 -0.18091085651E-01  0.14538507017E-03 -0.13278729952E-01  0.10214882268E+01  0.10212416777E+01 0.  0.
     999903    2    3    3    0    0 -0.46210006425E-01 -0.65764385894E-01 -0.10501321810E+00  0.13382275603E+00  0.20504509511E-01 0.  0.
         14    1    1    2    0    0  0.18091085651E-01 -0.14538507017E-03  0.13278729952E-01  0.22441773236E-01  0.00000000000E+00 0. -1.
     999901    1    3    3    0    0  0.28118920775E-01  0.65909770965E-01  0.91734488149E-01  0.88766547073E+00  0.88000000000E+00 0. -1.
        -11    1    4    4    0    0 -0.19578036192E-01 -0.44827859069E-01 -0.65976431808E-01  0.82133958415E-01  0.51100000000E-03 0.  1.
         11    1    4    4    0    0 -0.26631970233E-01 -0.20936526826E-01 -0.39036786293E-01  0.51688797617E-01  0.51100000000E-03 0. -1.
</event>
<event>
 8    1  0.1088270E+005  0.1043930E+01  0.7957747E-01            NaN
         13   -1    0    0    0    0  0.00000000000E+00  0.00000000000E+00  0.74505805969E-08  0.10566000000E+00  0.10566000000E+00 0.  1.
     999900   -1    0    0    0    0 -0.00000000000E+00 -0.00000000000E+00 -0.74505805969E-08  0.93827000000E+00  0.93827000000E+00 0.  1.
     999902    2    1    2    0    0 -0.18478103872E-01 -0.13830987091E-01  0.41647944691E-02  0.10204761722E+01  0.10202066143E+01 0.  0.
     999903    2    3    3    0    0 -0.98936457061E-01  0.41067916656E-01  0.74783572567E-01  0.13229012857E+00  0.20811032602E-01 0.  0.
         14    1    1    2    0    0  0.18478103872E-01  0.13830987091E-01 -0.41647944691E-02  0.23453827824E-01  0.00000000000E+00 0. -1.
     999901    1    3    3    0    0  0.80458353189E-01 -0.54898903747E-01 -0.70618778098E-01  0.88818604360E+00  0.88000000000E+00 0.  1.
        -11    1    4    4    0    0 -0.63063066874E-01  0.31618194357E-01  0.59018738679E-01  0.91978982676E-01  0.51100000000E-03 0. -1.
         11    1    4    4    0    0 -0.35873390187E-01  0.94497222985E-02  0.15764833888E-01  0.40311145897E-01  0.51100000000E-03 0.  1.
</event>
<event>
 8    1  0.1088270E+005  0.1043930E+01  0.7957747E-01            NaN
         13   -1    0    0    0    0  0.00000000000E+00  0.00000000000E+00  0.74505805969E-08  0.10566000000E+00  0.10566000000E+00 0. -1.
     999900   -1    0    0    0    0 -0.00000000000E+00 -0.00000000000E+00 -0.74505805969E-08  0.93827000000E+00  0.93827000000E+00 0.  1.
     999902    2    1    2    0    0 -0.11434685654E-01  0.20332953152E-01 -0.26302853508E-02  0.10204544932E+01  0.10201844310E+01 0.  0.
     999903    2    3    3    0    0 -0.17230837286E-01  0.12915162755E+00  0.20189671901E-01  0.13343935817E+00  0.20527903082E-01 0.  0.
         14    1    1    2    0    0  0.11434685654E-01 -0.20332953152E-01  0.26302853508E-02  0.23475506829E-01  0.00000000000E+00 0.  1.
     999901    1    3    3    0    0  0.57961516326E-02 -0.10881867440E+00 -0.22819957252E-01  0.88701513500E+00  0.88000000000E+00 0. -1.
        -11    1    4    4    0    0 -0.10808282711E-01  0.11281293486E+00  0.11703061513E-01  0.11393331391E+00  0.51100000000E-03 0.  1.
         11    1    4    4    0    0 -0.64225545756E-02  0.16338692687E-01  0.84866103879E-02  0.19506044265E-01  0.51100000000E-03 0. -1.
</event>
<event>
 8    1  0.1088270E+005  0.1043930E+01  0.7957747E-01            NaN
         13   -1    0    0    0    0  0.00000000000E+00  0.00000000000E+00  0.74505805969E-08  0.10566000000E+00  0.10566000000E+00 0.  1.
     999900   -1    0    0    0    0 -0.00000000000E+00 -0.00000000000E+00 -0.74505805969E-08  0.93827000000E+00  0.93827000000E+00 0. -1.
     999902    2    1    2    0    0  0.14391574268E-01  0.14371570753E-01 -0.11873162100E-01  0.10203793857E+01  0.10201075724E+01 0.  0.
     999903    2    3    3    0    0  0.81037647455E-01  0.84835425635E-01  0.58762460614E-01  0.13223736715E+00  0.16417817912E-01 0.  0.
         14    1    1    2    0    0 -0.14391574268E-01 -0.14371570753E-01  0.11873162100E-01  0.23550614304E-01  0.00000000000E+00 0.  1.
     999901    1    3    3    0    0 -0.66646073186E-01 -0.70463854882E-01 -0.70635622714E-01  0.88814201855E+00  0.88000000000E+00 0. -1.
        -11    1    4    4    0    0  0.18864171248E-01  0.10672099514E-01  0.11272647840E-01  0.24435310010E-01  0.51100000000E-03 0. -1.
         11    1    4    4    0    0  0.62173476206E-01  0.74163326121E-01  0.47489812774E-01  0.10780205714E+00  0.51100000000E-03 0.  1.
</event>
<event>
 8    1  0.1088270E+005  0.1043930E+01  0.7957747E-01            NaN
         13   -1    0    0    0    0  0.00000000000E+00  0.00000000000E+00  0.74505805969E-08  0.10566000000E+00  0.10566000000E+00 0.  1.
     999900   -1    0    0    0    0 -0.00000000000E+00 -0.00000000000E+00 -0.74505805969E-08  0.93827000000E+00  0.93827000000E+00 0.  1.
     999902    2    1    2    0    0 -0.18036744066E-01 -0.14012427993E-01 -0.78163017335E-02  0.10197894356E+01  0.10195036666E+01 0.  0.
     999903    2    3    3    0    0  0.67723004678E-01 -0.90711122005E-01 -0.61543277074E-01  0.13067526297E+00  0.21760891090E-01 0.  0.
         14    1    1    2    0    0  0.18036744066E-01  0.14012427993E-01  0.78163017335E-02  0.24140564358E-01  0.00000000000E+00 0.  1.
     999901    1    3    3    0    0 -0.85759748744E-01  0.76698694013E-01  0.53726975341E-01  0.88911417267E+00  0.88000000000E+00 0. -1.
        -11    1    4    4    0    0  0.59348516818E-01 -0.77244868740E-01 -0.60720431624E-01  0.11478783966E+00  0.51100000000E-03 0. -1.
         11    1    4    4    0    0  0.83744878595E-02 -0.13466253266E-01 -0.82284545037E-03  0.15887423314E-01  0.51100000000E-03 0.  1.
</event>
<event>
 8    1  0.1088270E+005  0.1043930E+01  0.7957747E-01            NaN
         13   -1    0    0    0    0  0.00000000000E+00  0.00000000000E+00  0.74505805969E-08  0.10566000000E+00  0.10566000000E+00 0. -1.
     999900   -1    0    0    0    0 -0.00000000000E+00 -0.00000000000E+00 -0.74505805969E-08  0.93827000000E+00  0.93827000000E+00 0.  1.
     999902    2    1    2    0    0  0.11847093677E-01 -0.19721258862E-01  0.66892262952E-02  0.10199711305E+01  0.10196896977E+01 0.  0.
     999903    2    3    3    0    0 -0.54355707950E-01  0.17508106393E-01 -0.11329548623E+00  0.12858728062E+00  0.20922350732E-01 0.  0.
         14    1    1    2    0    0 -0.11847093677E-01  0.19721258862E-01 -0.66892262952E-02  0.23958869508E-01  0.00000000000E+00 0.  1.
     999901    1    3    3    0    0  0.66202801627E-01 -0.37229365255E-01  0.11998471252E+00  0.89138384988E+00  0.88000000000E+00 0. -1.
        -11    1    4    4    0    0 -0.98406245467E-02  0.75094661765E-02 -0.10961132010E-01  0.16541992312E-01  0.51100000000E-03 0. -1.
         11    1    4    4    0    0 -0.44515083403E-01  0.99986402162E-02 -0.10233435422E+00  0.11204528830E+00  0.51100000000E-03 0.  1.
</event>
<event>
 8    1  0.1088270E+005  0.1043930E+01  0.7957747E-01            NaN
         13   -1    0    0    0    0  0.00000000000E+00  0.00000000000E+00  0.74505805969E-08  0.10566000000E+00  0.10566000000E+00 0. -1.
     999900   -1    0    0    0    0 -0.00000000000E+00 -0.00000000000E+00 -0.74505805969E-08  0.93827000000E+00  0.93827000000E+00 0.  1.
     999902    2    1    2    0    0  0.19250061345E-01  0.13167238905E-01 -0.58273679960E-02  0.10198904646E+01  0.10196071109E+01 0.  0.
     999903    2    3    3    0    0  0.10588597774E+00 -0.71691756742E-01 -0.23255990507E-01  0.13140265492E+00  0.19346016600E-01 0.  0.
         14    1    1    2    0    0 -0.19250061345E-01 -0.13167238905E-01  0.58273679960E-02  0.24039535351E-01  0.00000000000E+00 0. -1.
     999901    1    3    3    0    0 -0.86635916399E-01  0.84858995647E-01  0.17428622511E-01  0.88848780973E+00  0.88000000000E+00 0. -1.
        -11    1    4    4    0    0  0.21321944528E-01 -0.22876135673E-01 -0.12021919206E-02  0.31299349644E-01  0.51100000000E-03 0.  1.
         11    1    4    4    0    0  0.84564033216E-01 -0.48815621070E-01 -0.22053798587E-01  0.10010330528E+00  0.51100000000E-03 0. -1.
</event>
<event>
 8    1  0.1088270E+005  0.1043930E+01  0.7957747E-01            NaN
         13   -1    0    0    0    0  0.00000000000E+00  0.00000000000E+00  0.74505805969E-08  0.10566000000E+00  0.10566000000E+00 0.  1.
     999900   -1    0    0    0    0 -0.00000000000E+00 -0.00000000000E+00 -0.74505805969E-08  0.93827000000E+00  0.93827000000E+00 0. -1.
     999902    2    1    2    0    0 -0.10483270496E-01 -0.18433584372E-01 -0.99491420993E-02  0.10205060503E+01  0.10202371867E+01 0.  0.
     999903    2    3    3    0    0 -0.12407647520E+00 -0.32259892161E-01  0.26337348414E-01  0.13235556057E+00  0.19714617673E-01 0.  0.
         14    1    1    2    0    0  0.10483270496E-01  0.18433584372E-01  0.99491420993E-02  0.23423949744E-01  0.00000000000E+00 0.  1.
     999901    1    3    3    0    0  0.11359320471E+00  0.13826307789E-01 -0.36286490513E-01  0.88815048969E+00  0.88000000000E+00 0. -1.
        -11    1    4    4    0    0 -0.74261992674E-01 -0.14234039628E-01  0.23973025184E-01  0.79324765979E-01  0.51100000000E-03 0.  1.
         11    1    4    4    0    0 -0.49814482529E-01 -0.18025852533E-01  0.23643232296E-02  0.53030794587E-01  0.51100000000E-03 0. -1.
</event>
<event>
 8    1  0.1088270E+005  0.1043930E+01  0.7957747E-01            NaN
         13   -1    0    0    0    0  0.00000000000E+00  0.00000000000E+00  0.74505805969E-08  0.10566000000E+00  0.10566000000E+00 0. -1.
     999900   -1    0    0    0    0 -0.00000000000E+00 -0.00000000000E+00 -0.74505805969E-08  0.93827000000E+00  0.93827000000E+00 0.  1.
     999902    2    1    2    0    0 -0.22151396946E-01 -0.36291855693E-03 -0.49742935178E-02  0.10212240604E+01  0.10209716068E+01 0.  0.
     999903    2    3    3    0    0  0.51290065506E-01 -0.10276457568E+00  0.57615143101E-01  0.13004664521E+00  0.20034879161E-01 0.  0.
         14    1    1    2    0    0  0.22151396946E-01  0.36291855693E-03  0.49742935178E-02  0.22705939587E-01  0.00000000000E+00 0. -1.
     999901    1    3    3    0    0 -0.73441462452E-01  0.10240165712E+00 -0.62589436619E-01  0.89117741520E+00  0.88000000000E+00 0. -1.
        -11    1    4    4    0    0  0.16092142189E-01 -0.33271929361E-01  0.29276223745E-01  0.47152271646E-01  0.51100000000E-03 0.  1.
         11    1    4    4    0    0  0.35197923317E-01 -0.69492646315E-01  0.28338919356E-01  0.82894373566E-01  0.51100000000E-03 0. -1.
</event>
<event>
 8    1  0.1088270E+005  0.1043930E+01  0.7957747E-01            NaN
         13   -1    0    0    0    0  0.00000000000E+00  0.00000000000E+00  0.74505805969E-08  0.10566000000E+00  0.10566000000E+00 0. -1.
     999900   -1    0    0    0    0 -0.00000000000E+00 -0.00000000000E+00 -0.74505805969E-08  0.93827000000E+00  0.93827000000E+00 0. -1.
     999902    2    1    2    0    0 -0.57013727144E-02  0.10229289487E-01  0.20536066351E-01  0.10202894832E+01  0.10200155663E+01 0.  0.
     999903    2    3    3    0    0  0.96878876899E-01  0.68896645465E-01  0.53712375936E-01  0.13177092188E+00  0.18608921996E-01 0.  0.
         14    1    1    2    0    0  0.57013727144E-02 -0.10229289487E-01 -0.20536066351E-01  0.23640516818E-01  0.00000000000E+00 0.  1.
     999901    1    3    3    0    0 -0.10258024961E+00 -0.58667355977E-01 -0.33176309584E-01  0.88851856131E+00  0.88000000000E+00 0.  1.
        -11    1    4    4    0    0  0.64362852629E-01  0.35745659846E-01  0.28664275831E-01  0.79007789656E-01  0.51100000000E-03 0. -1.
         11    1    4    4    0    0  0.32516024269E-01  0.33150985619E-01  0.25048100105E-01  0.52763132220E-01  0.51100000000E-03 0.  1.
</event>
<event>
 8    1  0.1088270E+005  0.1043930E+01  0.7957747E-01            NaN
         13   -1    0    0    0    0  0.00000000000E+00  0.00000000000E+00  0.74505805969E-08  0.10566000000E+00  0.10566000000E+00 0.  1.
     999900   -1    0    0    0    0 -0.00000000000E+00 -0.00000000000E+00 -0.74505805969E-08  0.93827000000E+00  0.93827000000E+00 0. -1.
     999902    2    1    2    0    0 -0.13595198493E-01  0.10038645525E-01 -0.18634032658E-01  0.10187738676E+01  0.10184632356E+01 0.  0.
     999903    2    3    3    0    0 -0.94078408087E-01 -0.30730035936E-01  0.79650298324E-01  0.12871800295E+00  0.20714060055E-01 0.  0.
         14    1    1    2    0    0  0.13595198493E-01 -0.10038645525E-01  0.18634032658E-01  0.25156132436E-01  0.00000000000E+00 0.  1.
     999901    1    3    3    0    0  0.80483209594E-01  0.40768681461E-01 -0.98284330982E-01  0.89005586461E+00  0.88000000000E+00 0. -1.
        -11    1    4    4    0    0 -0.81210433198E-01 -0.20620387854E-01  0.59556631496E-01  0.10279877592E+00  0.51100000000E-03 0.  1.
         11    1    4    4    0    0 -0.12867974889E-01 -0.10109648082E-01  0.20093666828E-01  0.25919227027E-01  0.51100000000E-03 0. -1.
</event>
<event>
 8    1  0.1088270E+005  0.1043930E+01  0.7957747E-01            NaN
         13   -1    0    0    0    0  0.00000000000E+00  0.00000000000E+00  0.74505805969E-08  0.10566000000E+00  0.10566000000E+00 0.  1.
     999900   -1    0    0    0    0 -0.00000000000E+00 -0.00000000000E+00 -0.74505805969E-08  0.93827000000E+00  0.93827000000E+00 0.  1.
     999902    2    1    2    0    0 -0.18969281627E-01  0.94909127499E-02 -0.92364372533E-02  0.10207951163E+01  0.10205329229E+01 0.  0.
     999903    2    3    3    0    0  0.56108142075E-01  0.77901891129E-01 -0.88211697366E-01  0.13143929707E+00  0.16678039824E-01 0.  0.
         14    1    1    2    0    0  0.18969281627E-01 -0.94909127499E-02  0.92364372533E-02  0.23134883691E-01  0.00000000000E+00 0.  1.
     999901    1    3    3    0    0 -0.75077423701E-01 -0.68410978379E-01  0.78975260113E-01  0.88935581924E+00  0.88000000000E+00 0. -1.
        -11    1    4    4    0    0  0.16462219252E-01  0.13184339653E-01 -0.14212871130E-01  0.25438126927E-01  0.51100000000E-03 0. -1.
         11    1    4    4    0    0  0.39645922823E-01  0.64717551476E-01 -0.73998826235E-01  0.10600117014E+00  0.51100000000E-03 0.  1.
</event>
<event>
 8    1  0.1088270E+005  0.1043930E+01  0.7957747E-01            NaN
         13   -1    0    0    0    0  0.00000000000E+00  0.00000000000E+00  0.74505805969E-08  0.10566000000E+00  0.10566000000E+00 0. -1.
     999900   -1    0    0    0    0 -0.00000000000E+00 -0.00000000000E+00 -0.74505805969E-08  0.93827000000E+00  0.93827000000E+00 0.  1.
     999902    2    1    2    0    0 -0.12038420183E-01 -0.33787725940E-02 -0.19768239226E-01  0.10205393406E+01  0.10202712496E+01 0.  0.
     999903    2    3    3    0    0  0.86560171526E-01 -0.28083171104E-01  0.88046311701E-01  0.12815155103E+00  0.19731680964E-01 0.  0.
         14    1    1    2    0    0  0.12038420183E-01  0.33787725940E-02  0.19768239226E-01  0.23390659393E-01  0.00000000000E+00 0. -1.
     999901    1    3    3    0    0 -0.98598591709E-01  0.24704398510E-01 -0.10781455093E+00  0.89238778958E+00  0.88000000000E+00 0.  1.
        -11    1    4    4    0    0  0.32959690571E-01 -0.11089734686E-01  0.47293590329E-01  0.58704925050E-01  0.51100000000E-03 0. -1.
         11    1    4    4    0    0  0.53600480955E-01 -0.16993436418E-01  0.40752721372E-01  0.69446625981E-01  0.51100000000E-03 0.  1.
</event>
<event>
 8    1  0.1088270E+005  0.1043930E+01  0.7957747E-01            NaN
         13   -1    0    0    0    0  0.00000000000E+00  0.00000000000E+00  0.74505805969E-08  0.10566000000E+00  0.10566000000E+00 0.  1.
     999900   -1    0    0    0    0 -0.00000000000E+00 -0.00000000000E+00 -0.74505805969E-08  0.93827000000E+00  0.93827000000E+00 0.  1.
     999902    2    1    2    0    0  0.23712452988E-01  0.36686238208E-02 -0.58799453231E-02  0.10192254866E+01  0.10189260422E+01 0.  0.
     999903    2    3    3    0    0 -0.45984105759E-01  0.38653900483E-01  0.11173239581E+00  0.12798239813E+00  0.16932334522E-01 0.  0.
         14    1    1    2    0    0 -0.23712452988E-01 -0.36686238208E-02  0.58799453231E-02  0.24704513443E-01  0.00000000000E+00 0. -1.
     999901    1    3    3    0    0  0.69696558747E-01 -0.34985276662E-01 -0.11761234113E+00  0.89124308843E+00  0.88000000000E+00 0.  1.
        -11    1    4    4    0    0 -0.24212676121E-01  0.22229011547E-01  0.43688204540E-01  0.54674518528E-01  0.51100000000E-03 0. -1.
         11    1    4    4    0    0 -0.21771429638E-01  0.16424888935E-01  0.68044191270E-01  0.73307879601E-01  0.51100000000E-03 0.  1.
</event>
<event>
 8    1  0.1088270E+005  0.1043930E+01  0.7957747E-01            NaN
         13   -1    0    0    0    0  0.00000000000E+00  0.00000000000E+00  0.74505805969E-08  0.10566000000E+00  0.10566000000E+00 0. -1.
     999900   -1    0    0    0    0 -0.00000000000E+00 -0.00000000000E+00 -0.74505805969E-08  0.93827000000E+00  0.93827000000E+00 0. -1.
     999902    2    1    2    0    0  0.22934244063E-01  0.33454197013E-02  0.72181782136E-02  0.10196550442E+01  0.10193660459E+01 0.  0.
     999903    2    3    3    0    0  0.47132001411E-01 -0.91782794372E-01 -0.76985828535E-01  0.13020284010E+00  0.19505252512E-01 0.  0.
         14    1    1    2    0    0 -0.22934244063E-01 -0.33454197013E-02 -0.72181782136E-02  0.24274955828E-01  0.00000000000E+00 0. -1.
     999901    1    3    3    0    0 -0.24197757348E-01  0.95128214073E-01  0.84204006749E-01  0.88945220407E+00  0.88000000000E+00 0.  1.
        -11    1    4    4    0    0  0.40966856560E-01 -0.65502235596E-01 -0.63587584802E-01  0.10006232191E+00  0.51100000000E-03 0. -1.
         11    1    4    4    0    0  0.61651448517E-02 -0.26280558776E-01 -0.13398243733E-01  0.30140518189E-01  0.51100000000E-03 0.  1.
</event>
<event>
 8    1  0.1088270E+005  0.1043930E+01  0.7957747E-01            NaN
         13   -1    0    0    0    0  0.00000000000E+00  0.00000000000E+00  0.74505805969E-08  0.10566000000E+00  0.10566000000E+00 0.  1.
     999900   -1    0    0    0    0 -0.00000000000E+00 -0.00000000000E+00 -0.74505805969E-08  0.93827000000E+00  0.93827000000E+00 0. -1.
     999902    2    1    2    0    0 -0.71981043253E-02  0.95441161641E-02 -0.20877594768E-01  0.10198722191E+01  0.10195884299E+01 0.  0.
     999903    2    3    3    0    0 -0.48189216690E-01  0.29043845641E-01 -0.11905873738E+00  0.13324938636E+00  0.20363458536E-01 0.  0.
         14    1    1    2    0    0  0.71981043253E-02 -0.95441161641E-02  0.20877594768E-01  0.24057780915E-01  0.00000000000E+00 0.  1.
     999901    1    3    3    0    0  0.40991112364E-01 -0.19499729477E-01  0.98181142615E-01  0.88662283272E+00  0.88000000000E+00 0.  1.
        -11    1    4    4    0    0 -0.66458321743E-03 -0.22508419891E-02 -0.94350525436E-02  0.97359795610E-02  0.51100000000E-03 0.  1.
         11    1    4    4    0    0 -0.47524633472E-01  0.31294687630E-01 -0.10962368484E+00  0.12351340680E+00  0.51100000000E-03 0. -1.
</event>
<event>
 8    1  0.1088270E+005  0.1043930E+01  0.7957747E-01            NaN
         13   -1    0    0    0    0  0.00000000000E+00  0.00000000000E+00  0.74505805969E-08  0.10566000000E+00  0.10566000000E+00 0.  1.
     999900   -1    0    0    0    0 -0.00000000000E+00 -0.00000000000E+00 -0.74505805969E-08  0.93827000000E+00  0.93827000000E+00 0. -1.
     999902    2    1    2    0    0  0.10220319434E-01  0.23156068760E-01 -0.13639492048E-01  0.10151777098E+01  0.10147704609E+01 0.  0.
     999903    2    3    3    0    0 -0.14815299968E-01 -0.11784552055E+00 -0.27062376259E-01  0.12350041151E+00  0.20320423432E-01 0.  0.
         14    1    1    2    0    0 -0.10220319434E-01 -0.23156068760E-01  0.13639492048E-01  0.28752290223E-01  0.00000000000E+00 0.  1.
     999901    1    3    3    0    0  0.25035619402E-01  0.14100158931E+00  0.13422884211E-01  0.89167729827E+00  0.88000000000E+00 0.  1.
        -11    1    4    4    0    0 -0.14315086450E-01 -0.64882038213E-01 -0.68104525638E-02  0.66792544254E-01  0.51100000000E-03 0.  1.
         11    1    4    4    0    0 -0.50021351802E-03 -0.52963482332E-01 -0.20251923695E-01  0.56707867256E-01  0.51100000000E-03 0. -1.
</event>
<event>
 8    1  0.1088270E+005  0.1043930E+01  0.7957747E-01            NaN
         13   -1    0    0    0    0  0.00000000000E+00  0.00000000000E+00  0.74505805969E-08  0.10566000000E+00  0.10566000000E+00 0. -1.
     999900   -1    0    0    0    0 -0.00000000000E+00 -0.00000000000E+00 -0.74505805969E-08  0.93827000000E+00  0.93827000000E+00 0. -1.
     999902    2    1    2    0    0  0.11832506660E-01  0.23831890616E-01  0.78994238732E-02  0.10161744938E+01  0.10157953701E+01 0.  0.
     999903    2    3    3    0    0 -0.36852963826E-01 -0.11491674022E+00  0.19223087008E-01  0.12390229158E+00  0.20451226367E-01 0.  0.
         14    1    1    2    0    0 -0.11832506660E-01 -0.23831890616E-01 -0.78994238732E-02  0.27755506152E-01  0.00000000000E+00 0.  1.
     999901    1    3    3    0    0  0.48685470485E-01  0.13874863083E+00 -0.11323663135E-01  0.89227220227E+00  0.88000000000E+00 0. -1.
        -11    1    4    4    0    0 -0.24652522609E-01 -0.62554944084E-01  0.13847936850E-02  0.67253599717E-01  0.51100000000E-03 0.  1.
         11    1    4    4    0    0 -0.12200441216E-01 -0.52361796132E-01  0.17838293323E-01  0.56648691863E-01  0.51100000000E-03 0. -1.
</event>
<event>
 8    1  0.1088270E+005  0.1043930E+01  0.7957747E-01            NaN
         13   -1    0    0    0    0  0.00000000000E+00  0.00000000000E+00  0.74505805969E-08  0.10566000000E+00  0.10566000000E+00 0. -1.
     999900   -1    0    0    0    0 -0.00000000000E+00 -0.00000000000E+00 -0.74505805969E-08  0.93827000000E+00  0.93827000000E+00 0. -1.
     999902    2    1    2    0    0 -0.19600146447E-01 -0.11798892189E-02  0.12945198237E-01  0.10204111557E+01  0.10201400838E+01 0.  0.
     999903    2    3    3    0    0  0.11957465885E+00 -0.15644385332E-01 -0.37394266029E-01  0.12793543630E+00  0.20647006988E-01 0.  0.
         14    1    1    2    0    0  0.19600146447E-01  0.11798892189E-02 -0.12945198237E-01  0.23518844289E-01  0.00000000000E+00 0.  1.
     999901    1    3    3    0    0 -0.13917480530E+00  0.14464496113E-01  0.50339464266E-01  0.89247571941E+00  0.88000000000E+00 0. -1.
        -11    1    4    4    0    0  0.84275123712E-01 -0.13257986277E-01 -0.16661356138E-01  0.86924867479E-01  0.51100000000E-03 0.  1.
         11    1    4    4    0    0  0.35299535138E-01 -0.23863990549E-02 -0.20732909891E-01  0.41010568820E-01  0.51100000000E-03 0. -1.
</event>
<event>
 8    1  0.1088270E+005  0.1043930E+01  0.7957747E-01            NaN
         13   -1    0    0    0    0  0.00000000000E+00  0.00000000000E+00  0.74505805969E-08  0.10566000000E+00  0.10566000000E+00 0. -1.
     999900   -1    0    0    0    0 -0.00000000000E+00 -0.00000000000E+00 -0.74505805969E-08  0.93827000000E+00  0.93827000000E+00 0.  1.
     999902    2    1    2    0    0 -0.17567059438E-01  0.24552076475E-02 -0.16082066667E-01  0.10199870994E+01  0.10197060461E+01 0.  0.
     999903    2    3    3    0    0 -0.84523051322E-01  0.11448142843E-01  0.96337333789E-01  0.13026686283E+00  0.20331440907E-01 0.  0.
         14    1    1    2    0    0  0.17567059438E-01 -0.24552076475E-02  0.16082066667E-01  0.23942900622E-01  0.00000000000E+00 0. -1.
     999901    1    3    3    0    0  0.66955991884E-01 -0.89929351951E-02 -0.11241940046E+00  0.88972023655E+00  0.88000000000E+00 0.  1.
        -11    1    4    4    0    0 -0.30320682296E-01  0.12868303199E-01  0.29684103097E-01  0.44343478661E-01  0.51100000000E-03 0.  1.
         11    1    4    4    0    0 -0.54202369026E-01 -0.14201603560E-02  0.66653230692E-01  0.85923384164E-01  0.51100000000E-03 0. -1.
</event>
<event>
 8    1  0.1175606E+005  0.1043930E+01  0.7957747E-01            NaN
         13   -1    0    0    0    0  0.00000000000E+00  0.00000000000E+00  0.74505805969E-08  0.10566000000E+00  0.10566000000E+00 0.  1.
     999900   -1    0    0    0    0 -0.00000000000E+00 -0.00000000000E+00 -0.74505805969E-08  0.93827000000E+00  0.93827000000E+00 0.  1.
     999902    2    1    2    0    0  0.35307048959E-02 -0.20909447542E-01 -0.11960861825E-01  0.10195838897E+01  0.10192931742E+01 0.  0.
     999903    2    3    3    0    0 -0.11917544216E+00  0.34335585315E-01 -0.31066773064E-01  0.12914924970E+00  0.18239130379E-01 0.  0.
         14    1    1    2    0    0 -0.35307048959E-02  0.20909447542E-01  0.11960861825E-01  0.24346110350E-01  0.00000000000E+00 0. -1.
     999901    1    3    3    0    0  0.12270614705E+00 -0.55245032856E-01  0.19105911239E-01  0.89043463995E+00  0.88000000000E+00 0.  1.
        -11    1    4    4    0    0 -0.42010201873E-01  0.72561392889E-02 -0.32154912178E-02  0.42756392780E-01  0.51100000000E-03 0. -1.
         11    1    4    4    0    0 -0.77165240285E-01  0.27079446026E-01 -0.27851281846E-01  0.86392856920E-01  0.51100000000E-03 0.  1.
</event>
<event>
 8    1  0.1088270E+005  0.1043930E+01  0.7957747E-01            NaN
         13   -1    0    0    0    0  0.00000000000E+00  0.00000000000E+00  0.74505805969E-08  0.10566000000E+00  0.10566000000E+00 0.  1.
     999900   -1    0    0    0    0 -0.00000000000E+00 -0.00000000000E+00 -0.74505805969E-08  0.93827000000E+00  0.93827000000E+00 0.  1.
     999902    2    1    2    0    0  0.11591434639E-02  0.27099945172E-02  0.19368912004E-01  0.10243381028E+01  0.10241507245E+01 0.  0.
     999903    2    3    3    0    0 -0.11431869515E+00  0.46450833394E-01  0.51377322849E-01  0.13514018863E+00  0.19919771477E-01 0.  0.
         14    1    1    2    0    0 -0.11591434639E-02 -0.27099945172E-02 -0.19368912004E-01  0.19591897205E-01  0.00000000000E+00 0. -1.
     999901    1    3    3    0    0  0.11547783861E+00 -0.43740838877E-01 -0.32008410845E-01  0.88919791417E+00  0.88000000000E+00 0. -1.
        -11    1    4    4    0    0 -0.22633594767E-01  0.23623055010E-02  0.14177139053E-01  0.26816272897E-01  0.51100000000E-03 0.  1.
         11    1    4    4    0    0 -0.91685100381E-01  0.44088527893E-01  0.37200183796E-01  0.10832391573E+00  0.51100000000E-03 0. -1.
</event>
<event>
 8    1  0.1088270E+005  0.1043930E+01  0.7957747E-01            NaN
         13   -1    0    0    0    0  0.00000000000E+00  0.00000000000E+00  0.74505805969E-08  0.10566000000E+00  0.10566000000E+00 0.  1.
     999900   -1    0    0    0    0 -0.00000000000E+00 -0.00000000000E+00 -0.74505805969E-08  0.93827000000E+00  0.93827000000E+00 0. -1.
     999902    2    1    2    0    0 -0.14006626099E-01  0.11379741617E-01  0.19073774091E-01  0.10176718022E+01  0.10173329858E+01 0.  0.
     999903    2    3    3    0    0  0.79611335480E-01 -0.47830435843E-01 -0.81357844354E-01  0.12505952476E+00  0.19876382092E-01 0.  0.
         14    1    1    2    0    0  0.14006626099E-01 -0.11379741617E-01 -0.19073774091E-01  0.26258197806E-01  0.00000000000E+00 0. -1.
     999901    1    3    3    0    0 -0.93617961579E-01  0.59210177460E-01  0.10043161845E+00  0.89261227744E+00  0.88000000000E+00 0. -1.
        -11    1    4    4    0    0  0.37581052411E-01 -0.15631796568E-01 -0.45824095925E-01  0.61292719409E-01  0.51100000000E-03 0.  1.
         11    1    4    4    0    0  0.42030283069E-01 -0.32198639275E-01 -0.35533748429E-01  0.63766805349E-01  0.51100000000E-03 0. -1.
</event>
<event>
 8    1  0.1088270E+005  0.1043930E+01  0.7957747E-01            NaN
         13   -1    0    0    0    0  0.00000000000E+00  0.00000000000E+00  0.74505805969E-08  0.10566000000E+00  0.10566000000E+00 0.  1.
     999900   -1    0    0    0    0 -0.00000000000E+00 -0.00000000000E+00 -0.74505805969E-08  0.93827000000E+00  0.93827000000E+00 0. -1.
     999902    2    1    2    0    0  0.62177674159E-02  0.98792157141E-02  0.22037790595E-01  0.10189916009E+01  0.10186863889E+01 0.  0.
     999903    2    3    3    0    0 -0.86469904337E-01  0.71839054393E-01  0.63837506414E-01  0.13097288357E+00  0.20994640120E-01 0.  0.
         14    1    1    2    0    0 -0.62177674159E-02 -0.98792157141E-02 -0.22037790595E-01  0.24938399088E-01  0.00000000000E+00 0. -1.
     999901    1    3    3    0    0  0.92687671753E-01 -0.61959838679E-01 -0.41799715820E-01  0.88801871734E+00  0.88000000000E+00 0.  1.
        -11    1    4    4    0    0 -0.66725983893E-01  0.44613273914E-01  0.50232313808E-01  0.94690271978E-01  0.51100000000E-03 0. -1.
         11    1    4    4    0    0 -0.19743920444E-01  0.27225780479E-01  0.13605192607E-01  0.36282611594E-01  0.51100000000E-03 0.  1.
</event>
<event>
 8    1  0.1088270E+005  0.1043930E+01  0.7957747E-01            NaN
         13   -1    0    0    0    0  0.00000000000E+00  0.00000000000E+00  0.74505805969E-08  0.10566000000E+00  0.10566000000E+00 0.  1.
     999900   -1    0    0    0    0 -0.00000000000E+00 -0.00000000000E+00 -0.74505805969E-08  0.93827000000E+00  0.93827000000E+00 0. -1.
     999902    2    1    2    0    0 -0.88982328927E-02 -0.58494027379E-02  0.20304275228E-01  0.10210027748E+01  0.10207453201E+01 0.  0.
     999903    2    3    3    0    0 -0.75819219312E-01 -0.55460552494E-01  0.93453551470E-01  0.13404702554E+00  0.20263560239E-01 0.  0.
         14    1    1    2    0    0  0.88982328927E-02  0.58494027379E-02 -0.20304275228E-01  0.22927225160E-01  0.00000000000E+00 0. -1.
     999901    1    3    3    0    0  0.66920986420E-01  0.49611149756E-01 -0.73149276242E-01  0.88695574930E+00  0.88000000000E+00 0. -1.
        -11    1    4    4    0    0 -0.30223062712E-01 -0.19324472948E-01  0.22746884249E-01  0.42480002807E-01  0.51100000000E-03 0. -1.
         11    1    4    4    0    0 -0.45596156600E-01 -0.36136079546E-01  0.70706667220E-01  0.91567022732E-01  0.51100000000E-03 0.  1.
</event>
<event>
 8    1  0.1088270E+005  0.1043930E+01  0.7957747E-01            NaN
         13   -1    0    0    0    0  0.00000000000E+00  0.00000000000E+00  0.74505805969E-08  0.10566000000E+00  0.10566000000E+00 0.  1.
     999900   -1    0    0    0    0 -0.00000000000E+00 -0.00000000000E+00 -0.74505805969E-08  0.93827000000E+00  0.93827000000E+00 0.  1.
     999902    2    1    2    0    0  0.13466664674E-01  0.14179164037E-01  0.13660731045E-01  0.10200759579E+01  0.10197970115E+01 0.  0.
     999903    2    3    3    0    0  0.10987343939E+00 -0.34201315237E-02  0.72298706291E-01  0.13269643735E+00  0.17244464928E-01 0.  0.
         14    1    1    2    0    0 -0.13466664674E-01 -0.14179164037E-01 -0.13660731045E-01  0.23854042066E-01  0.00000000000E+00 0. -1.
     999901    1    3    3    0    0 -0.96406774714E-01  0.17599295561E-01 -0.58637975247E-01  0.88737952059E+00  0.88000000000E+00 0.  1.
        -11    1    4    4    0    0  0.67715249017E-01 -0.99840028517E-02  0.47892597090E-01  0.83540392861E-01  0.51100000000E-03 0. -1.
         11    1    4    4    0    0  0.42158190371E-01  0.65638713279E-02  0.24406109201E-01  0.49156044486E-01  0.51100000000E-03 0.  1.
</event>
<event>
 8    1  0.1088270E+005  0.1043930E+01  0.7957747E-01            NaN
         13   -1    0    0    0    0  0.00000000000E+00  0.00000000000E+00  0.74505805969E-08  0.10566000000E+00  0.10566000000E+00 0.  1.
     999900   -1    0    0    0    0 -0.00000000000E+00 -0.00000000000E+00 -0.74505805969E-08  0.93827000000E+00  0.93827000000E+00 0. -1.
     999902    2    1    2    0    0  0.16376967487E-01 -0.16380603415E-01  0.50347082539E-02  0.10202260442E+01  0.10199506379E+01 0.  0.
     999903    2    3    3    0    0  0.12394861175E+00 -0.36180707659E-01  0.25994971353E-01  0.13320685874E+00  0.19900420071E-01 0.  0.
         14    1    1    2    0    0 -0.16376967487E-01  0.16380603415E-01 -0.50347082539E-02  0.23703955777E-01  0.00000000000E+00 0.  1.
     999901    1    3    3    0    0 -0.10757164426E+00  0.19800104244E-01 -0.20960263099E-01  0.88701918548E+00  0.88000000000E+00 0. -1.
        -11    1    4    4    0    0  0.59730100326E-01 -0.27786481583E-01  0.13048613449E-01  0.67158773646E-01  0.51100000000E-03 0.  1.
         11    1    4    4    0    0  0.64218511426E-01 -0.83942260759E-02  0.12946357904E-01  0.66048085098E-01  0.51100000000E-03 0. -1.
</event>
<event>
 8    1  0.1088270E+005  0.1043930E+01  0.7957747E-01            NaN
         13   -1    0    0    0    0  0.00000000000E+00  0.00000000000E+00  0.74505805969E-08  0.10566000000E+00  0.10566000000E+00 0.  1.
     999900   -1    0    0    0    0 -0.00000000000E+00 -0.00000000000E+00 -0.74505805969E-08  0.93827000000E+00  0.93827000000E+00 0.  1.
     999902    2    1    2    0    0 -0.12725521591E-01  0.26789844014E-02  0.19563651175E-01  0.10204384631E+01  0.10201680277E+01 0.  0.
     999903    2    3    3    0    0  0.10466401425E+00  0.51357687611E-01  0.55208460184E-01  0.13059551537E+00  0.20372692564E-01 0.  0.
         14    1    1    2    0    0  0.12725521591E-01 -0.26789844014E-02 -0.19563651175E-01  0.23491536870E-01  0.00000000000E+00 0. -1.
     999901    1    3    3    0    0 -0.11738953584E+00 -0.48678703210E-01 -0.35644809009E-01  0.88984294776E+00  0.88000000000E+00 0.  1.
        -11    1    4    4    0    0  0.56439784831E-01  0.16786143291E-01  0.24457162829E-01  0.63762354513E-01  0.51100000000E-03 0.  1.
         11    1    4    4    0    0  0.48224229421E-01  0.34571544320E-01  0.30751297355E-01  0.66833160856E-01  0.51100000000E-03 0. -1.
</event>
<event>
 8    1  0.1088270E+005  0.1043930E+01  0.7957747E-01            NaN
         13   -1    0    0    0    0  0.00000000000E+00  0.00000000000E+00  0.74505805969E-08  0.10566000000E+00  0.10566000000E+00 0. -1.
     999900   -1    0    0    0    0 -0.00000000000E+00 -0.00000000000E+00 -0.74505805969E-08  0.93827000000E+00  0.93827000000E+00 0. -1.
     999902    2    1    2    0    0 -0.12147874664E-01 -0.18827677014E-01  0.70127456776E-02  0.10204516934E+01  0.10201815660E+01 0.  0.
     999903    2    3    3    0    0  0.12466222481E+00 -0.24878915669E-01  0.16716129917E-01  0.12980710854E+00  0.20268835436E-01 0.  0.
         14    1    1    2    0    0  0.12147874664E-01  0.18827677014E-01 -0.70127456776E-02  0.23478306637E-01  0.00000000000E+00 0.  1.
     999901    1    3    3    0    0 -0.13681009947E+00  0.60512386555E-02 -0.97033842395E-02  0.89064458482E+00  0.88000000000E+00 0.  1.
        -11    1    4    4    0    0  0.74163124913E-01 -0.13032573446E-01  0.19742869062E-01  0.77846381209E-01  0.51100000000E-03 0. -1.
         11    1    4    4    0    0  0.50499099894E-01 -0.11846342224E-01 -0.30267391446E-02  0.51960727333E-01  0.51100000000E-03 0.  1.
</event>
<event>
 8    1  0.1088270E+005  0.1043930E+01  0.7957747E-01            NaN
         13   -1    0    0    0    0  0.00000000000E+00  0.00000000000E+00  0.74505805969E-08  0.10566000000E+00  0.10566000000E+00 0. -1.
     999900   -1    0    0    0    0 -0.00000000000E+00 -0.00000000000E+00 -0.74505805969E-08  0.93827000000E+00  0.93827000000E+00 0.  1.
     999902    2    1    2    0    0 -0.12354550379E-01  0.10962969441E-01 -0.16944835294E-01  0.10202667573E+01  0.10199923073E+01 0.  0.
     999903    2    3    3    0    0 -0.12120119504E+00  0.30554909016E-02  0.46135994632E-01  0.13128458006E+00  0.20200130092E-01 0.  0.
         14    1    1    2    0    0  0.12354550379E-01 -0.10962969441E-01  0.16944835294E-01  0.23663242745E-01  0.00000000000E+00 0. -1.
     999901    1    3    3    0    0  0.10884664466E+00  0.79074785394E-02 -0.63080829927E-01  0.88898217720E+00  0.88000000000E+00 0.  1.
        -11    1    4    4    0    0 -0.40170582755E-02 -0.36282361957E-02  0.99262307300E-03  0.55269590776E-02  0.51100000000E-03 0. -1.
         11    1    4    4    0    0 -0.11718413677E+00  0.66837270973E-02  0.45143371559E-01  0.12575762098E+00  0.51100000000E-03 0.  1.
</event>
<event>
 8    1  0.1088270E+005  0.1043930E+01  0.7957747E-01            NaN
         13   -1    0    0    0    0  0.00000000000E+00  0.00000000000E+00  0.74505805969E-08  0.10566000000E+00  0.10566000000E+00 0.  1.
     999900   -1    0    0    0    0 -0.00000000000E+00 -0.00000000000E+00 -0.74505805969E-08  0.93827000000E+00  0.93827000000E+00 0.  1.
     999902    2    1    2    0    0 -0.56870902682E-02 -0.28712690734E-01 -0.13674677314E-01  0.10116227500E+01  0.10111067351E+01 0.  0.
     999903    2    3    3    0    0 -0.10209962339E+00  0.46505297277E-01  0.41573059632E-01  0.12145117398E+00  0.20856476276E-01 0.  0.
         14    1    1    2    0    0  0.56870902682E-02  0.28712690734E-01  0.13674677314E-01  0.32307250031E-01  0.00000000000E+00 0.  1.
     999901    1    3    3    0    0  0.96412533121E-01 -0.75217988012E-01 -0.55247736946E-01  0.89017157599E+00  0.88000000000E+00 0.  1.
        -11    1    4    4    0    0 -0.80537489724E-01  0.42002235258E-01  0.26037896882E-01  0.94491842044E-01  0.51100000000E-03 0.  1.
         11    1    4    4    0    0 -0.21562133664E-01  0.45030620188E-02  0.15535162750E-01  0.26959331935E-01  0.51100000000E-03 0. -1.
</event>
<event>
 8    1  0.1088270E+005  0.1043930E+01  0.7957747E-01            NaN
         13   -1    0    0    0    0  0.00000000000E+00  0.00000000000E+00  0.74505805969E-08  0.10566000000E+00  0.10566000000E+00 0. -1.
     999900   -1    0    0    0    0 -0.00000000000E+00 -0.00000000000E+00 -0.74505805969E-08  0.93827000000E+00  0.93827000000E+00 0.  1.
     999902    2    1    2    0    0 -0.32349201835E-02  0.77177065163E-02  0.25714707851E-01  0.10168879235E+01  0.10165282952E+01 0.  0.
     999903    2    3    3    0    0 -0.16870204390E-01  0.10706212637E+00  0.69073124070E-01  0.13013249667E+00  0.20407535913E-01 0.  0.
         14    1    1    2    0    0  0.32349201835E-02 -0.77177065163E-02 -0.25714707851E-01  0.27042076517E-01  0.00000000000E+00 0.  1.
     999901    1    3    3    0    0  0.13635284206E-01 -0.99344419849E-01 -0.43358416219E-01  0.88675542682E+00  0.88000000000E+00 0.  1.
        -11    1    4    4    0    0 -0.18543503179E-01  0.75193492968E-01  0.56326838107E-01  0.95764798893E-01  0.51100000000E-03 0.  1.
         11    1    4    4    0    0  0.16732987895E-02  0.31868633397E-01  0.12746285963E-01  0.34367697774E-01  0.51100000000E-03 0. -1.
</event>
<event>
 8    1  0.1088270E+005  0.1043930E+01  0.7957747E-01            NaN
         13   -1    0    0    0    0  0.00000000000E+00  0.00000000000E+00  0.74505805969E-08  0.10566000000E+00  0.10566000000E+00 0.  1.
     999900   -1    0    0    0    0 -0.00000000000E+00 -0.00000000000E+00 -0.74505805969E-08  0.93827000000E+00  0.93827000000E+00 0.  1.
     999902    2    1    2    0    0  0.20425761218E-01 -0.40141844572E-02 -0.10565002257E-01  0.10205859500E+01  0.10203189387E+01 0.  0.
     999903    2    3    3    0    0  0.66777216978E-01  0.99505982905E-01 -0.51714686644E-01  0.13235277169E+00  0.21959280930E-01 0.  0.
         14    1    1    2    0    0 -0.20425761218E-01  0.40141844572E-02  0.10565002257E-01  0.23344050010E-01  0.00000000000E+00 0. -1.
     999901    1    3    3    0    0 -0.46351455760E-01 -0.10352016736E+00  0.41149684387E-01  0.88823317830E+00  0.88000000000E+00 0. -1.
        -11    1    4    4    0    0  0.51217854259E-01  0.57672753785E-01 -0.30732197566E-01  0.83030983448E-01  0.51100000000E-03 0.  1.
         11    1    4    4    0    0  0.15559362719E-01  0.41833229119E-01 -0.20982489079E-01  0.49321788245E-01  0.51100000000E-03 0. -1.
</event>
<event>
 8    1  0.1088270E+005  0.1043930E+01  0.7957747E-01            NaN
         13   -1    0    0    0    0  0.00000000000E+00  0.00000000000E+00  0.74505805969E-08  0.10566000000E+00  0.10566000000E+00 0.  1.
     999900   -1    0    0    0    0 -0.00000000000E+00 -0.00000000000E+00 -0.74505805969E-08  0.93827000000E+00  0.93827000000E+00 0.  1.
     999902    2    1    2    0    0 -0.14759681107E-01  0.16876518761E-02  0.17532116828E-01  0.10209501942E+01  0.10206915438E+01 0.  0.
     999903    2    3    3    0    0  0.80313136137E-01  0.45210822587E-01 -0.87471645726E-01  0.12856076286E+00  0.19554094891E-01 0.  0.
         14    1    1    2    0    0  0.14759681107E-01 -0.16876518761E-02 -0.17532116828E-01  0.22979805824E-01  0.00000000000E+00 0. -1.
     999901    1    3    3    0    0 -0.95072817244E-01 -0.43523170711E-01  0.10500376255E+00  0.89238943131E+00  0.88000000000E+00 0. -1.
        -11    1    4    4    0    0  0.58172570364E-01  0.42137512946E-01 -0.67946516954E-01  0.98876732487E-01  0.51100000000E-03 0. -1.
         11    1    4    4    0    0  0.22140565773E-01  0.30733096413E-02 -0.19525128771E-01  0.29684030377E-01  0.51100000000E-03 0.  1.
</event>
<event>
 8    1  0.1088270E+005  0.1043930E+01  0.7957747E-01            NaN
         13   -1    0    0    0    0  0.00000000000E+00  0.00000000000E+00  0.74505805969E-08  0.10566000000E+00  0.10566000000E+00 0.  1.
     999900   -1    0    0    0    0 -0.00000000000E+00 -0.00000000000E+00 -0.74505805969E-08  0.93827000000E+00  0.93827000000E+00 0.  1.
     999902    2    1    2    0    0 -0.76971673245E-02 -0.14526596322E-01  0.13123268536E-01  0.10228945879E+01  0.10226782727E+01 0.  0.
     999903    2    3    3    0    0  0.63309277371E-01  0.94571048549E-01 -0.60379897206E-01  0.13028777261E+00  0.19427400274E-01 0.  0.
         14    1    1    2    0    0  0.76971673245E-02  0.14526596322E-01 -0.13123268536E-01  0.21035412109E-01  0.00000000000E+00 0.  1.
     999901    1    3    3    0    0 -0.71006444696E-01 -0.10909764487E+00  0.73503165741E-01  0.89260681528E+00  0.88000000000E+00 0. -1.
        -11    1    4    4    0    0  0.52313356181E-01  0.67579036657E-01 -0.51651917822E-01  0.99858876251E-01  0.51100000000E-03 0. -1.
         11    1    4    4    0    0  0.10995921190E-01  0.26992011891E-01 -0.87279793836E-02  0.30428896363E-01  0.51100000000E-03 0.  1.
</event>
<event>
 8    1  0.1088270E+005  0.1043930E+01  0.7957747E-01            NaN
         13   -1    0    0    0    0  0.00000000000E+00  0.00000000000E+00  0.74505805969E-08  0.10566000000E+00  0.10566000000E+00 0. -1.
     999900   -1    0    0    0    0 -0.00000000000E+00 -0.00000000000E+00 -0.74505805969E-08  0.93827000000E+00  0.93827000000E+00 0.  1.
     999902    2    1    2    0    0 -0.11543402595E-01  0.39117259660E-02 -0.21078384854E-01  0.10195814877E+01  0.10192907142E+01 0.  0.
     999903    2    3    3    0    0 -0.27845216203E-01  0.65123084905E-01 -0.11050667160E+00  0.13278387941E+00  0.20086361306E-01 0.  0.
         14    1    1    2    0    0  0.11543402595E-01 -0.39117259660E-02  0.21078384854E-01  0.24348512306E-01  0.00000000000E+00 0. -1.
     999901    1    3    3    0    0  0.16301813609E-01 -0.61211358939E-01  0.89428286743E-01  0.88679760828E+00  0.88000000000E+00 0. -1.
        -11    1    4    4    0    0 -0.50587326767E-02  0.13055164986E-01 -0.38996975076E-01  0.41437341796E-01  0.51100000000E-03 0. -1.
         11    1    4    4    0    0 -0.22786483527E-01  0.52067919920E-01 -0.71509696521E-01  0.91346537612E-01  0.51100000000E-03 0.  1.
</event>
<event>
 8    1  0.1088270E+005  0.1043930E+01  0.7957747E-01            NaN
         13   -1    0    0    0    0  0.00000000000E+00  0.00000000000E+00  0.74505805969E-08  0.10566000000E+00  0.10566000000E+00 0. -1.
     999900   -1    0    0    0    0 -0.00000000000E+00 -0.00000000000E+00 -0.74505805969E-08  0.93827000000E+00  0.93827000000E+00 0.  1.
     999902    2    1    2    0    0  0.19486683360E-01  0.93427917388E-02  0.94156927521E-02  0.10203572646E+01  0.10200849345E+01 0.  0.
     999903    2    3    3    0    0  0.53050158928E-01 -0.88189714810E-01  0.79617628373E-01  0.13155615718E+00  0.19398726334E-01 0.  0.
         14    1    1    2    0    0 -0.19486683360E-01 -0.93427917388E-02 -0.94156927521E-02  0.23572735434E-01  0.00000000000E+00 0. -1.
     999901    1    3    3    0    0 -0.33563475568E-01  0.97532506549E-01 -0.70201935621E-01  0.88880110739E+00  0.88000000000E+00 0. -1.
        -11    1    4    4    0    0  0.35186019123E-01 -0.40198705026E-01  0.43415888600E-01  0.68841792041E-01  0.51100000000E-03 0. -1.
         11    1    4    4    0    0  0.17864139805E-01 -0.47991009784E-01  0.36201739774E-01  0.62714365139E-01  0.51100000000E-03 0.  1.
</event>
<event>
 8    1  0.1088270E+005  0.1043930E+01  0.7957747E-01            NaN
         13   -1    0    0    0    0  0.00000000000E+00  0.00000000000E+00  0.74505805969E-08  0.10566000000E+00  0.10566000000E+00 0.  1.
     999900   -1    0    0    0    0 -0.00000000000E+00 -0.00000000000E+00 -0.74505805969E-08  0.93827000000E+00  0.93827000000E+00 0. -1.
     999902    2    1    2    0    0  0.94098885687E-02 -0.71726379005E-02 -0.21015361620E-01  0.10198128243E+01  0.10195276154E+01 0.  0.
     999903    2    3    3    0    0 -0.27805238179E-01  0.92710355432E-01  0.80663738254E-01  0.12756834139E+00  0.19967518175E-01 0.  0.
         14    1    1    2    0    0 -0.94098885687E-02  0.71726379005E-02  0.21015361620E-01  0.24117175650E-01  0.00000000000E+00 0.  1.
     999901    1    3    3    0    0  0.37215126748E-01 -0.99882993333E-01 -0.10167909987E+00  0.89224448296E+00  0.88000000000E+00 0. -1.
        -11    1    4    4    0    0 -0.66604436033E-02  0.48074303186E-01  0.31404339966E-01  0.57809980328E-01  0.51100000000E-03 0.  1.
         11    1    4    4    0    0 -0.21144794576E-01  0.44636052246E-01  0.49259398288E-01  0.69758361065E-01  0.51100000000E-03 0. -1.
</event>
<event>
 8    1  0.1088270E+005  0.1043930E+01  0.7957747E-01            NaN
         13   -1    0    0    0    0  0.00000000000E+00  0.00000000000E+00  0.74505805969E-08  0.10566000000E+00  0.10566000000E+00 0. -1.
     999900   -1    0    0    0    0 -0.00000000000E+00 -0.00000000000E+00 -0.74505805969E-08  0.93827000000E+00  0.93827000000E+00 0. -1.
     999902    2    1    2    0    0  0.93912829626E-02  0.16911660481E-01 -0.14142774719E-01  0.10199671426E+01  0.10196856151E+01 0.  0.
     999903    2    3    3    0    0 -0.10883739254E+00  0.68971331623E-01  0.18936466709E-02  0.13039117856E+00  0.19890976547E-01 0.  0.
         14    1    1    2    0    0 -0.93912829626E-02 -0.16911660481E-01  0.14142774719E-01  0.23962857356E-01  0.00000000000E+00 0. -1.
     999901    1    3    3    0    0  0.11822867550E+00 -0.52059671143E-01 -0.16036421390E-01  0.88957596409E+00  0.88000000000E+00 0. -1.
        -11    1    4    4    0    0 -0.93743667637E-01  0.54949611766E-01 -0.46702272711E-02  0.10876307829E+00  0.51100000000E-03 0.  1.
         11    1    4    4    0    0 -0.15093724900E-01  0.14021719857E-01  0.65638739420E-02  0.21628100268E-01  0.51100000000E-03 0. -1.
</event>
<event>
 8    1  0.1088270E+005  0.1043930E+01  0.7957747E-01            NaN
         13   -1    0    0    0    0  0.00000000000E+00  0.00000000000E+00  0.74505805969E-08  0.10566000000E+00  0.10566000000E+00 0. -1.
     999900   -1    0    0    0    0 -0.00000000000E+00 -0.00000000000E+00 -0.74505805969E-08  0.93827000000E+00  0.93827000000E+00 0. -1.
     999902    2    1    2    0    0  0.17961951837E-01  0.15735364907E-01  0.40028480076E-02  0.10197172716E+01  0.10194297709E+01 0.  0.
     999903    2    3    3    0    0  0.68080269748E-01 -0.10520565036E+00  0.27733353542E-01  0.12971630992E+00  0.18815689314E-01 0.  0.
         14    1    1    2    0    0 -0.17961951837E-01 -0.15735364907E-01 -0.40028480076E-02  0.24212728362E-01  0.00000000000E+00 0.  1.
     999901    1    3    3    0    0 -0.50118317911E-01  0.12094101527E+00 -0.23730505534E-01  0.89000096172E+00  0.88000000000E+00 0.  1.
        -11    1    4    4    0    0  0.42096259760E-01 -0.55866750722E-01  0.23482162030E-01  0.73789308010E-01  0.51100000000E-03 0.  1.
         11    1    4    4    0    0  0.25984009989E-01 -0.49338899638E-01  0.42511915124E-02  0.55927001912E-01  0.51100000000E-03 0. -1.
</event>
<event>
 8    1  0.1088270E+005  0.1043930E+01  0.7957747E-01            NaN
         13   -1    0    0    0    0  0.00000000000E+00  0.00000000000E+00  0.74505805969E-08  0.10566000000E+00  0.10566000000E+00 0. -1.
     999900   -1    0    0    0    0 -0.00000000000E+00 -0.00000000000E+00 -0.74505805969E-08  0.93827000000E+00  0.93827000000E+00 0.  1.
     999902    2    1    2    0    0  0.15614549703E-02  0.13342105909E-01 -0.19471554279E-01  0.10202743166E+01  0.10200000440E+01 0.  0.
     999903    2    3    3    0    0 -0.11924577823E-01  0.12989274349E+00  0.55255375406E-02  0.13213537543E+00  0.20369229429E-01 0.  0.
         14    1    1    2    0    0 -0.15614549703E-02 -0.13342105909E-01  0.19471554279E-01  0.23655683413E-01  0.00000000000E+00 0. -1.
     999901    1    3    3    0    0  0.13486032793E-01 -0.11655063758E+00 -0.24997091819E-01  0.88813894116E+00  0.88000000000E+00 0.  1.
        -11    1    4    4    0    0  0.11225237073E-02  0.36226301775E-01 -0.64211456038E-02  0.36811645326E-01  0.51100000000E-03 0.  1.
         11    1    4    4    0    0 -0.13047101530E-01  0.93666441714E-01  0.11946683144E-01  0.95323730103E-01  0.51100000000E-03 0. -1.
</event>
<event>
 8    1  0.1088270E+005  0.1043930E+01  0.7957747E-01            NaN
         13   -1    0    0    0    0  0.00000000000E+00  0.00000000000E+00  0.74505805969E-08  0.10566000000E+00  0.10566000000E+00 0.  1.
     999900   -1    0    0    0    0 -0.00000000000E+00 -0.00000000000E+00 -0.74505805969E-08  0.93827000000E+00  0.93827000000E+00 0.  1.
     999902    2    1    2    0    0  0.20097476209E-02 -0.20721769454E-01  0.75920291802E-02  0.10217699070E+01  0.10215295753E+01 0.  0.
     999903    2    3    3    0    0  0.42793198865E-02 -0.11075715889E+00 -0.71998453011E-01  0.13359978412E+00  0.19484975196E-01 0.  0.
         14    1    1    2    0    0 -0.20097476209E-02  0.20721769454E-01 -0.75920291802E-02  0.22160093002E-01  0.00000000000E+00 0.  1.
     999901    1    3    3    0    0 -0.22695722656E-02  0.90035389435E-01  0.79590482191E-01  0.88817012287E+00  0.88000000000E+00 0. -1.
        -11    1    4    4    0    0  0.11882449916E-01 -0.77930045505E-01 -0.51121534168E-01  0.93957208266E-01  0.51100000000E-03 0.  1.
         11    1    4    4    0    0 -0.76031300293E-02 -0.32827113384E-01 -0.20876918842E-01  0.39642575858E-01  0.51100000000E-03 0. -1.
</event>
<event>
 8    1  0.1088270E+005  0.1043930E+01  0.7957747E-01            NaN
         13   -1    0    0    0    0  0.00000000000E+00  0.00000000000E+00  0.74505805969E-08  0.10566000000E+00  0.10566000000E+00 0.  1.
     999900   -1    0    0    0    0 -0.00000000000E+00 -0.00000000000E+00 -0.74505805969E-08  0.93827000000E+00  0.93827000000E+00 0.  1.
     999902    2    1    2    0    0 -0.11206237917E-01 -0.12499084535E-01 -0.17293713462E-01  0.10198285600E+01  0.10195437276E+01 0.  0.
     999903    2    3    3    0    0  0.11491965035E+00 -0.25859305451E-01  0.47757027141E-01  0.12835907989E+00  0.17891060200E-01 0.  0.
         14    1    1    2    0    0  0.11206237917E-01  0.12499084535E-01  0.17293713462E-01  0.24101439953E-01  0.00000000000E+00 0.  1.
     999901    1    3    3    0    0 -0.12612588827E+00  0.13360220916E-01 -0.65050740603E-01  0.89146948015E+00  0.88000000000E+00 0.  1.
        -11    1    4    4    0    0  0.93123218835E-01 -0.27702913762E-01  0.41050373651E-01  0.10547407082E+00  0.51100000000E-03 0. -1.
         11    1    4    4    0    0  0.21796431513E-01  0.18436083109E-02  0.67066534899E-02  0.22885009075E-01  0.51100000000E-03 0.  1.
</event>
<event>
 8    1  0.1088270E+005  0.1043930E+01  0.7957747E-01            NaN
         13   -1    0    0    0    0  0.00000000000E+00  0.00000000000E+00  0.74505805969E-08  0.10566000000E+00  0.10566000000E+00 0. -1.
     999900   -1    0    0    0    0 -0.00000000000E+00 -0.00000000000E+00 -0.74505805969E-08  0.93827000000E+00  0.93827000000E+00 0. -1.
     999902    2    1    2    0    0 -0.45117600973E-02 -0.35049940820E-02  0.30730080914E-01  0.10126733393E+01  0.10121908483E+01 0.  0.
     999903    2    3    3    0    0  0.38193841025E-01 -0.93969774266E-01 -0.63890531519E-01  0.12196535963E+00  0.22460208462E-01 0.  0.
         14    1    1    2    0    0  0.45117600973E-02  0.35049940820E-02 -0.30730080914E-01  0.31256660661E-01  0.00000000000E+00 0.  1.
     999901    1    3    3    0    0 -0.42705601122E-01  0.90464780184E-01  0.94620612432E-01  0.89070797971E+00  0.88000000000E+00 0.  1.
        -11    1    4    4    0    0  0.14873643012E-01 -0.65069579763E-01 -0.40599504954E-01  0.78127180868E-01  0.51100000000E-03 0. -1.
         11    1    4    4    0    0  0.23320198013E-01 -0.28900194503E-01 -0.23291026565E-01  0.43838178762E-01  0.51100000000E-03 0.  1.
</event>
<event>
 8    1  0.1088270E+005  0.1043930E+01  0.7957747E-01            NaN
         13   -1    0    0    0    0  0.00000000000E+00  0.00000000000E+00  0.74505805969E-08  0.10566000000E+00  0.10566000000E+00 0. -1.
     999900   -1    0    0    0    0 -0.00000000000E+00 -0.00000000000E+00 -0.74505805969E-08  0.93827000000E+00  0.93827000000E+00 0. -1.
     999902    2    1    2    0    0  0.33163830740E-02  0.20986982271E-01  0.10404926832E-01  0.10202717176E+01  0.10199973841E+01 0.  0.
     999903    2    3    3    0    0  0.10237574014E+00  0.81855704081E-01  0.29690162147E-02  0.13259325656E+00  0.19773926436E-01 0.  0.
         14    1    1    2    0    0 -0.33163830740E-02 -0.20986982271E-01 -0.10404926832E-01  0.23658282353E-01  0.00000000000E+00 0. -1.
     999901    1    3    3    0    0 -0.99059357068E-01 -0.60868721810E-01  0.74359106176E-02  0.88767846109E+00  0.88000000000E+00 0. -1.
        -11    1    4    4    0    0  0.99280843871E-01  0.74549742276E-01  0.54180041019E-02  0.12427375396E+00  0.51100000000E-03 0.  1.
         11    1    4    4    0    0  0.30948962706E-02  0.73059618047E-02 -0.24489878872E-02  0.83195025987E-02  0.51100000000E-03 0. -1.
</event>
<event>
 8    1  0.1088270E+005  0.1043930E+01  0.7957747E-01            NaN
         13   -1    0    0    0    0  0.00000000000E+00  0.00000000000E+00  0.74505805969E-08  0.10566000000E+00  0.10566000000E+00 0. -1.
     999900   -1    0    0    0    0 -0.00000000000E+00 -0.00000000000E+00 -0.74505805969E-08  0.93827000000E+00  0.93827000000E+00 0.  1.
     999902    2    1    2    0    0  0.49982717097E-02 -0.17474749460E-01 -0.10228942887E-01  0.10230738052E+01  0.10228611978E+01 0.  0.
     999903    2    3    3    0    0  0.11235099221E+00 -0.66380143215E-02  0.67871953365E-01  0.13305032719E+00  0.20711804022E-01 0.  0.
         14    1    1    2    0    0 -0.49982717097E-02  0.17474749460E-01  0.10228942887E-01  0.20856194795E-01  0.00000000000E+00 0.  1.
     999901    1    3    3    0    0 -0.10735272050E+00 -0.10836735138E-01 -0.78100896252E-01  0.89002347802E+00  0.88000000000E+00 0.  1.
        -11    1    4    4    0    0  0.68476589635E-01 -0.10294928109E-01  0.50551717975E-01  0.85736609357E-01  0.51100000000E-03 0.  1.
         11    1    4    4    0    0  0.43874402577E-01  0.36569137871E-02  0.17320235390E-01  0.47313717830E-01  0.51100000000E-03 0. -1.
</event>
<event>
 8    1  0.1088270E+005  0.1043930E+01  0.7957747E-01            NaN
         13   -1    0    0    0    0  0.00000000000E+00  0.00000000000E+00  0.74505805969E-08  0.10566000000E+00  0.10566000000E+00 0. -1.
     999900   -1    0    0    0    0 -0.00000000000E+00 -0.00000000000E+00 -0.74505805969E-08  0.93827000000E+00  0.93827000000E+00 0. -1.
     999902    2    1    2    0    0 -0.21638607055E-01 -0.34970665865E-03  0.21844866170E-01  0.10131802067E+01  0.10127134745E+01 0.  0.
     999903    2    3    3    0    0 -0.43240642432E-01  0.70161567616E-01  0.94089073770E-01  0.12714538049E+00  0.22820938799E-01 0.  0.
         14    1    1    2    0    0  0.21638607055E-01  0.34970665865E-03 -0.21844866170E-01  0.30749793300E-01  0.00000000000E+00 0.  1.
     999901    1    3    3    0    0  0.21602035378E-01 -0.70511274275E-01 -0.72244207601E-01  0.88603482621E+00  0.88000000000E+00 0. -1.
        -11    1    4    4    0    0 -0.10267345392E-01  0.28397225359E-01  0.21203153248E-01  0.36900618127E-01  0.51100000000E-03 0.  1.
         11    1    4    4    0    0 -0.32973297041E-01  0.41764342258E-01  0.72885920522E-01  0.90244762359E-01  0.51100000000E-03 0. -1.
</event>
<event>
 8    1  0.1088270E+005  0.1043930E+01  0.7957747E-01            NaN
         13   -1    0    0    0    0  0.00000000000E+00  0.00000000000E+00  0.74505805969E-08  0.10566000000E+00  0.10566000000E+00 0.  1.
     999900   -1    0    0    0    0 -0.00000000000E+00 -0.00000000000E+00 -0.74505805969E-08  0.93827000000E+00  0.93827000000E+00 0.  1.
     999902    2    1    2    0    0  0.10979783994E-01  0.50327572526E-02  0.21874469207E-01  0.10189424690E+01  0.10186360383E+01 0.  0.
     999903    2    3    3    0    0  0.99926926376E-01  0.23625006626E-01 -0.75366930230E-01  0.12893507823E+00  0.20013712102E-01 0.  0.
         14    1    1    2    0    0 -0.10979783994E-01 -0.50327572526E-02 -0.21874469207E-01  0.24987530995E-01  0.00000000000E+00 0. -1.
     999901    1    3    3    0    0 -0.88947142382E-01 -0.18592249373E-01  0.97241399438E-01  0.89000739078E+00  0.88000000000E+00 0. -1.
        -11    1    4    4    0    0  0.24923296245E-01 -0.96175434471E-03 -0.11841466584E-01  0.27614798913E-01  0.51100000000E-03 0.  1.
         11    1    4    4    0    0  0.75003630131E-01  0.24586760971E-01 -0.63525463646E-01  0.10132027931E+00  0.51100000000E-03 0. -1.
</event>
<event>
 8    1  0.1088270E+005  0.1043930E+01  0.7957747E-01            NaN
         13   -1    0    0    0    0  0.00000000000E+00  0.00000000000E+00  0.74505805969E-08  0.10566000000E+00  0.10566000000E+00 0. -1.
     999900   -1    0    0    0    0 -0.00000000000E+00 -0.00000000000E+00 -0.74505805969E-08  0.93827000000E+00  0.93827000000E+00 0. -1.
     999902    2    1    2    0    0  0.19592047548E-01 -0.60853644053E-02  0.12480594001E-01  0.10199165618E+01  0.10196338303E+01 0.  0.
     999903    2    3    3    0    0  0.11319999015E-01  0.95293365761E-01 -0.83541701552E-01  0.12886866469E+00  0.20468241379E-01 0.  0.
         14    1    1    2    0    0 -0.19592047548E-01  0.60853644053E-02 -0.12480594001E-01  0.24013438190E-01  0.00000000000E+00 0.  1.
     999901    1    3    3    0    0  0.82720485333E-02 -0.10137873017E+00  0.96022295554E-01  0.89104789712E+00  0.88000000000E+00 0.  1.
        -11    1    4    4    0    0  0.89573962828E-02  0.27819169139E-01 -0.35594672549E-01  0.46058473212E-01  0.51100000000E-03 0. -1.
         11    1    4    4    0    0  0.23626027321E-02  0.67474196623E-01 -0.47947029003E-01  0.82810191479E-01  0.51100000000E-03 0.  1.
</event>
<event>
 8    1  0.1088270E+005  0.1043930E+01  0.7957747E-01            NaN
         13   -1    0    0    0    0  0.00000000000E+00  0.00000000000E+00  0.74505805969E-08  0.10566000000E+00  0.10566000000E+00 0.  1.
     999900   -1    0    0    0    0 -0.00000000000E+00 -0.00000000000E+00 -0.74505805969E-08  0.93827000000E+00  0.93827000000E+00 0.  1.
     999902    2    1    2    0    0  0.12636621441E-01  0.14980787805E-01  0.13555902415E-01  0.10200999623E+01  0.10198215836E+01 0.  0.
     999903    2    3    3    0    0  0.12443023022E+00 -0.26994620842E-01  0.28034601730E-01  0.13191677255E+00  0.20112290706E-01 0.  0.
         14    1    1    2    0    0 -0.12636621441E-01 -0.14980787805E-01 -0.13555902415E-01  0.23830037662E-01  0.00000000000E+00 0. -1.
     999901    1    3    3    0    0 -0.11179360878E+00  0.41975408647E-01 -0.14478699315E-01  0.88818318979E+00  0.88000000000E+00 0.  1.
        -11    1    4    4    0    0  0.60293578536E-01 -0.82926346778E-02  0.42949438183E-02  0.61014679103E-01  0.51100000000E-03 0. -1.
         11    1    4    4    0    0  0.64136651685E-01 -0.18701986165E-01  0.23739657912E-01  0.70902093443E-01  0.51100000000E-03 0.  1.
</event>
<event>
 8    1  0.1088270E+005  0.1043930E+01  0.7957747E-01            NaN
         13   -1    0    0    0    0  0.00000000000E+00  0.00000000000E+00  0.74505805969E-08  0.10566000000E+00  0.10566000000E+00 0.  1.
     999900   -1    0    0    0    0 -0.00000000000E+00 -0.00000000000E+00 -0.74505805969E-08  0.93827000000E+00  0.93827000000E+00 0. -1.
     999902    2    1    2    0    0  0.21794949671E-01  0.80320530736E-02 -0.65986788946E-02  0.10197830277E+01  0.10194971051E+01 0.  0.
     999903    2    3    3    0    0 -0.14019648866E-01 -0.36690975189E-02 -0.12824483743E+00  0.13061634464E+00  0.20096724312E-01 0.  0.
         14    1    1    2    0    0 -0.21794949671E-01 -0.80320530736E-02  0.65986788946E-02  0.24146972293E-01  0.00000000000E+00 0.  1.
     999901    1    3    3    0    0  0.35814598537E-01  0.11701150593E-01  0.12164615854E+00  0.88916668307E+00  0.88000000000E+00 0.  1.
        -11    1    4    4    0    0  0.40424862685E-02 -0.73663951204E-03 -0.82246808463E-02  0.92081935810E-02  0.51100000000E-03 0.  1.
         11    1    4    4    0    0 -0.18062135135E-01 -0.29324580069E-02 -0.12002015658E+00  0.12140815106E+00  0.51100000000E-03 0. -1.
</event>
<event>
 8    1  0.1088270E+005  0.1043930E+01  0.7957747E-01            NaN
         13   -1    0    0    0    0  0.00000000000E+00  0.00000000000E+00  0.74505805969E-08  0.10566000000E+00  0.10566000000E+00 0. -1.
     999900   -1    0    0    0    0 -0.00000000000E+00 -0.00000000000E+00 -0.74505805969E-08  0.93827000000E+00  0.93827000000E+00 0.  1.
     999902    2    1    2    0    0  0.22384348279E-01  0.37085915432E-02 -0.68636218953E-02  0.10202251059E+01  0.10199496775E+01 0.  0.
     999903    2    3    3    0    0 -0.92214242327E-01  0.29288101425E-01 -0.83105368065E-01  0.12915835634E+00  0.20349924785E-01 0.  0.
         14    1    1    2    0    0 -0.22384348279E-01 -0.37085915432E-02  0.68636218953E-02  0.23704894108E-01  0.00000000000E+00 0.  1.
     999901    1    3    3    0    0  0.11459859061E+00 -0.25579509882E-01  0.76241746170E-01  0.89106674955E+00  0.88000000000E+00 0. -1.
        -11    1    4    4    0    0 -0.52781206273E-01  0.74378386260E-02 -0.38654565001E-01  0.65845377176E-01  0.51100000000E-03 0.  1.
         11    1    4    4    0    0 -0.39433036054E-01  0.21850262799E-01 -0.44450803064E-01  0.63312979166E-01  0.51100000000E-03 0. -1.
</event>
<event>
 8    1  0.1088270E+005  0.1043930E+01  0.7957747E-01            NaN
         13   -1    0    0    0    0  0.00000000000E+00  0.00000000000E+00  0.74505805969E-08  0.10566000000E+00  0.10566000000E+00 0.  1.
     999900   -1    0    0    0    0 -0.00000000000E+00 -0.00000000000E+00 -0.74505805969E-08  0.93827000000E+00  0.93827000000E+00 0.  1.
     999902    2    1    2    0    0 -0.17983847092E-01  0.15694264269E-01 -0.53313778465E-02  0.10194728481E+01  0.10191794424E+01 0.  0.
     999903    2    3    3    0    0 -0.11230541088E+00  0.63611428485E-01  0.23560419852E-01  0.13266545756E+00  0.19649709914E-01 0.  0.
         14    1    1    2    0    0  0.17983847092E-01 -0.15694264269E-01  0.53313778465E-02  0.24457151856E-01  0.00000000000E+00 0.  1.
     999901    1    3    3    0    0  0.94321563785E-01 -0.47917164217E-01 -0.28891797698E-01  0.88680739058E+00  0.88000000000E+00 0. -1.
        -11    1    4    4    0    0 -0.41435874066E-01  0.21434894790E-01 -0.83193936502E-03  0.46661971866E-01  0.51100000000E-03 0.  1.
         11    1    4    4    0    0 -0.70869536810E-01  0.42176533696E-01  0.24392359217E-01  0.86003485694E-01  0.51100000000E-03 0. -1.
</event>
<event>
 8    1  0.1088270E+005  0.1043930E+01  0.7957747E-01            NaN
         13   -1    0    0    0    0  0.00000000000E+00  0.00000000000E+00  0.74505805969E-08  0.10566000000E+00  0.10566000000E+00 0. -1.
     999900   -1    0    0    0    0 -0.00000000000E+00 -0.00000000000E+00 -0.74505805969E-08  0.93827000000E+00  0.93827000000E+00 0.  1.
     999902    2    1    2    0    0 -0.19294845715E-01  0.61484734231E-02  0.12741161706E-01  0.10200044488E+01  0.10197238075E+01 0.  0.
     999903    2    3    3    0    0  0.69140870193E-01 -0.90252886369E-01 -0.54802794586E-01  0.12777337785E+00  0.19915982601E-01 0.  0.
         14    1    1    2    0    0  0.19294845715E-01 -0.61484734231E-02 -0.12741161706E-01  0.23925551158E-01  0.00000000000E+00 0.  1.
     999901    1    3    3    0    0 -0.88435715907E-01  0.96401359793E-01  0.67543956292E-01  0.89223107100E+00  0.88000000000E+00 0. -1.
        -11    1    4    4    0    0  0.69199728926E-02 -0.21761972154E-01 -0.12326176229E-01  0.25955061131E-01  0.51100000000E-03 0. -1.
         11    1    4    4    0    0  0.62220897300E-01 -0.68490914215E-01 -0.42476618358E-01  0.10181831672E+00  0.51100000000E-03 0.  1.
</event>
<event>
 8    1  0.1088270E+005  0.1043930E+01  0.7957747E-01            NaN
         13   -1    0    0    0    0  0.00000000000E+00  0.00000000000E+00  0.74505805969E-08  0.10566000000E+00  0.10566000000E+00 0. -1.
     999900   -1    0    0    0    0 -0.00000000000E+00 -0.00000000000E+00 -0.74505805969E-08  0.93827000000E+00  0.93827000000E+00 0. -1.
     999902    2    1    2    0    0  0.11496545487E-01 -0.11218979971E-01  0.17099627450E-01  0.10204686844E+01  0.10201989524E+01 0.  0.
     999903    2    3    3    0    0  0.10109748978E+00  0.80972284735E-01  0.31758464549E-02  0.13101861265E+00  0.19457068766E-01 0.  0.
         14    1    1    2    0    0 -0.11496545487E-01  0.11218979971E-01 -0.17099627450E-01  0.23461315578E-01  0.00000000000E+00 0.  1.
     999901    1    3    3    0    0 -0.89600944288E-01 -0.92191264706E-01  0.13923780995E-01  0.88945007178E+00  0.88000000000E+00 0. -1.
        -11    1    4    4    0    0  0.70910794438E-01  0.57618101316E-01 -0.66285486318E-02  0.91609962040E-01  0.51100000000E-03 0. -1.
         11    1    4    4    0    0  0.30186695337E-01  0.23354183419E-01  0.98043950867E-02  0.39408650606E-01  0.51100000000E-03 0.  1.
</event>
<event>
 8    1  0.1088270E+005  0.1043930E+01  0.7957747E-01            NaN
         13   -1    0    0    0    0  0.00000000000E+00  0.00000000000E+00  0.74505805969E-08  0.10566000000E+00  0.10566000000E+00 0. -1.
     999900   -1    0    0    0    0 -0.00000000000E+00 -0.00000000000E+00 -0.74505805969E-08  0.93827000000E+00  0.93827000000E+00 0. -1.
     999902    2    1    2    0    0  0.18418681774E-01  0.15716416255E-01  0.10295281560E-02  0.10196954481E+01  0.10194074226E+01 0.  0.
     999903    2    3    3    0    0  0.30931089512E-01 -0.95183647876E-01 -0.78909053237E-01  0.12905210681E+00  0.20276796279E-01 0.  0.
         14    1    1    2    0    0 -0.18418681774E-01 -0.15716416255E-01 -0.10295281560E-02  0.24234551912E-01  0.00000000000E+00 0. -1.
     999901    1    3    3    0    0 -0.12512407739E-01  0.11090006413E+00  0.79938581393E-01  0.89064334128E+00  0.88000000000E+00 0.  1.
        -11    1    4    4    0    0  0.27436738987E-01 -0.58463659827E-01 -0.57049572526E-01  0.86172437664E-01  0.51100000000E-03 0. -1.
         11    1    4    4    0    0  0.34943505257E-02 -0.36719988049E-01 -0.21859480712E-01  0.42879669144E-01  0.51100000000E-03 0.  1.
</event>
<event>
 8    1  0.1088270E+005  0.1043930E+01  0.7957747E-01            NaN
         13   -1    0    0    0    0  0.00000000000E+00  0.00000000000E+00  0.74505805969E-08  0.10566000000E+00  0.10566000000E+00 0. -1.
     999900   -1    0    0    0    0 -0.00000000000E+00 -0.00000000000E+00 -0.74505805969E-08  0.93827000000E+00  0.93827000000E+00 0. -1.
     999902    2    1    2    0    0 -0.16492295853E-01 -0.14155261307E-01  0.88420481813E-02  0.10204662181E+01  0.10201964287E+01 0.  0.
     999903    2    3    3    0    0  0.95395616388E-01  0.22518028292E-01 -0.80254486678E-01  0.12816468408E+00  0.19442695041E-01 0.  0.
         14    1    1    2    0    0  0.16492295853E-01  0.14155261307E-01 -0.88420481813E-02  0.23463781904E-01  0.00000000000E+00 0.  1.
     999901    1    3    3    0    0 -0.11188791224E+00 -0.36673289599E-01  0.89096534859E-01  0.89230153401E+00  0.88000000000E+00 0.  1.
        -11    1    4    4    0    0  0.39011106416E-01  0.12550482664E-01 -0.45254354191E-01  0.61054064018E-01  0.51100000000E-03 0.  1.
         11    1    4    4    0    0  0.56384509972E-01  0.99675456281E-02 -0.35000132487E-01  0.67110620067E-01  0.51100000000E-03 0. -1.
</event>
<event>
 8    1  0.1088270E+005  0.1043930E+01  0.7957747E-01            NaN
         13   -1    0    0    0    0  0.00000000000E+00  0.00000000000E+00  0.74505805969E-08  0.10566000000E+00  0.10566000000E+00 0. -1.
     999900   -1    0    0    0    0 -0.00000000000E+00 -0.00000000000E+00 -0.74505805969E-08  0.93827000000E+00  0.93827000000E+00 0.  1.
     999902    2    1    2    0    0  0.18567857341E-01  0.51066712536E-03  0.14720964827E-01  0.10202290947E+01  0.10199537601E+01 0.  0.
     999903    2    3    3    0    0 -0.73740201038E-01  0.10376898961E+00 -0.31555729359E-03  0.12926941221E+00  0.22469109981E-01 0.  0.
         14    1    1    2    0    0 -0.18567857341E-01 -0.51066712536E-03 -0.14720964827E-01  0.23700905312E-01  0.00000000000E+00 0. -1.
     999901    1    3    3    0    0  0.92308058379E-01 -0.10325832248E+00  0.15036522121E-01  0.89095968248E+00  0.88000000000E+00 0. -1.
        -11    1    4    4    0    0 -0.65890296303E-01  0.81111576208E-01  0.52974250551E-02  0.10463719594E+00  0.51100000000E-03 0. -1.
         11    1    4    4    0    0 -0.78499047355E-02  0.22657413400E-01 -0.56129823487E-02  0.24632216266E-01  0.51100000000E-03 0.  1.
</event>
<event>
 8    1  0.1088270E+005  0.1043930E+01  0.7957747E-01            NaN
         13   -1    0    0    0    0  0.00000000000E+00  0.00000000000E+00  0.74505805969E-08  0.10566000000E+00  0.10566000000E+00 0. -1.
     999900   -1    0    0    0    0 -0.00000000000E+00 -0.00000000000E+00 -0.74505805969E-08  0.93827000000E+00  0.93827000000E+00 0. -1.
     999902    2    1    2    0    0 -0.47178301158E-02  0.21455568121E-01  0.91686472283E-02  0.10201253068E+01  0.10198475270E+01 0.  0.
     999903    2    3    3    0    0 -0.62581196705E-01 -0.81160941157E-01 -0.74700708880E-01  0.12832242163E+00  0.19568940601E-01 0.  0.
         14    1    1    2    0    0  0.47178301158E-02 -0.21455568121E-01 -0.91686472283E-02  0.23804693159E-01  0.00000000000E+00 0. -1.
     999901    1    3    3    0    0  0.57863366590E-01  0.10261650928E+00  0.83869356108E-01  0.89180288521E+00  0.88000000000E+00 0. -1.
        -11    1    4    4    0    0 -0.52740307307E-01 -0.77436865390E-01 -0.68876873356E-01  0.11628539436E+00  0.51100000000E-03 0. -1.
         11    1    4    4    0    0 -0.98408893985E-02 -0.37240757667E-02 -0.58238355239E-02  0.12037027278E-01  0.51100000000E-03 0.  1.
</event>
<event>
 8    1  0.1088270E+005  0.1043930E+01  0.7957747E-01            NaN
         13   -1    0    0    0    0  0.00000000000E+00  0.00000000000E+00  0.74505805969E-08  0.10566000000E+00  0.10566000000E+00 0. -1.
     999900   -1    0    0    0    0 -0.00000000000E+00 -0.00000000000E+00 -0.74505805969E-08  0.93827000000E+00  0.93827000000E+00 0. -1.
     999902    2    1    2    0    0  0.12163510925E-01 -0.18066511933E-01 -0.75348995235E-02  0.10208838601E+01  0.10206236972E+01 0.  0.
     999903    2    3    3    0    0  0.20552096427E-02  0.93598579965E-01 -0.88197304752E-01  0.13011021094E+00  0.19621018485E-01 0.  0.
         14    1    1    2    0    0 -0.12163510925E-01  0.18066511933E-01  0.75348995235E-02  0.23046139857E-01  0.00000000000E+00 0. -1.
     999901    1    3    3    0    0  0.10108301282E-01 -0.11166509190E+00  0.80662405228E-01  0.89077364921E+00  0.88000000000E+00 0.  1.
        -11    1    4    4    0    0  0.97243391374E-02  0.45575575037E-01 -0.49230934204E-01  0.67791163253E-01  0.51100000000E-03 0. -1.
         11    1    4    4    0    0 -0.76691294947E-02  0.48023004928E-01 -0.38966370547E-01  0.62319047683E-01  0.51100000000E-03 0.  1.
</event>
<event>
 8    1  0.1088270E+005  0.1043930E+01  0.7957747E-01            NaN
         13   -1    0    0    0    0  0.00000000000E+00  0.00000000000E+00  0.74505805969E-08  0.10566000000E+00  0.10566000000E+00 0. -1.
     999900   -1    0    0    0    0 -0.00000000000E+00 -0.00000000000E+00 -0.74505805969E-08  0.93827000000E+00  0.93827000000E+00 0.  1.
     999902    2    1    2    0    0  0.22168315942E-01  0.56215716297E-02 -0.68715271859E-02  0.10200500045E+01  0.10197704435E+01 0.  0.
     999903    2    3    3    0    0 -0.19112827518E-02  0.89323710138E-01  0.92639334626E-01  0.13016895251E+00  0.19481572931E-01 0.  0.
         14    1    1    2    0    0 -0.22168315942E-01 -0.56215716297E-02  0.68715271859E-02  0.23879995502E-01  0.00000000000E+00 0. -1.
     999901    1    3    3    0    0  0.24079598694E-01 -0.83702138508E-01 -0.99510861812E-01  0.88988105199E+00  0.88000000000E+00 0.  1.
        -11    1    4    4    0    0  0.78262233507E-02  0.35029123547E-01  0.42424768648E-01  0.55573477345E-01  0.51100000000E-03 0. -1.
         11    1    4    4    0    0 -0.97375061026E-02  0.54294586591E-01  0.50214565978E-01  0.74595475168E-01  0.51100000000E-03 0.  1.
</event>
<event>
 8    1  0.1088270E+005  0.1043930E+01  0.7957747E-01            NaN
         13   -1    0    0    0    0  0.00000000000E+00  0.00000000000E+00  0.74505805969E-08  0.10566000000E+00  0.10566000000E+00 0. -1.
     999900   -1    0    0    0    0 -0.00000000000E+00 -0.00000000000E+00 -0.74505805969E-08  0.93827000000E+00  0.93827000000E+00 0.  1.
     999902    2    1    2    0    0 -0.33081915958E-03 -0.19846608419E-01  0.12552362096E-01  0.10204447046E+01  0.10201744145E+01 0.  0.
     999903    2    3    3    0    0  0.31205819667E-01  0.11950039638E+00 -0.27118177760E-01  0.12804014437E+00  0.20118028950E-01 0.  0.
         14    1    1    2    0    0  0.33081915958E-03  0.19846608419E-01 -0.12552362096E-01  0.23485295425E-01  0.00000000000E+00 0. -1.
     999901    1    3    3    0    0 -0.31536638827E-01 -0.13934700480E+00  0.39670539856E-01  0.89240456020E+00  0.88000000000E+00 0. -1.
        -11    1    4    4    0    0  0.28606812469E-01  0.80698241954E-01 -0.12679171452E-01  0.86553905076E-01  0.51100000000E-03 0.  1.
         11    1    4    4    0    0  0.25990071976E-02  0.38802154430E-01 -0.14439006308E-01  0.41486239297E-01  0.51100000000E-03 0. -1.
</event>
<event>
 8    1  0.1088270E+005  0.1043930E+01  0.7957747E-01            NaN
         13   -1    0    0    0    0  0.00000000000E+00  0.00000000000E+00  0.74505805969E-08  0.10566000000E+00  0.10566000000E+00 0.  1.
     999900   -1    0    0    0    0 -0.00000000000E+00 -0.00000000000E+00 -0.74505805969E-08  0.93827000000E+00  0.93827000000E+00 0.  1.
     999902    2    1    2    0    0 -0.18351388499E-01  0.12007763784E-01 -0.89265672931E-02  0.10202520893E+01  0.10199772950E+01 0.  0.
     999903    2    3    3    0    0  0.95223088036E-01  0.85434405069E-01 -0.10525730854E-01  0.12991889848E+00  0.20041334980E-01 0.  0.
         14    1    1    2    0    0  0.18351388499E-01 -0.12007763784E-01  0.89265672931E-02  0.23677910689E-01  0.00000000000E+00 0.  1.
     999901    1    3    3    0    0 -0.11357447654E+00 -0.73426641285E-01  0.15991635613E-02  0.89033319083E+00  0.88000000000E+00 0. -1.
        -11    1    4    4    0    0  0.34466739630E-01  0.32896283178E-01 -0.13552782565E-01  0.49538476196E-01  0.51100000000E-03 0. -1.
         11    1    4    4    0    0  0.60756348406E-01  0.52538121891E-01  0.30270517102E-02  0.80380422284E-01  0.51100000000E-03 0.  1.
</event>
<event>
 8    1  0.1088270E+005  0.1043930E+01  0.7957747E-01            NaN
         13   -1    0    0    0    0  0.00000000000E+00  0.00000000000E+00  0.74505805969E-08  0.10566000000E+00  0.10566000000E+00 0. -1.
     999900   -1    0    0    0    0 -0.00000000000E+00 -0.00000000000E+00 -0.74505805969E-08  0.93827000000E+00  0.93827000000E+00 0.  1.
     999902    2    1    2    0    0  0.99776325079E-03  0.24688201119E-01  0.46123386920E-02  0.10187948359E+01  0.10184847280E+01 0.  0.
     999903    2    3    3    0    0  0.35887235120E-01 -0.94167972477E-01 -0.74051513128E-01  0.12664458688E+00  0.19993101414E-01 0.  0.
         14    1    1    2    0    0 -0.99776325079E-03 -0.24688201119E-01 -0.46123386920E-02  0.25135164098E-01  0.00000000000E+00 0.  1.
     999901    1    3    3    0    0 -0.34889471869E-01  0.11885617360E+00  0.78663851820E-01  0.89215024902E+00  0.88000000000E+00 0.  1.
        -11    1    4    4    0    0  0.30816882857E-01 -0.86411852038E-01 -0.59378186153E-01  0.10928274591E+00  0.51100000000E-03 0.  1.
         11    1    4    4    0    0  0.50703522631E-02 -0.77561204394E-02 -0.14673326975E-01  0.17361840970E-01  0.51100000000E-03 0. -1.
</event>
<event>
 8    1  0.1088270E+005  0.1043930E+01  0.7957747E-01            NaN
         13   -1    0    0    0    0  0.00000000000E+00  0.00000000000E+00  0.74505805969E-08  0.10566000000E+00  0.10566000000E+00 0. -1.
     999900   -1    0    0    0    0 -0.00000000000E+00 -0.00000000000E+00 -0.74505805969E-08  0.93827000000E+00  0.93827000000E+00 0.  1.
     999902    2    1    2    0    0  0.21271562855E-01  0.54396642832E-02  0.39789121388E-02  0.10216163030E+01  0.10213725909E+01 0.  0.
     999903    2    3    3    0    0 -0.52040244263E-01 -0.82447204650E-01 -0.83374342092E-01  0.12991606531E+00  0.20522537112E-01 0.  0.
         14    1    1    2    0    0 -0.21271562855E-01 -0.54396642832E-02 -0.39789121388E-02  0.22313697040E-01  0.00000000000E+00 0.  1.
     999901    1    3    3    0    0  0.73311807118E-01  0.87886868933E-01  0.87353254231E-01  0.89170023765E+00  0.88000000000E+00 0. -1.
        -11    1    4    4    0    0 -0.53443298928E-01 -0.78366723385E-01 -0.76867371616E-01  0.12209170109E+00  0.51100000000E-03 0.  1.
         11    1    4    4    0    0  0.14030546649E-02 -0.40804812654E-02 -0.65069704765E-02  0.78243642254E-02  0.51100000000E-03 0. -1.
</event>
<event>
 8    1  0.1088270E+005  0.1043930E+01  0.7957747E-01            NaN
         13   -1    0    0    0    0  0.00000000000E+00  0.00000000000E+00  0.74505805969E-08  0.10566000000E+00  0.10566000000E+00 0.  1.
     999900   -1    0    0    0    0 -0.00000000000E+00 -0.00000000000E+00 -0.74505805969E-08  0.93827000000E+00  0.93827000000E+00 0.  1.
     999902    2    1    2    0    0  0.92278864212E-02  0.64715695014E-02 -0.20347219609E-01  0.10206696379E+01  0.10204045596E+01 0.  0.
     999903    2    3    3    0    0 -0.98815111388E-01 -0.44833276696E-01  0.65729902571E-01  0.12841701246E+00  0.19901257756E-01 0.  0.
         14    1    1    2    0    0 -0.92278864212E-02 -0.64715695014E-02  0.20347219609E-01  0.23260362109E-01  0.00000000000E+00 0.  1.
     999901    1    3    3    0    0  0.10804299781E+00  0.51304846198E-01 -0.86077122180E-01  0.89225262543E+00  0.88000000000E+00 0.  1.
        -11    1    4    4    0    0 -0.77019224206E-01 -0.34836040614E-01  0.60271039097E-01  0.10381892842E+00  0.51100000000E-03 0. -1.
         11    1    4    4    0    0 -0.21795887182E-01 -0.99972360817E-02  0.54588634739E-02  0.24598084046E-01  0.51100000000E-03 0.  1.
</event>
<event>
 8    1  0.1088270E+005  0.1043930E+01  0.7957747E-01            NaN
         13   -1    0    0    0    0  0.00000000000E+00  0.00000000000E+00  0.74505805969E-08  0.10566000000E+00  0.10566000000E+00 0. -1.
     999900   -1    0    0    0    0 -0.00000000000E+00 -0.00000000000E+00 -0.74505805969E-08  0.93827000000E+00  0.93827000000E+00 0.  1.
     999902    2    1    2    0    0 -0.14218414723E-01 -0.30925389758E-02  0.15257857169E-01  0.10228461360E+01  0.10226288128E+01 0.  0.
     999903    2    3    3    0    0  0.41083722280E-01  0.11270359850E+00  0.53229611451E-01  0.13272876965E+00  0.19838382136E-01 0.  0.
         14    1    1    2    0    0  0.14218414723E-01  0.30925389758E-02 -0.15257857169E-01  0.21083863971E-01  0.00000000000E+00 0.  1.
     999901    1    3    3    0    0 -0.55302137003E-01 -0.11579613747E+00 -0.37971754282E-01  0.89011736638E+00  0.88000000000E+00 0. -1.
        -11    1    4    4    0    0  0.22599852109E-01  0.39339152683E-01  0.26161250164E-01  0.52373603851E-01  0.51100000000E-03 0.  1.
         11    1    4    4    0    0  0.18483870171E-01  0.73364445816E-01  0.27068361287E-01  0.80355165796E-01  0.51100000000E-03 0. -1.
</event>
<event>
 8    1  0.1088270E+005  0.1043930E+01  0.7957747E-01            NaN
         13   -1    0    0    0    0  0.00000000000E+00  0.00000000000E+00  0.74505805969E-08  0.10566000000E+00  0.10566000000E+00 0.  1.
     999900   -1    0    0    0    0 -0.00000000000E+00 -0.00000000000E+00 -0.74505805969E-08  0.93827000000E+00  0.93827000000E+00 0.  1.
     999902    2    1    2    0    0  0.20741497375E-01 -0.57979201519E-02 -0.87934474542E-02  0.10206673624E+01  0.10204022316E+01 0.  0.
     999903    2    3    3    0    0  0.12995796471E+00 -0.21875166360E-01  0.90723249518E-02  0.13359019526E+00  0.19910743174E-01 0.  0.
         14    1    1    2    0    0 -0.20741497375E-01  0.57979201519E-02  0.87934474542E-02  0.23262637631E-01  0.00000000000E+00 0.  1.
     999901    1    3    3    0    0 -0.10921646734E+00  0.16077246208E-01 -0.17865772406E-01  0.88707716711E+00  0.88000000000E+00 0. -1.
        -11    1    4    4    0    0  0.63098188828E-01 -0.18266867682E-01  0.10988225193E-01  0.66603769430E-01  0.51100000000E-03 0.  1.
         11    1    4    4    0    0  0.66859775885E-01 -0.36082986774E-02 -0.19159002407E-02  0.66986425830E-01  0.51100000000E-03 0. -1.
</event>
<event>
 8    1  0.1088270E+005  0.1043930E+01  0.7957747E-01            NaN
         13   -1    0    0    0    0  0.00000000000E+00  0.00000000000E+00  0.74505805969E-08  0.10566000000E+00  0.10566000000E+00 0. -1.
     999900   -1    0    0    0    0 -0.00000000000E+00 -0.00000000000E+00 -0.74505805969E-08  0.93827000000E+00  0.93827000000E+00 0. -1.
     999902    2    1    2    0    0  0.42377767772E-02  0.60368112680E-02  0.23825270507E-01  0.10189891629E+01  0.10186838905E+01 0.  0.
     999903    2    3    3    0    0  0.45449350533E-01 -0.58101239423E-01  0.10713051019E+00  0.13177337946E+00  0.21115866913E-01 0.  0.
         14    1    1    2    0    0 -0.42377767772E-02 -0.60368112680E-02 -0.23825270507E-01  0.24940837136E-01  0.00000000000E+00 0.  1.
     999901    1    3    3    0    0 -0.41211573756E-01  0.64138050691E-01 -0.83305239681E-01  0.88721578340E+00  0.88000000000E+00 0. -1.
        -11    1    4    4    0    0  0.23703562236E-01 -0.45965443851E-01  0.75417893587E-01  0.91448349822E-01  0.51100000000E-03 0. -1.
         11    1    4    4    0    0  0.21745788297E-01 -0.12135795573E-01  0.31712616601E-01  0.40325029641E-01  0.51100000000E-03 0.  1.
</event>
<event>
 8    1  0.1088270E+005  0.1043930E+01  0.7957747E-01            NaN
         13   -1    0    0    0    0  0.00000000000E+00  0.00000000000E+00  0.74505805969E-08  0.10566000000E+00  0.10566000000E+00 0.  1.
     999900   -1    0    0    0    0 -0.00000000000E+00 -0.00000000000E+00 -0.74505805969E-08  0.93827000000E+00  0.93827000000E+00 0.  1.
     999902    2    1    2    0    0 -0.17992852552E-01 -0.51688558721E-02 -0.15393743084E-01  0.10196931037E+01  0.10194050219E+01 0.  0.
     999903    2    3    3    0    0 -0.11826970010E-01  0.65346871257E-01 -0.11167600536E+00  0.13161610263E+00  0.21004225642E-01 0.  0.
         14    1    1    2    0    0  0.17992852552E-01  0.51688558721E-02  0.15393743084E-01  0.24236896256E-01  0.00000000000E+00 0.  1.
     999901    1    3    3    0    0 -0.61658825424E-02 -0.70515727129E-01  0.96282262278E-01  0.88807700112E+00  0.88000000000E+00 0. -1.
        -11    1    4    4    0    0 -0.15315842053E-01  0.29203361364E-01 -0.59815932256E-01  0.68305330725E-01  0.51100000000E-03 0.  1.
         11    1    4    4    0    0  0.34888720427E-02  0.36143509893E-01 -0.51860073106E-01  0.63310771904E-01  0.51100000000E-03 0. -1.
</event>
<event>
 8    1  0.1088270E+005  0.1043930E+01  0.7957747E-01            NaN
         13   -1    0    0    0    0  0.00000000000E+00  0.00000000000E+00  0.74505805969E-08  0.10566000000E+00  0.10566000000E+00 0.  1.
     999900   -1    0    0    0    0 -0.00000000000E+00 -0.00000000000E+00 -0.74505805969E-08  0.93827000000E+00  0.93827000000E+00 0.  1.
     999902    2    1    2    0    0  0.20586742599E-01  0.12118314521E-01 -0.19198953550E-02  0.10199643263E+01  0.10196827317E+01 0.  0.
     999903    2    3    3    0    0 -0.78055730544E-01  0.95317066087E-01 -0.35890624046E-01  0.12990456416E+00  0.20224211665E-01 0.  0.
         14    1    1    2    0    0 -0.20586742599E-01 -0.12118314521E-01  0.19198953550E-02  0.23965673700E-01  0.00000000000E+00 0.  1.
     999901    1    3    3    0    0  0.98642473144E-01 -0.83198751566E-01  0.33970728691E-01  0.89005976214E+00  0.88000000000E+00 0. -1.
        -11    1    4    4    0    0 -0.23356305573E-01  0.41685016341E-01 -0.19212146664E-01  0.51502672725E-01  0.51100000000E-03 0. -1.
         11    1    4    4    0    0 -0.54699424971E-01  0.53632049746E-01 -0.16678477382E-01  0.78401891437E-01  0.51100000000E-03 0.  1.
</event>
<event>
 8    1  0.1088270E+005  0.1043930E+01  0.7957747E-01            NaN
         13   -1    0    0    0    0  0.00000000000E+00  0.00000000000E+00  0.74505805969E-08  0.10566000000E+00  0.10566000000E+00 0.  1.
     999900   -1    0    0    0    0 -0.00000000000E+00 -0.00000000000E+00 -0.74505805969E-08  0.93827000000E+00  0.93827000000E+00 0.  1.
     999902    2    1    2    0    0  0.13888771496E-01 -0.11855762419E-01  0.12514889084E-01  0.10217922602E+01  0.10215524183E+01 0.  0.
     999903    2    3    3    0    0  0.25788429507E-02  0.10056067701E+00 -0.79418561491E-01  0.12981853316E+00  0.20650507260E-01 0.  0.
         14    1    1    2    0    0 -0.13888771496E-01  0.11855762419E-01 -0.12514889084E-01  0.22137739835E-01  0.00000000000E+00 0. -1.
     999901    1    3    3    0    0  0.11309928545E-01 -0.11241643943E+00  0.91933450575E-01  0.89197372701E+00  0.88000000000E+00 0. -1.
        -11    1    4    4    0    0 -0.90839866702E-02  0.46418303820E-01 -0.37100910843E-01  0.60115858554E-01  0.51100000000E-03 0.  1.
         11    1    4    4    0    0  0.11662829621E-01  0.54142373191E-01 -0.42317650648E-01  0.69702674603E-01  0.51100000000E-03 0. -1.
</event>
<event>
 8    1  0.1088270E+005  0.1043930E+01  0.7957747E-01            NaN
         13   -1    0    0    0    0  0.00000000000E+00  0.00000000000E+00  0.74505805969E-08  0.10566000000E+00  0.10566000000E+00 0.  1.
     999900   -1    0    0    0    0 -0.00000000000E+00 -0.00000000000E+00 -0.74505805969E-08  0.93827000000E+00  0.93827000000E+00 0.  1.
     999902    2    1    2    0    0  0.13371045042E-01  0.68144866030E-02 -0.17588548126E-01  0.10208090334E+01  0.10205471589E+01 0.  0.
     999903    2    3    3    0    0 -0.69483133056E-01  0.74190739909E-01  0.77540008412E-01  0.12926328770E+00  0.19088556112E-01 0.  0.
         14    1    1    2    0    0 -0.13371045042E-01 -0.68144866030E-02  0.17588548126E-01  0.23120966640E-01  0.00000000000E+00 0. -1.
     999901    1    3    3    0    0  0.82854178099E-01 -0.67376253306E-01 -0.95128556538E-01  0.89154574566E+00  0.88000000000E+00 0.  1.
        -11    1    4    4    0    0 -0.47102724686E-01  0.45573400119E-01  0.60243208525E-01  0.89023068727E-01  0.51100000000E-03 0. -1.
         11    1    4    4    0    0 -0.22380408370E-01  0.28617339791E-01  0.17296799887E-01  0.40240218971E-01  0.51100000000E-03 0.  1.
</event>
<event>
 8    1  0.1088270E+005  0.1043930E+01  0.7957747E-01            NaN
         13   -1    0    0    0    0  0.00000000000E+00  0.00000000000E+00  0.74505805969E-08  0.10566000000E+00  0.10566000000E+00 0. -1.
     999900   -1    0    0    0    0 -0.00000000000E+00 -0.00000000000E+00 -0.74505805969E-08  0.93827000000E+00  0.93827000000E+00 0.  1.
     999902    2    1    2    0    0  0.21580306632E-01 -0.70681191481E-02 -0.40901901663E-02  0.10208562574E+01  0.10205954638E+01 0.  0.
     999903    2    3    3    0    0  0.10339806923E+00  0.46271112834E-01 -0.67203331768E-01  0.13320627649E+00  0.19885866637E-01 0.  0.
         14    1    1    2    0    0 -0.21580306632E-01  0.70681191481E-02  0.40901901663E-02  0.23073742614E-01  0.00000000000E+00 0. -1.
     999901    1    3    3    0    0 -0.81817762598E-01 -0.53339231982E-01  0.63113141601E-01  0.88764998090E+00  0.88000000000E+00 0. -1.
        -11    1    4    4    0    0  0.34514175662E-01  0.21641394958E-01 -0.15351145967E-01  0.43537307000E-01  0.51100000000E-03 0.  1.
         11    1    4    4    0    0  0.68883893568E-01  0.24629717876E-01 -0.51852185801E-01  0.89668969488E-01  0.51100000000E-03 0. -1.
</event>
<event>
 8    1  0.1088270E+005  0.1043930E+01  0.7957747E-01            NaN
         13   -1    0    0    0    0  0.00000000000E+00  0.00000000000E+00  0.74505805969E-08  0.10566000000E+00  0.10566000000E+00 0. -1.
     999900   -1    0    0    0    0 -0.00000000000E+00 -0.00000000000E+00 -0.74505805969E-08  0.93827000000E+00  0.93827000000E+00 0.  1.
     999902    2    1    2    0    0 -0.20149373094E-01  0.13214973222E-01 -0.84416265804E-02  0.10183977887E+01  0.10180776799E+01 0.  0.
     999903    2    3    3    0    0 -0.12211192063E+00  0.13865563740E-02  0.42856168061E-01  0.13094765701E+00  0.19934744460E-01 0.  0.
         14    1    1    2    0    0  0.20149373094E-01 -0.13214973222E-01  0.84416265804E-02  0.25532211276E-01  0.00000000000E+00 0. -1.
     999901    1    3    3    0    0  0.10196254754E+00  0.11828416848E-01 -0.51297794641E-01  0.88745013171E+00  0.88000000000E+00 0. -1.
        -11    1    4    4    0    0 -0.56094557545E-01  0.81541077833E-02  0.26617181480E-01  0.62624470703E-01  0.51100000000E-03 0.  1.
         11    1    4    4    0    0 -0.66017363085E-01 -0.67675514093E-02  0.16238986581E-01  0.68323186306E-01  0.51100000000E-03 0. -1.
</event>
<event>
 8    1  0.1088270E+005  0.1043930E+01  0.7957747E-01            NaN
         13   -1    0    0    0    0  0.00000000000E+00  0.00000000000E+00  0.74505805969E-08  0.10566000000E+00  0.10566000000E+00 0. -1.
     999900   -1    0    0    0    0 -0.00000000000E+00 -0.00000000000E+00 -0.74505805969E-08  0.93827000000E+00  0.93827000000E+00 0. -1.
     999902    2    1    2    0    0 -0.13633701206E-01 -0.16220719904E-01  0.98543629858E-02  0.10205612595E+01  0.10202936765E+01 0.  0.
     999903    2    3    3    0    0 -0.25822664046E-01 -0.12551160523E+00  0.31325361375E-01  0.13345694083E+00  0.20236199326E-01 0.  0.
         14    1    1    2    0    0  0.13633701206E-01  0.16220719904E-01 -0.98543629858E-02  0.23368740502E-01  0.00000000000E+00 0. -1.
     999901    1    3    3    0    0  0.12188962840E-01  0.10929088533E+00 -0.21470998390E-01  0.88710431867E+00  0.88000000000E+00 0.  1.
        -11    1    4    4    0    0 -0.24828487363E-01 -0.71271125949E-01  0.17798692291E-01  0.77544063261E-01  0.51100000000E-03 0. -1.
         11    1    4    4    0    0 -0.99417668290E-03 -0.54240479285E-01  0.13526669084E-01  0.55912877567E-01  0.51100000000E-03 0.  1.
</event>
<event>
 8    1  0.1088270E+005  0.1043930E+01  0.7957747E-01            NaN
         13   -1    0    0    0    0  0.00000000000E+00  0.00000000000E+00  0.74505805969E-08  0.10566000000E+00  0.10566000000E+00 0.  1.
     999900   -1    0    0    0    0 -0.00000000000E+00 -0.00000000000E+00 -0.74505805969E-08  0.93827000000E+00  0.93827000000E+00 0.  1.
     999902    2    1    2    0    0 -0.24981008411E-02 -0.18916669648E-01  0.15391534508E-01  0.10194151018E+01  0.10191202920E+01 0.  0.
     999903    2    3    3    0    0 -0.10336591160E+00  0.26258937711E-02 -0.74352799701E-01  0.12885772421E+00  0.19610386704E-01 0.  0.
         14    1    1    2    0    0  0.24981008411E-02  0.18916669648E-01 -0.15391534508E-01  0.24514898182E-01  0.00000000000E+00 0. -1.
     999901    1    3    3    0    0  0.10086781076E+00 -0.21542563419E-01  0.89744334209E-01  0.89055737761E+00  0.88000000000E+00 0. -1.
        -11    1    4    4    0    0 -0.15172667884E-01 -0.20006040047E-02 -0.36875283521E-02  0.15750277884E-01  0.51100000000E-03 0. -1.
         11    1    4    4    0    0 -0.88193243716E-01  0.46264977759E-02 -0.70665271349E-01  0.11310744633E+00  0.51100000000E-03 0.  1.
</event>
<event>
 8    1  0.1088270E+005  0.1043930E+01  0.7957747E-01            NaN
         13   -1    0    0    0    0  0.00000000000E+00  0.00000000000E+00  0.74505805969E-08  0.10566000000E+00  0.10566000000E+00 0. -1.
     999900   -1    0    0    0    0 -0.00000000000E+00 -0.00000000000E+00 -0.74505805969E-08  0.93827000000E+00  0.93827000000E+00 0.  1.
     999902    2    1    2    0    0  0.12992608542E-01  0.75542292607E-02 -0.17736206480E-01  0.10206824781E+01  0.10204176957E+01 0.  0.
     999903    2    3    3    0    0  0.43955690051E-01 -0.86363228971E-01 -0.88118274863E-01  0.13235098760E+00  0.19006408076E-01 0.  0.
         14    1    1    2    0    0 -0.12992608542E-01 -0.75542292607E-02  0.17736206480E-01  0.23247521948E-01  0.00000000000E+00 0. -1.
     999901    1    3    3    0    0 -0.30963081509E-01  0.93917458231E-01  0.70382068384E-01  0.88833149045E+00  0.88000000000E+00 0. -1.
        -11    1    4    4    0    0  0.41336681224E-01 -0.69626379391E-01 -0.78901771728E-01  0.11305885469E+00  0.51100000000E-03 0.  1.
         11    1    4    4    0    0  0.26190088266E-02 -0.16736849579E-01 -0.92165031354E-02  0.19292132907E-01  0.51100000000E-03 0. -1.
</event>
<event>
 8    1  0.1088270E+005  0.1043930E+01  0.7957747E-01            NaN
         13   -1    0    0    0    0  0.00000000000E+00  0.00000000000E+00  0.74505805969E-08  0.10566000000E+00  0.10566000000E+00 0. -1.
     999900   -1    0    0    0    0 -0.00000000000E+00 -0.00000000000E+00 -0.74505805969E-08  0.93827000000E+00  0.93827000000E+00 0.  1.
     999902    2    1    2    0    0 -0.10427947659E-01 -0.65054530208E-02  0.20652775626E-01  0.10198966866E+01  0.10196134813E+01 0.  0.
     999903    2    3    3    0    0 -0.58118118039E-01  0.71022176825E-01 -0.87203829410E-01  0.12865152786E+00  0.22909441559E-01 0.  0.
         14    1    1    2    0    0  0.10427947659E-01  0.65054530208E-02 -0.20652775626E-01  0.24033313389E-01  0.00000000000E+00 0.  1.
     999901    1    3    3    0    0  0.47690170380E-01 -0.77527629846E-01  0.10785660504E+00  0.89124515875E+00  0.88000000000E+00 0. -1.
        -11    1    4    4    0    0 -0.47835736766E-01  0.52840995408E-01 -0.54013449006E-01  0.89432333650E-01  0.51100000000E-03 0. -1.
         11    1    4    4    0    0 -0.10282381273E-01  0.18181181417E-01 -0.33190380405E-01  0.39219194213E-01  0.51100000000E-03 0.  1.
</event>
<event>
 8    1  0.1088270E+005  0.1043930E+01  0.7957747E-01            NaN
         13   -1    0    0    0    0  0.00000000000E+00  0.00000000000E+00  0.74505805969E-08  0.10566000000E+00  0.10566000000E+00 0.  1.
     999900   -1    0    0    0    0 -0.00000000000E+00 -0.00000000000E+00 -0.74505805969E-08  0.93827000000E+00  0.93827000000E+00 0.  1.
     999902    2    1    2    0    0 -0.14927715963E-01 -0.15083238158E-02 -0.17971391024E-01  0.10205188351E+01  0.10202502684E+01 0.  0.
     999903    2    3    3    0    0 -0.38196705868E-01  0.84741055198E-01  0.87730131636E-01  0.12970279736E+00  0.22050053789E-01 0.  0.
         14    1    1    2    0    0  0.14927715963E-01  0.15083238158E-02  0.17971391024E-01  0.23411164856E-01  0.00000000000E+00 0. -1.
     999901    1    3    3    0    0  0.23268989906E-01 -0.86249379013E-01 -0.10570152266E+00  0.89081603778E+00  0.88000000000E+00 0.  1.
        -11    1    4    4    0    0 -0.64348568635E-02  0.28286784565E-01  0.39166269092E-01  0.48742253943E-01  0.51100000000E-03 0. -1.
         11    1    4    4    0    0 -0.31761849005E-01  0.56454270633E-01  0.48563862544E-01  0.80960543421E-01  0.51100000000E-03 0.  1.
</event>
<event>
 8    1  0.1088270E+005  0.1043930E+01  0.7957747E-01            NaN
         13   -1    0    0    0    0  0.00000000000E+00  0.00000000000E+00  0.74505805969E-08  0.10566000000E+00  0.10566000000E+00 0. -1.
     999900   -1    0    0    0    0 -0.00000000000E+00 -0.00000000000E+00 -0.74505805969E-08  0.93827000000E+00  0.93827000000E+00 0.  1.
     999902    2    1    2    0    0  0.98679131636E-02 -0.19348417118E-01 -0.15564909598E-01  0.10172091586E+01  0.10168581361E+01 0.  0.
     999903    2    3    3    0    0 -0.73005920159E-01  0.78580988460E-01 -0.64178196362E-01  0.12657932954E+00  0.19966212803E-01 0.  0.
         14    1    1    2    0    0 -0.98679131636E-02  0.19348417118E-01  0.15564909598E-01  0.26720841416E-01  0.00000000000E+00 0.  1.
     999901    1    3    3    0    0  0.82873833322E-01 -0.97929405579E-01  0.48613286764E-01  0.89062982904E+00  0.88000000000E+00 0.  1.
        -11    1    4    4    0    0 -0.61354708513E-02  0.74317833547E-02 -0.13425000946E-01  0.16533819214E-01  0.51100000000E-03 0.  1.
         11    1    4    4    0    0 -0.66870449308E-01  0.71149205105E-01 -0.50753195417E-01  0.11004551033E+00  0.51100000000E-03 0. -1.
</event>
<event>
 8    1  0.1088270E+005  0.1043930E+01  0.7957747E-01            NaN
         13   -1    0    0    0    0  0.00000000000E+00  0.00000000000E+00  0.74505805969E-08  0.10566000000E+00  0.10566000000E+00 0. -1.
     999900   -1    0    0    0    0 -0.00000000000E+00 -0.00000000000E+00 -0.74505805969E-08  0.93827000000E+00  0.93827000000E+00 0. -1.
     999902    2    1    2    0    0  0.59551132015E-02  0.87992737673E-02 -0.20958373157E-01  0.10204322555E+01  0.10201616754E+01 0.  0.
     999903    2    3    3    0    0 -0.38008958306E-01 -0.83262653513E-01 -0.91947208180E-01  0.13169851991E+00  0.22646427400E-01 0.  0.
         14    1    1    2    0    0 -0.59551132015E-02 -0.87992737673E-02  0.20958373157E-01  0.23497744519E-01  0.00000000000E+00 0. -1.
     999901    1    3    3    0    0  0.43964071507E-01  0.92061927280E-01  0.70988835023E-01  0.88873373557E+00  0.88000000000E+00 0.  1.
        -11    1    4    4    0    0 -0.11776032218E-01 -0.43637703228E-01 -0.56792401661E-01  0.72584861268E-01  0.51100000000E-03 0. -1.
         11    1    4    4    0    0 -0.26232926088E-01 -0.39624950284E-01 -0.35154806519E-01  0.59113658646E-01  0.51100000000E-03 0.  1.
</event>
<event>
 8    1  0.1088270E+005  0.1043930E+01  0.7957747E-01            NaN
         13   -1    0    0    0    0  0.00000000000E+00  0.00000000000E+00  0.74505805969E-08  0.10566000000E+00  0.10566000000E+00 0. -1.
     999900   -1    0    0    0    0 -0.00000000000E+00 -0.00000000000E+00 -0.74505805969E-08  0.93827000000E+00  0.93827000000E+00 0. -1.
     999902    2    1    2    0    0  0.91559859037E-02 -0.21113683865E-01 -0.20152333151E-02  0.10208284656E+01  0.10205670362E+01 0.  0.
     999903    2    3    3    0    0 -0.54198358240E-01 -0.47554912815E-02  0.11685000538E+00  0.13042950543E+00  0.19946312816E-01 0.  0.
         14    1    1    2    0    0 -0.91559859037E-02  0.21113683865E-01  0.20152333151E-02  0.23101534355E-01  0.00000000000E+00 0. -1.
     999901    1    3    3    0    0  0.63354344144E-01 -0.16358192584E-01 -0.11886523870E+00  0.89039896022E+00  0.88000000000E+00 0. -1.
        -11    1    4    4    0    0 -0.21751782735E-01 -0.44765350626E-02  0.69983674431E-01  0.73424486557E-01  0.51100000000E-03 0. -1.
         11    1    4    4    0    0 -0.32446575505E-01 -0.27895621892E-03  0.46866330951E-01  0.57005018870E-01  0.51100000000E-03 0.  1.
</event>
<event>
 8    1  0.1088270E+005  0.1043930E+01  0.7957747E-01            NaN
         13   -1    0    0    0    0  0.00000000000E+00  0.00000000000E+00  0.74505805969E-08  0.10566000000E+00  0.10566000000E+00 0. -1.
     999900   -1    0    0    0    0 -0.00000000000E+00 -0.00000000000E+00 -0.74505805969E-08  0.93827000000E+00  0.93827000000E+00 0. -1.
     999902    2    1    2    0    0  0.98144894072E-02 -0.14667612583E-02 -0.21220837972E-01  0.10205035288E+01  0.10202346067E+01 0.  0.
     999903    2    3    3    0    0 -0.11423514998E+00  0.51021406950E-01 -0.30789496128E-01  0.13020308505E+00  0.18761578462E-01 0.  0.
         14    1    1    2    0    0 -0.98144894072E-02  0.14667612583E-02  0.21220837972E-01  0.23426471248E-01  0.00000000000E+00 0. -1.
     999901    1    3    3    0    0  0.12404963939E+00 -0.52488168209E-01  0.95686581564E-02  0.89030044370E+00  0.88000000000E+00 0. -1.
        -11    1    4    4    0    0 -0.83853532109E-01  0.40115888779E-01 -0.30777500482E-01  0.97919431354E-01  0.51100000000E-03 0.  1.
         11    1    4    4    0    0 -0.30381617873E-01  0.10905518171E-01 -0.11995646036E-04  0.32283653698E-01  0.51100000000E-03 0. -1.
</event>
<event>
 8    1  0.1088270E+005  0.1043930E+01  0.7957747E-01            NaN
         13   -1    0    0    0    0  0.00000000000E+00  0.00000000000E+00  0.74505805969E-08  0.10566000000E+00  0.10566000000E+00 0. -1.
     999900   -1    0    0    0    0 -0.00000000000E+00 -0.00000000000E+00 -0.74505805969E-08  0.93827000000E+00  0.93827000000E+00 0. -1.
     999902    2    1    2    0    0 -0.17022163555E-02  0.22754334489E-01  0.47126217943E-02  0.10206305133E+01  0.10203645322E+01 0.  0.
     999903    2    3    3    0    0 -0.30805196630E-01  0.50951376378E-01  0.11689248801E+00  0.13258412988E+00  0.19227450409E-01 0.  0.
         14    1    1    2    0    0  0.17022163555E-02 -0.22754334489E-01 -0.47126217943E-02  0.23299486748E-01  0.00000000000E+00 0.  1.
     999901    1    3    3    0    0  0.29102980274E-01 -0.28197041890E-01 -0.11217986622E+00  0.88804638337E+00  0.88000000000E+00 0. -1.
        -11    1    4    4    0    0 -0.11833590487E-01  0.30720982003E-01  0.79314188262E-01  0.85876738292E-01  0.51100000000E-03 0.  1.
         11    1    4    4    0    0 -0.18971606142E-01  0.20230394375E-01  0.37578299748E-01  0.46707391590E-01  0.51100000000E-03 0. -1.
</event>
<event>
 8    1  0.1088270E+005  0.1043930E+01  0.7957747E-01            NaN
         13   -1    0    0    0    0  0.00000000000E+00  0.00000000000E+00  0.74505805969E-08  0.10566000000E+00  0.10566000000E+00 0.  1.
     999900   -1    0    0    0    0 -0.00000000000E+00 -0.00000000000E+00 -0.74505805969E-08  0.93827000000E+00  0.93827000000E+00 0. -1.
     999902    2    1    2    0    0 -0.54302832579E-03 -0.23761356370E-01  0.58463521785E-02  0.10194539552E+01  0.10191600904E+01 0.  0.
     999903    2    3    3    0    0  0.30181178725E-01  0.20037474928E-01  0.12330506355E+00  0.13003905571E+00  0.19839691555E-01 0.  0.
         14    1    1    2    0    0  0.54302832579E-03  0.23761356370E-01 -0.58463521785E-02  0.24476044821E-01  0.00000000000E+00 0.  1.
     999901    1    3    3    0    0 -0.30724207051E-01 -0.43798831298E-01 -0.11745871137E+00  0.88941489947E+00  0.88000000000E+00 0. -1.
        -11    1    4    4    0    0  0.16925766271E-01  0.22106250220E-01  0.85552897050E-01  0.89970701772E-01  0.51100000000E-03 0. -1.
         11    1    4    4    0    0  0.13255412454E-01 -0.20687752913E-02  0.37752166503E-01  0.40068353937E-01  0.51100000000E-03 0.  1.
</event>
<event>
 8    1  0.1088270E+005  0.1043930E+01  0.7957747E-01            NaN
         13   -1    0    0    0    0  0.00000000000E+00  0.00000000000E+00  0.74505805969E-08  0.10566000000E+00  0.10566000000E+00 0.  1.
     999900   -1    0    0    0    0 -0.00000000000E+00 -0.00000000000E+00 -0.74505805969E-08  0.93827000000E+00  0.93827000000E+00 0. -1.
     999902    2    1    2    0    0  0.23289236865E-01 -0.90151360829E-03  0.48022545255E-02  0.10201337203E+01  0.10198561390E+01 0.  0.
     999903    2    3    3    0    0  0.25141576379E-01 -0.57428648391E-01  0.11407259600E+00  0.13157378664E+00  0.19208218340E-01 0.  0.
         14    1    1    2    0    0 -0.23289236865E-01  0.90151360829E-03 -0.48022545255E-02  0.23796279732E-01  0.00000000000E+00 0. -1.
     999901    1    3    3    0    0 -0.18523395138E-02  0.56527134783E-01 -0.10927034148E+00  0.88855993363E+00  0.88000000000E+00 0. -1.
        -11    1    4    4    0    0  0.32482430658E-02 -0.13875427137E-01  0.12727360964E-01  0.19113487368E-01  0.51100000000E-03 0. -1.
         11    1    4    4    0    0  0.21893333313E-01 -0.43553221254E-01  0.10134523504E+00  0.11246029927E+00  0.51100000000E-03 0.  1.
</event>
<event>
 7    1  0.1885440E+005  0.1043930E+01  0.7957747E-01            NaN
         13   -1    0    0    0    0  0.00000000000E+00  0.00000000000E+00  0.74505805969E-08  0.10566000000E+00  0.10566000000E+00 0.  1.
     999900   -1    0    0    0    0 -0.00000000000E+00 -0.00000000000E+00 -0.74505805969E-08  0.93827000000E+00  0.93827000000E+00 0.  1.
     999903    2    1    2    0    0  0.24993492729E-01  0.80516608810E-01 -0.14856940716E-01  0.87828057256E-01  0.19632625423E-01 0.  0.
         14    1    1    2    0    0  0.32121356519E-01  0.39522143049E-01  0.41534429277E-01  0.65718263452E-01  0.00000000000E+00 0.  1.
     999901    1    1    2    0    0 -0.57114849248E-01 -0.12003875186E+00 -0.26677488561E-01  0.89038367929E+00  0.88000000000E+00 0.  1.
        -11    1    3    3    0    0  0.75054771279E-02  0.21728217531E-01  0.46603768526E-02  0.23461198976E-01  0.51100000000E-03 0.  1.
         11    1    3    3    0    0  0.17488015601E-01  0.58788391279E-01 -0.19517317568E-01  0.64366858280E-01  0.51100000000E-03 0. -1.
</event>
<event>
 8    1  0.1088270E+005  0.1043930E+01  0.7957747E-01            NaN
         13   -1    0    0    0    0  0.00000000000E+00  0.00000000000E+00  0.74505805969E-08  0.10566000000E+00  0.10566000000E+00 0.  1.
     999900   -1    0    0    0    0 -0.00000000000E+00 -0.00000000000E+00 -0.74505805969E-08  0.93827000000E+00  0.93827000000E+00 0. -1.
     999902    2    1    2    0    0 -0.11046798054E-02  0.12399265046E-01 -0.20450926549E-01  0.10199883524E+01  0.10197073289E+01 0.  0.
     999903    2    3    3    0    0  0.11051087709E+00 -0.43036837490E-01  0.46118935929E-01  0.12871805640E+00  0.19405114212E-01 0.  0.
         14    1    1    2    0    0  0.11046798054E-02 -0.12399265046E-01  0.20450926549E-01  0.23941647560E-01  0.00000000000E+00 0. -1.
     999901    1    3    3    0    0 -0.11161555689E+00  0.55436102537E-01 -0.66569862478E-01  0.89127029604E+00  0.88000000000E+00 0. -1.
        -11    1    4    4    0    0  0.49744940088E-01 -0.99277695060E-02  0.23550620875E-01  0.55928637891E-01  0.51100000000E-03 0.  1.
         11    1    4    4    0    0  0.60765936999E-01 -0.33109067984E-01  0.22568315054E-01  0.72789418513E-01  0.51100000000E-03 0. -1.
</event>
<event>
 8    1  0.1088270E+005  0.1043930E+01  0.7957747E-01            NaN
         13   -1    0    0    0    0  0.00000000000E+00  0.00000000000E+00  0.74505805969E-08  0.10566000000E+00  0.10566000000E+00 0.  1.
     999900   -1    0    0    0    0 -0.00000000000E+00 -0.00000000000E+00 -0.74505805969E-08  0.93827000000E+00  0.93827000000E+00 0.  1.
     999902    2    1    2    0    0 -0.39375672266E-02 -0.19526964489E-01  0.78067175330E-03  0.10239946990E+01  0.10238006287E+01 0.  0.
     999903    2    3    3    0    0  0.13647591896E-01 -0.48886095728E-01 -0.12313631510E+00  0.13465414778E+00  0.19826252750E-01 0.  0.
         14    1    1    2    0    0  0.39375672266E-02  0.19526964489E-01 -0.78067175330E-03  0.19935301006E-01  0.00000000000E+00 0. -1.
     999901    1    3    3    0    0 -0.17585159122E-01  0.29359131239E-01  0.12391698685E+00  0.88934055122E+00  0.88000000000E+00 0. -1.
        -11    1    4    4    0    0  0.89124372511E-02 -0.11472969807E-01 -0.53739612007E-01  0.55671066036E-01  0.51100000000E-03 0.  1.
         11    1    4    4    0    0  0.47351546446E-02 -0.37413125921E-01 -0.69396703090E-01  0.78983081742E-01  0.51100000000E-03 0. -1.
</event>
<event>
 8    1  0.1088270E+005  0.1043930E+01  0.7957747E-01            NaN
         13   -1    0    0    0    0  0.00000000000E+00  0.00000000000E+00  0.74505805969E-08  0.10566000000E+00  0.10566000000E+00 0. -1.
     999900   -1    0    0    0    0 -0.00000000000E+00 -0.00000000000E+00 -0.74505805969E-08  0.93827000000E+00  0.93827000000E+00 0. -1.
     999902    2    1    2    0    0  0.81790792743E-02 -0.21609407770E-01  0.25815300326E-02  0.10206807390E+01  0.10204159165E+01 0.  0.
     999903    2    3    3    0    0 -0.12392143351E+00  0.10034524849E-01  0.32312717083E-01  0.12976220876E+00  0.18354992918E-01 0.  0.
         14    1    1    2    0    0 -0.81790792743E-02  0.21609407770E-01 -0.25815300326E-02  0.23249261048E-01  0.00000000000E+00 0. -1.
     999901    1    3    3    0    0  0.13210051279E+00 -0.31643932619E-01 -0.29731187050E-01  0.89091853019E+00  0.88000000000E+00 0. -1.
        -11    1    4    4    0    0 -0.10978254928E+00  0.34308958344E-02  0.25685933878E-01  0.11280074243E+00  0.51100000000E-03 0. -1.
         11    1    4    4    0    0 -0.14138884231E-01  0.66036290144E-02  0.66267832048E-02  0.16961466331E-01  0.51100000000E-03 0.  1.
</event>
<event>
 8    1  0.1088270E+005  0.1043930E+01  0.7957747E-01            NaN
         13   -1    0    0    0    0  0.00000000000E+00  0.00000000000E+00  0.74505805969E-08  0.10566000000E+00  0.10566000000E+00 0.  1.
     999900   -1    0    0    0    0 -0.00000000000E+00 -0.00000000000E+00 -0.74505805969E-08  0.93827000000E+00  0.93827000000E+00 0.  1.
     999902    2    1    2    0    0  0.83966635632E-02 -0.90020111249E-02  0.18305284448E-01  0.10218704533E+01  0.10216323212E+01 0.  0.
     999903    2    3    3    0    0 -0.76272579362E-01  0.69200299916E-01 -0.75524856596E-01  0.12940836583E+00  0.20888592856E-01 0.  0.
         14    1    1    2    0    0 -0.83966635632E-02  0.90020111249E-02 -0.18305284448E-01  0.22059546731E-01  0.00000000000E+00 0.  1.
     999901    1    3    3    0    0  0.84669242926E-01 -0.78202311041E-01  0.93830141043E-01  0.89246208744E+00  0.88000000000E+00 0.  1.
        -11    1    4    4    0    0 -0.72325955533E-01  0.56532719845E-01 -0.66412575729E-01  0.11330438470E+00  0.51100000000E-03 0.  1.
         11    1    4    4    0    0 -0.39466238295E-02  0.12667580071E-01 -0.91122808666E-02  0.16103981126E-01  0.51100000000E-03 0. -1.
</event>
<event>
 8    1  0.1088270E+005  0.1043930E+01  0.7957747E-01            NaN
         13   -1    0    0    0    0  0.00000000000E+00  0.00000000000E+00  0.74505805969E-08  0.10566000000E+00  0.10566000000E+00 0.  1.
     999900   -1    0    0    0    0 -0.00000000000E+00 -0.00000000000E+00 -0.74505805969E-08  0.93827000000E+00  0.93827000000E+00 0. -1.
     999902    2    1    2    0    0  0.10244944182E-01 -0.18171989058E-02  0.20955148212E-01  0.10205338608E+01  0.10202656427E+01 0.  0.
     999903    2    3    3    0    0  0.10014069006E+00  0.69573878555E-01  0.48055415551E-01  0.13266430080E+00  0.20538046666E-01 0.  0.
         14    1    1    2    0    0 -0.10244944182E-01  0.18171989058E-02 -0.20955148212E-01  0.23396139206E-01  0.00000000000E+00 0. -1.
     999901    1    3    3    0    0 -0.89895745879E-01 -0.71391077461E-01 -0.27100267339E-01  0.88786955999E+00  0.88000000000E+00 0.  1.
        -11    1    4    4    0    0  0.60327224052E-01  0.50628123247E-01  0.37960727627E-01  0.87429164403E-01  0.51100000000E-03 0. -1.
         11    1    4    4    0    0  0.39813466009E-01  0.18945755308E-01  0.10094687923E-01  0.45235136400E-01  0.51100000000E-03 0.  1.
</event>
<event>
 8    1  0.1088270E+005  0.1043930E+01  0.7957747E-01            NaN
         13   -1    0    0    0    0  0.00000000000E+00  0.00000000000E+00  0.74505805969E-08  0.10566000000E+00  0.10566000000E+00 0. -1.
     999900   -1    0    0    0    0 -0.00000000000E+00 -0.00000000000E+00 -0.74505805969E-08  0.93827000000E+00  0.93827000000E+00 0. -1.
     999902    2    1    2    0    0 -0.44546999989E-03  0.24094144936E-01  0.44335174017E-02  0.10194272993E+01  0.10191327864E+01 0.  0.
     999903    2    3    3    0    0  0.12324304899E+00 -0.28354931688E-01 -0.17036289458E-01  0.12897196189E+00  0.18726465772E-01 0.  0.
         14    1    1    2    0    0  0.44546999989E-03 -0.24094144936E-01 -0.44335174017E-02  0.24502700673E-01  0.00000000000E+00 0. -1.
     999901    1    3    3    0    0 -0.12368851899E+00  0.52449076625E-01  0.21469806859E-01  0.89045533744E+00  0.88000000000E+00 0.  1.
        -11    1    4    4    0    0  0.10086004130E+00 -0.28713635801E-01 -0.92956596231E-02  0.10528006089E+00  0.51100000000E-03 0.  1.
         11    1    4    4    0    0  0.22383007686E-01  0.35870411262E-03 -0.77406298345E-02  0.23691900999E-01  0.51100000000E-03 0. -1.
</event>
<event>
 8    1  0.1088270E+005  0.1043930E+01  0.7957747E-01            NaN
         13   -1    0    0    0    0  0.00000000000E+00  0.00000000000E+00  0.74505805969E-08  0.10566000000E+00  0.10566000000E+00 0. -1.
     999900   -1    0    0    0    0 -0.00000000000E+00 -0.00000000000E+00 -0.74505805969E-08  0.93827000000E+00  0.93827000000E+00 0.  1.
     999902    2    1    2    0    0  0.14277563949E-01  0.17795296255E-02  0.17960366984E-01  0.10209171701E+01  0.10206577673E+01 0.  0.
     999903    2    3    3    0    0 -0.42152146899E-01  0.11930773692E+00  0.28611036104E-01  0.13124833928E+00  0.19909686043E-01 0.  0.
         14    1    1    2    0    0 -0.14277563949E-01 -0.17795296255E-02 -0.17960366984E-01  0.23012829904E-01  0.00000000000E+00 0.  1.
     999901    1    3    3    0    0  0.56429710848E-01 -0.11752820730E+00 -0.10650669120E-01  0.88966883082E+00  0.88000000000E+00 0. -1.
        -11    1    4    4    0    0 -0.12190651587E-01  0.53499860728E-01  0.20103973558E-01  0.58440379515E-01  0.51100000000E-03 0.  1.
         11    1    4    4    0    0 -0.29961495312E-01  0.65807876195E-01  0.85070625456E-02  0.72807959762E-01  0.51100000000E-03 0. -1.
</event>
<event>
 8    1  0.1088270E+005  0.1043930E+01  0.7957747E-01            NaN
         13   -1    0    0    0    0  0.00000000000E+00  0.00000000000E+00  0.74505805969E-08  0.10566000000E+00  0.10566000000E+00 0.  1.
     999900   -1    0    0    0    0 -0.00000000000E+00 -0.00000000000E+00 -0.74505805969E-08  0.93827000000E+00  0.93827000000E+00 0. -1.
     999902    2    1    2    0    0 -0.11281775711E-01  0.76045457031E-02  0.20049578786E-01  0.10196999941E+01  0.10194120780E+01 0.  0.
     999903    2    3    3    0    0 -0.90530543440E-01 -0.76080278642E-01 -0.48867598849E-01  0.12951288205E+00  0.20038869864E-01 0.  0.
         14    1    1    2    0    0  0.11281775711E-01 -0.76045457031E-02 -0.20049578786E-01  0.24230005943E-01  0.00000000000E+00 0. -1.
     999901    1    3    3    0    0  0.79248767729E-01  0.83684824345E-01  0.68917177634E-01  0.89018711201E+00  0.88000000000E+00 0. -1.
        -11    1    4    4    0    0 -0.62752509167E-01 -0.43283828353E-01 -0.37989576479E-01  0.85175326507E-01  0.51100000000E-03 0. -1.
         11    1    4    4    0    0 -0.27778034273E-01 -0.32796450289E-01 -0.10878022370E-01  0.44337555541E-01  0.51100000000E-03 0.  1.
</event>
<event>
 8    1  0.1088270E+005  0.1043930E+01  0.7957747E-01            NaN
         13   -1    0    0    0    0  0.00000000000E+00  0.00000000000E+00  0.74505805969E-08  0.10566000000E+00  0.10566000000E+00 0. -1.
     999900   -1    0    0    0    0 -0.00000000000E+00 -0.00000000000E+00 -0.74505805969E-08  0.93827000000E+00  0.93827000000E+00 0. -1.
     999902    2    1    2    0    0 -0.15333582758E-01 -0.18294763165E-01  0.37603899427E-02  0.10197647843E+01  0.10194784243E+01 0.  0.
     999903    2    3    3    0    0  0.59734665059E-01 -0.13558722353E-01 -0.11189695137E+00  0.12901549713E+00  0.19287343338E-01 0.  0.
         14    1    1    2    0    0  0.15333582758E-01  0.18294763165E-01 -0.37603899427E-02  0.24165215745E-01  0.00000000000E+00 0. -1.
     999901    1    3    3    0    0 -0.75068247817E-01 -0.47360408128E-02  0.11565734131E+00  0.89074928712E+00  0.88000000000E+00 0.  1.
        -11    1    4    4    0    0  0.17729896242E-01 -0.44244195044E-02 -0.17575167505E-01  0.25358871081E-01  0.51100000000E-03 0.  1.
         11    1    4    4    0    0  0.42004768816E-01 -0.91343028481E-02 -0.94321783863E-01  0.10365662605E+00  0.51100000000E-03 0. -1.
</event>
<event>
 8    1  0.1116326E+005  0.1043930E+01  0.7957747E-01            NaN
         13   -1    0    0    0    0  0.00000000000E+00  0.00000000000E+00  0.74505805969E-08  0.10566000000E+00  0.10566000000E+00 0.  1.
     999900   -1    0    0    0    0 -0.00000000000E+00 -0.00000000000E+00 -0.74505805969E-08  0.93827000000E+00  0.93827000000E+00 0. -1.
     999902    2    1    2    0    0 -0.34456883841E-02 -0.16831734724E-01 -0.16367635598E-01  0.10202007026E+01  0.10199247001E+01 0.  0.
     999903    2    3    3    0    0 -0.45074439922E-01 -0.69534694467E-01  0.98469065326E-01  0.13020181334E+00  0.19737692418E-01 0.  0.
         14    1    1    2    0    0  0.34456883841E-02  0.16831734724E-01  0.16367635598E-01  0.23729297447E-01  0.00000000000E+00 0.  1.
     999901    1    3    3    0    0  0.41628751538E-01  0.52702959743E-01 -0.11483670092E+00  0.88999888921E+00  0.88000000000E+00 0. -1.
        -11    1    4    4    0    0 -0.27519028638E-01 -0.25511503074E-01  0.48581259188E-01  0.61388383197E-01  0.51100000000E-03 0.  1.
         11    1    4    4    0    0 -0.17555411284E-01 -0.44023191393E-01  0.49887806138E-01  0.68813430144E-01  0.51100000000E-03 0. -1.
</event>
<event>
 8    1  0.1088270E+005  0.1043930E+01  0.7957747E-01            NaN
         13   -1    0    0    0    0  0.00000000000E+00  0.00000000000E+00  0.74505805969E-08  0.10566000000E+00  0.10566000000E+00 0. -1.
     999900   -1    0    0    0    0 -0.00000000000E+00 -0.00000000000E+00 -0.74505805969E-08  0.93827000000E+00  0.93827000000E+00 0.  1.
     999902    2    1    2    0    0  0.78015895093E-02  0.10704606973E-02  0.21585823124E-01  0.10209526537E+01  0.10206940592E+01 0.  0.
     999903    2    3    3    0    0  0.80788014080E-01  0.48603314646E-01  0.92918193756E-01  0.13378034938E+00  0.19349566818E-01 0.  0.
         14    1    1    2    0    0 -0.78015895093E-02 -0.10704606973E-02 -0.21585823124E-01  0.22977346342E-01  0.00000000000E+00 0.  1.
     999901    1    3    3    0    0 -0.72986424570E-01 -0.47532853949E-01 -0.71332370632E-01  0.88717230428E+00  0.88000000000E+00 0.  1.
        -11    1    4    4    0    0  0.22494931768E-01  0.45401831922E-02  0.26158342025E-01  0.34801655092E-01  0.51100000000E-03 0. -1.
         11    1    4    4    0    0  0.58293082312E-01  0.44063131454E-01  0.66759851731E-01  0.98978694289E-01  0.51100000000E-03 0.  1.
</event>
<event>
 7    1  0.1088270E+005  0.1043930E+01  0.7957747E-01            NaN
         13   -1    0    0    0    0  0.00000000000E+00  0.00000000000E+00  0.74505805969E-08  0.10566000000E+00  0.10566000000E+00 0.  1.
     999900   -1    0    0    0    0 -0.00000000000E+00 -0.00000000000E+00 -0.74505805969E-08  0.93827000000E+00  0.93827000000E+00 0. -1.
     999903    2    1    2    0    0 -0.92647960241E-01 -0.52053257519E-01 -0.17920393663E-01  0.10941796422E+00  0.18919942665E-01 0.  0.
         14    1    1    2    0    0  0.49538892417E-01  0.15782633880E-01 -0.63363750289E-02  0.52376932352E-01  0.00000000000E+00 0. -1.
     999901    1    1    2    0    0  0.43109067824E-01  0.36270623639E-01  0.24256768692E-01  0.88213510343E+00  0.88000000000E+00 0.  1.
        -11    1    3    3    0    0 -0.10172557567E-01 -0.13463313189E-01 -0.28374500864E-02  0.17118819278E-01  0.51100000000E-03 0. -1.
         11    1    3    3    0    0 -0.82475402674E-01 -0.38589944331E-01 -0.15082943577E-01  0.92299144945E-01  0.51100000000E-03 0.  1.
</event>
<event>
 8    1  0.1088270E+005  0.1043930E+01  0.7957747E-01            NaN
         13   -1    0    0    0    0  0.00000000000E+00  0.00000000000E+00  0.74505805969E-08  0.10566000000E+00  0.10566000000E+00 0. -1.
     999900   -1    0    0    0    0 -0.00000000000E+00 -0.00000000000E+00 -0.74505805969E-08  0.93827000000E+00  0.93827000000E+00 0.  1.
     999902    2    1    2    0    0 -0.16123830400E-01 -0.16424303781E-01  0.41940855934E-02  0.10205350002E+01  0.10202668085E+01 0.  0.
     999903    2    3    3    0    0  0.71243904503E-01  0.97923164603E-01  0.37477775069E-01  0.12822548630E+00  0.19301596229E-01 0.  0.
         14    1    1    2    0    0  0.16123830400E-01  0.16424303781E-01 -0.41940855934E-02  0.23394999795E-01  0.00000000000E+00 0.  1.
     999901    1    3    3    0    0 -0.87367734903E-01 -0.11434746838E+00 -0.33283689475E-01  0.89230951391E+00  0.88000000000E+00 0. -1.
        -11    1    4    4    0    0  0.44694190249E-01  0.46960515550E-01  0.24544415342E-01  0.69322075187E-01  0.51100000000E-03 0. -1.
         11    1    4    4    0    0  0.26549714254E-01  0.50962649052E-01  0.12933359727E-01  0.58903411109E-01  0.51100000000E-03 0.  1.
</event>
<event>
 8    1  0.1088270E+005  0.1043930E+01  0.7957747E-01            NaN
         13   -1    0    0    0    0  0.00000000000E+00  0.00000000000E+00  0.74505805969E-08  0.10566000000E+00  0.10566000000E+00 0.  1.
     999900   -1    0    0    0    0 -0.00000000000E+00 -0.00000000000E+00 -0.74505805969E-08  0.93827000000E+00  0.93827000000E+00 0.  1.
     999902    2    1    2    0    0 -0.70101224589E-02  0.49600663991E-02  0.21664357244E-01  0.10206257418E+01  0.10203596505E+01 0.  0.
     999903    2    3    3    0    0 -0.47618680884E-01  0.11997240879E+00 -0.14710636942E-01  0.13146881857E+00  0.20167542641E-01 0.  0.
         14    1    1    2    0    0  0.70101224589E-02 -0.49600663991E-02 -0.21664357244E-01  0.23304258202E-01  0.00000000000E+00 0. -1.
     999901    1    3    3    0    0  0.40608558425E-01 -0.11501234239E+00  0.36374994186E-01  0.88915692323E+00  0.88000000000E+00 0. -1.
        -11    1    4    4    0    0 -0.37981289692E-01  0.73808013151E-01 -0.39977952958E-02  0.83105021871E-01  0.51100000000E-03 0.  1.
         11    1    4    4    0    0 -0.96373911920E-02  0.46164395643E-01 -0.10712841647E-01  0.48363796700E-01  0.51100000000E-03 0. -1.
</event>
<event>
 8    1  0.1088270E+005  0.1043930E+01  0.7957747E-01            NaN
         13   -1    0    0    0    0  0.00000000000E+00  0.00000000000E+00  0.74505805969E-08  0.10566000000E+00  0.10566000000E+00 0.  1.
     999900   -1    0    0    0    0 -0.00000000000E+00 -0.00000000000E+00 -0.74505805969E-08  0.93827000000E+00  0.93827000000E+00 0. -1.
     999902    2    1    2    0    0 -0.10036444651E-01  0.94639183077E-02 -0.20607145904E-01  0.10191318058E+01  0.10188300581E+01 0.  0.
     999903    2    3    3    0    0 -0.63147599839E-01  0.17510121025E-01 -0.11353198049E+00  0.13261019806E+00  0.20043211625E-01 0.  0.
         14    1    1    2    0    0  0.10036444651E-01 -0.94639183077E-02  0.20607145904E-01  0.24798194153E-01  0.00000000000E+00 0.  1.
     999901    1    3    3    0    0  0.53111155189E-01 -0.80462027172E-02  0.92924834588E-01  0.88652160778E+00  0.88000000000E+00 0.  1.
        -11    1    4    4    0    0 -0.44701251485E-01  0.19871716906E-01 -0.71385971292E-01  0.86540770943E-01  0.51100000000E-03 0. -1.
         11    1    4    4    0    0 -0.18446348354E-01 -0.23615958813E-02 -0.42146009200E-01  0.46069427120E-01  0.51100000000E-03 0.  1.
</event>
<event>
 8    1  0.1088270E+005  0.1043930E+01  0.7957747E-01            NaN
         13   -1    0    0    0    0  0.00000000000E+00  0.00000000000E+00  0.74505805969E-08  0.10566000000E+00  0.10566000000E+00 0. -1.
     999900   -1    0    0    0    0 -0.00000000000E+00 -0.00000000000E+00 -0.74505805969E-08  0.93827000000E+00  0.93827000000E+00 0.  1.
     999902    2    1    2    0    0  0.21685151783E-01  0.10175440137E-01  0.30168135818E-02  0.10197869564E+01  0.10195011280E+01 0.  0.
     999903    2    3    3    0    0 -0.29710810162E-01  0.94960345699E-01 -0.81650934241E-01  0.13018105903E+00  0.19494449805E-01 0.  0.
         14    1    1    2    0    0 -0.21685151783E-01 -0.10175440137E-01 -0.30168135818E-02  0.24143043595E-01  0.00000000000E+00 0.  1.
     999901    1    3    3    0    0  0.51395961946E-01 -0.84784905562E-01  0.84667747822E-01  0.88960589737E+00  0.88000000000E+00 0.  1.
        -11    1    4    4    0    0 -0.31326208131E-01  0.76725840276E-01 -0.63600884616E-01  0.10446779182E+00  0.51100000000E-03 0. -1.
         11    1    4    4    0    0  0.16153979683E-02  0.18234505423E-01 -0.18050049624E-01  0.25713267219E-01  0.51100000000E-03 0.  1.
</event>
<event>
 8    1  0.1088270E+005  0.1043930E+01  0.7957747E-01            NaN
         13   -1    0    0    0    0  0.00000000000E+00  0.00000000000E+00  0.74505805969E-08  0.10566000000E+00  0.10566000000E+00 0.  1.
     999900   -1    0    0    0    0 -0.00000000000E+00 -0.00000000000E+00 -0.74505805969E-08  0.93827000000E+00  0.93827000000E+00 0.  1.
     999902    2    1    2    0    0  0.29282417784E-01  0.15068682202E-01 -0.22353510132E-02  0.10109220923E+01  0.10103830733E+01 0.  0.
     999903    2    3    3    0    0  0.37081335377E-02  0.86310413680E-01 -0.86325101089E-01  0.12367888194E+00  0.19524471709E-01 0.  0.
         14    1    1    2    0    0 -0.29282417784E-01 -0.15068682202E-01  0.22353510132E-02  0.33007907670E-01  0.00000000000E+00 0.  1.
     999901    1    3    3    0    0  0.25574284247E-01 -0.71241731477E-01  0.84089750076E-01  0.88724321039E+00  0.88000000000E+00 0.  1.
        -11    1    4    4    0    0  0.99454125145E-02  0.72799812970E-01 -0.74775632807E-01  0.10483501505E+00  0.51100000000E-03 0. -1.
         11    1    4    4    0    0 -0.62372789768E-02  0.13510600710E-01 -0.11549468282E-01  0.18843866885E-01  0.51100000000E-03 0.  1.
</event>
<event>
 8    1  0.1088270E+005  0.1043930E+01  0.7957747E-01            NaN
         13   -1    0    0    0    0  0.00000000000E+00  0.00000000000E+00  0.74505805969E-08  0.10566000000E+00  0.10566000000E+00 0.  1.
     999900   -1    0    0    0    0 -0.00000000000E+00 -0.00000000000E+00 -0.74505805969E-08  0.93827000000E+00  0.93827000000E+00 0. -1.
     999902    2    1    2    0    0 -0.84990181615E-02 -0.14287388424E-01 -0.16736605480E-01  0.10203402408E+01  0.10200675126E+01 0.  0.
     999903    2    3    3    0    0  0.91013691653E-01  0.32940791111E-01 -0.85585330551E-01  0.13080472866E+00  0.20406872538E-01 0.  0.
         14    1    1    2    0    0  0.84990181615E-02  0.14287388424E-01  0.16736605480E-01  0.23589759233E-01  0.00000000000E+00 0.  1.
     999901    1    3    3    0    0 -0.99512709815E-01 -0.47228179534E-01  0.68848725071E-01  0.88953551211E+00  0.88000000000E+00 0.  1.
        -11    1    4    4    0    0  0.62354320242E-01  0.17282576556E-01 -0.67349851564E-01  0.93397068112E-01  0.51100000000E-03 0.  1.
         11    1    4    4    0    0  0.28659371412E-01  0.15658214555E-01 -0.18235478987E-01  0.37407660548E-01  0.51100000000E-03 0. -1.
</event>
<event>
 8    1  0.1088270E+005  0.1043930E+01  0.7957747E-01            NaN
         13   -1    0    0    0    0  0.00000000000E+00  0.00000000000E+00  0.74505805969E-08  0.10566000000E+00  0.10566000000E+00 0.  1.
     999900   -1    0    0    0    0 -0.00000000000E+00 -0.00000000000E+00 -0.74505805969E-08  0.93827000000E+00  0.93827000000E+00 0. -1.
     999902    2    1    2    0    0  0.49043361284E-02 -0.21357797715E-01 -0.10061293474E-01  0.10198169815E+01  0.10195318720E+01 0.  0.
     999903    2    3    3    0    0  0.30507022763E-01 -0.40002998820E-01  0.11800781823E+00  0.12998281801E+00  0.20946824650E-01 0.  0.
         14    1    1    2    0    0 -0.49043361284E-02  0.21357797715E-01  0.10061293474E-01  0.24113018526E-01  0.00000000000E+00 0.  1.
     999901    1    3    3    0    0 -0.25602686635E-01  0.18645201106E-01 -0.12806911170E+00  0.88983416346E+00  0.88000000000E+00 0. -1.
        -11    1    4    4    0    0  0.18162183432E-01 -0.16327238695E-01  0.34236074124E-01  0.42057264804E-01  0.51100000000E-03 0. -1.
         11    1    4    4    0    0  0.12344839332E-01 -0.23675760126E-01  0.83771744106E-01  0.87925553210E-01  0.51100000000E-03 0.  1.
</event>
<event>
 8    1  0.1088270E+005  0.1043930E+01  0.7957747E-01            NaN
         13   -1    0    0    0    0  0.00000000000E+00  0.00000000000E+00  0.74505805969E-08  0.10566000000E+00  0.10566000000E+00 0.  1.
     999900   -1    0    0    0    0 -0.00000000000E+00 -0.00000000000E+00 -0.74505805969E-08  0.93827000000E+00  0.93827000000E+00 0. -1.
     999902    2    1    2    0    0 -0.94426994767E-02  0.18629227017E-03 -0.20606824071E-01  0.10212619503E+01  0.10210103480E+01 0.  0.
     999903    2    3    3    0    0 -0.10916334794E+00  0.15048968233E-01 -0.73954575041E-01  0.13390007971E+00  0.17800117934E-01 0.  0.
         14    1    1    2    0    0  0.94426994767E-02 -0.18629227017E-03  0.20606824071E-01  0.22668049685E-01  0.00000000000E+00 0. -1.
     999901    1    3    3    0    0  0.99720648466E-01 -0.14862675963E-01  0.53347750970E-01  0.88736187060E+00  0.88000000000E+00 0.  1.
        -11    1    4    4    0    0 -0.91329411678E-01  0.14120141710E-01 -0.53670376964E-01  0.10687006280E+00  0.51100000000E-03 0. -1.
         11    1    4    4    0    0 -0.17833936265E-01  0.92882652275E-03 -0.20284198077E-01  0.27030016908E-01  0.51100000000E-03 0.  1.
</event>
<event>
 8    1  0.1088270E+005  0.1043930E+01  0.7957747E-01            NaN
         13   -1    0    0    0    0  0.00000000000E+00  0.00000000000E+00  0.74505805969E-08  0.10566000000E+00  0.10566000000E+00 0. -1.
     999900   -1    0    0    0    0 -0.00000000000E+00 -0.00000000000E+00 -0.74505805969E-08  0.93827000000E+00  0.93827000000E+00 0.  1.
     999902    2    1    2    0    0  0.12875591386E-01  0.19447368918E-01 -0.59148083062E-02  0.10198682883E+01  0.10195844053E+01 0.  0.
     999903    2    3    3    0    0  0.66472993659E-01 -0.64269315240E-02  0.11036811567E+00  0.13022573125E+00  0.17822900663E-01 0.  0.
         14    1    1    2    0    0 -0.12875591386E-01 -0.19447368918E-01  0.59148083062E-02  0.24061711674E-01  0.00000000000E+00 0. -1.
     999901    1    3    3    0    0 -0.53597402272E-01  0.25874300442E-01 -0.11628292398E+00  0.88964255708E+00  0.88000000000E+00 0.  1.
        -11    1    4    4    0    0  0.27278431288E-01 -0.83459438754E-02  0.59421692768E-01  0.65916358252E-01  0.51100000000E-03 0. -1.
         11    1    4    4    0    0  0.39194562371E-01  0.19190123514E-02  0.50946422902E-01  0.64309372998E-01  0.51100000000E-03 0.  1.
</event>
<event>
 8    1  0.1088270E+005  0.1043930E+01  0.7957747E-01            NaN
         13   -1    0    0    0    0  0.00000000000E+00  0.00000000000E+00  0.74505805969E-08  0.10566000000E+00  0.10566000000E+00 0. -1.
     999900   -1    0    0    0    0 -0.00000000000E+00 -0.00000000000E+00 -0.74505805969E-08  0.93827000000E+00  0.93827000000E+00 0.  1.
     999902    2    1    2    0    0 -0.18734443387E-01  0.13306809536E-01 -0.62972496081E-02  0.10201034203E+01  0.10198251233E+01 0.  0.
     999903    2    3    3    0    0 -0.12582747442E+00  0.14492438418E-01 -0.35633099625E-01  0.13312488890E+00  0.20246831031E-01 0.  0.
         14    1    1    2    0    0  0.18734443387E-01 -0.13306809536E-01  0.62972496081E-02  0.23826579731E-01  0.00000000000E+00 0. -1.
     999901    1    3    3    0    0  0.10709303103E+00 -0.11856288828E-02  0.29335850017E-01  0.88697853137E+00  0.88000000000E+00 0.  1.
        -11    1    4    4    0    0 -0.61030138253E-01 -0.19829016579E-03 -0.96952862830E-02  0.61797870443E-01  0.51100000000E-03 0. -1.
         11    1    4    4    0    0 -0.64797336163E-01  0.14690728584E-01 -0.25937813342E-01  0.71327018458E-01  0.51100000000E-03 0.  1.
</event>
<event>
 8    1  0.1088270E+005  0.1043930E+01  0.7957747E-01            NaN
         13   -1    0    0    0    0  0.00000000000E+00  0.00000000000E+00  0.74505805969E-08  0.10566000000E+00  0.10566000000E+00 0. -1.
     999900   -1    0    0    0    0 -0.00000000000E+00 -0.00000000000E+00 -0.74505805969E-08  0.93827000000E+00  0.93827000000E+00 0.  1.
     999902    2    1    2    0    0  0.14478220052E-01 -0.17574494760E-01 -0.41038010263E-02  0.10207929538E+01  0.10205307108E+01 0.  0.
     999903    2    3    3    0    0 -0.15620217927E-01  0.40233069457E-01  0.12063914599E+00  0.12960922796E+00  0.19546287122E-01 0.  0.
         14    1    1    2    0    0 -0.14478220052E-01  0.17574494760E-01  0.41038010263E-02  0.23137046155E-01  0.00000000000E+00 0.  1.
     999901    1    3    3    0    0  0.30098437979E-01 -0.57807564216E-01 -0.12474294702E+00  0.89118372588E+00  0.88000000000E+00 0.  1.
        -11    1    4    4    0    0 -0.76038154421E-02  0.27023771365E-01  0.50444199585E-01  0.57731972258E-01  0.51100000000E-03 0.  1.
         11    1    4    4    0    0 -0.80164024846E-02  0.13209298092E-01  0.70194946409E-01  0.71877255702E-01  0.51100000000E-03 0. -1.
</event>
<event>
 8    1  0.1088270E+005  0.1043930E+01  0.7957747E-01            NaN
         13   -1    0    0    0    0  0.00000000000E+00  0.00000000000E+00  0.74505805969E-08  0.10566000000E+00  0.10566000000E+00 0.  1.
     999900   -1    0    0    0    0 -0.00000000000E+00 -0.00000000000E+00 -0.74505805969E-08  0.93827000000E+00  0.93827000000E+00 0.  1.
     999902    2    1    2    0    0  0.22672055791E-01 -0.23667174036E-04  0.16773186558E-01  0.10157278288E+01  0.10153362299E+01 0.  0.
     999903    2    3    3    0    0 -0.65980183367E-02  0.74629247959E-01 -0.97682797411E-01  0.12470035040E+00  0.19879385862E-01 0.  0.
         14    1    1    2    0    0 -0.22672055791E-01  0.23667174036E-04 -0.16773186558E-01  0.28202171214E-01  0.00000000000E+00 0.  1.
     999901    1    3    3    0    0  0.29270074127E-01 -0.74652915133E-01  0.11445598397E+00  0.89102747839E+00  0.88000000000E+00 0. -1.
        -11    1    4    4    0    0 -0.10464447719E-01  0.53936712826E-01 -0.58759276617E-01  0.80446176827E-01  0.51100000000E-03 0. -1.
         11    1    4    4    0    0  0.38664293822E-02  0.20692535134E-01 -0.38923520793E-01  0.44254173570E-01  0.51100000000E-03 0.  1.
</event>
<event>
 8    1  0.1179679E+005  0.1043930E+01  0.7957747E-01            NaN
         13   -1    0    0    0    0  0.00000000000E+00  0.00000000000E+00  0.74505805969E-08  0.10566000000E+00  0.10566000000E+00 0.  1.
     999900   -1    0    0    0    0 -0.00000000000E+00 -0.00000000000E+00 -0.74505805969E-08  0.93827000000E+00  0.93827000000E+00 0.  1.
     999902    2    1    2    0    0  0.21658074940E-02 -0.41566139196E-02 -0.23249596710E-01  0.10202126665E+01  0.10199369456E+01 0.  0.
     999903    2    3    3    0    0 -0.11987354844E+00 -0.43317661612E-01  0.16885495272E-01  0.13002278919E+00  0.19357642770E-01 0.  0.
         14    1    1    2    0    0 -0.21658074940E-02  0.41566139196E-02  0.23249596710E-01  0.23717333504E-01  0.00000000000E+00 0.  1.
     999901    1    3    3    0    0  0.12203935594E+00  0.39161047692E-01 -0.40135091982E-01  0.89018987731E+00  0.88000000000E+00 0.  1.
        -11    1    4    4    0    0 -0.83055019905E-01 -0.32231623378E-01  0.20433907880E-01  0.91404702227E-01  0.51100000000E-03 0.  1.
         11    1    4    4    0    0 -0.36818528538E-01 -0.11086038233E-01 -0.35484126075E-02  0.38618086960E-01  0.51100000000E-03 0. -1.
</event>
<event>
 8    1  0.1088270E+005  0.1043930E+01  0.7957747E-01            NaN
         13   -1    0    0    0    0  0.00000000000E+00  0.00000000000E+00  0.74505805969E-08  0.10566000000E+00  0.10566000000E+00 0. -1.
     999900   -1    0    0    0    0 -0.00000000000E+00 -0.00000000000E+00 -0.74505805969E-08  0.93827000000E+00  0.93827000000E+00 0. -1.
     999902    2    1    2    0    0  0.32044200985E-02 -0.12057414230E-02  0.22900384547E-01  0.10207750927E+01  0.10205124400E+01 0.  0.
     999903    2    3    3    0    0 -0.26831873961E-01  0.12431599475E+00 -0.20179650977E-01  0.13031803326E+00  0.20028865846E-01 0.  0.
         14    1    1    2    0    0 -0.32044200985E-02  0.12057414230E-02 -0.22900384547E-01  0.23154907319E-01  0.00000000000E+00 0.  1.
     999901    1    3    3    0    0  0.30036294060E-01 -0.12552173618E+00  0.43080035524E-01  0.89045705942E+00  0.88000000000E+00 0.  1.
        -11    1    4    4    0    0 -0.11500615454E-01  0.87811943041E-01 -0.81634457176E-02  0.88938768057E-01  0.51100000000E-03 0.  1.
         11    1    4    4    0    0 -0.15331258507E-01  0.36504051713E-01 -0.12016205260E-01  0.41379265202E-01  0.51100000000E-03 0. -1.
</event>
<event>
 8    1  0.1088270E+005  0.1043930E+01  0.7957747E-01            NaN
         13   -1    0    0    0    0  0.00000000000E+00  0.00000000000E+00  0.74505805969E-08  0.10566000000E+00  0.10566000000E+00 0.  1.
     999900   -1    0    0    0    0 -0.00000000000E+00 -0.00000000000E+00 -0.74505805969E-08  0.93827000000E+00  0.93827000000E+00 0.  1.
     999902    2    1    2    0    0  0.20011851105E-01  0.13170217840E-02  0.11234720194E-01  0.10209424453E+01  0.10206836185E+01 0.  0.
     999903    2    3    3    0    0 -0.21105465683E-01 -0.63014846214E-01  0.11199193194E+00  0.13190856596E+00  0.21008698906E-01 0.  0.
         14    1    1    2    0    0 -0.20011851105E-01 -0.13170217840E-02 -0.11234720194E-01  0.22987554652E-01  0.00000000000E+00 0.  1.
     999901    1    3    3    0    0  0.41117316788E-01  0.64331867998E-01 -0.10075721174E+00  0.88903387939E+00  0.88000000000E+00 0.  1.
        -11    1    4    4    0    0 -0.13694109552E-01 -0.38934268342E-01  0.49029773777E-01  0.64090449565E-01  0.51100000000E-03 0. -1.
         11    1    4    4    0    0 -0.74113561312E-02 -0.24080577872E-01  0.62962158160E-01  0.67818116397E-01  0.51100000000E-03 0.  1.
</event>
<event>
 8    1  0.1088270E+005  0.1043930E+01  0.7957747E-01            NaN
         13   -1    0    0    0    0  0.00000000000E+00  0.00000000000E+00  0.74505805969E-08  0.10566000000E+00  0.10566000000E+00 0. -1.
     999900   -1    0    0    0    0 -0.00000000000E+00 -0.00000000000E+00 -0.74505805969E-08  0.93827000000E+00  0.93827000000E+00 0.  1.
     999902    2    1    2    0    0 -0.18271023108E-01 -0.38742436179E-02  0.13117016469E-01  0.10211068501E+01  0.10208517538E+01 0.  0.
     999903    2    3    3    0    0 -0.10127788469E+00  0.22998690851E-01 -0.79054302136E-01  0.13200176880E+00  0.19716352915E-01 0.  0.
         14    1    1    2    0    0  0.18271023108E-01  0.38742436179E-02 -0.13117016469E-01  0.22823149872E-01  0.00000000000E+00 0.  1.
     999901    1    3    3    0    0  0.83006861577E-01 -0.26872934469E-01  0.92171318604E-01  0.88910508133E+00  0.88000000000E+00 0. -1.
        -11    1    4    4    0    0 -0.11437502142E-01  0.28508969463E-02 -0.20570647682E-02  0.11976506381E-01  0.51100000000E-03 0.  1.
         11    1    4    4    0    0 -0.89840382543E-01  0.20147793905E-01 -0.76997237367E-01  0.12002526242E+00  0.51100000000E-03 0. -1.
</event>
<event>
 8    1  0.1088270E+005  0.1043930E+01  0.7957747E-01            NaN
         13   -1    0    0    0    0  0.00000000000E+00  0.00000000000E+00  0.74505805969E-08  0.10566000000E+00  0.10566000000E+00 0. -1.
     999900   -1    0    0    0    0 -0.00000000000E+00 -0.00000000000E+00 -0.74505805969E-08  0.93827000000E+00  0.93827000000E+00 0.  1.
     999902    2    1    2    0    0 -0.15061850584E-01 -0.91058456070E-02  0.14367609279E-01  0.10212098776E+01  0.10209571049E+01 0.  0.
     999903    2    3    3    0    0 -0.35762895429E-01  0.11674965109E+00  0.44498444321E-01  0.13150430462E+00  0.20094896541E-01 0.  0.
         14    1    1    2    0    0  0.15061850584E-01  0.91058456070E-02 -0.14367609279E-01  0.22720122438E-01  0.00000000000E+00 0.  1.
     999901    1    3    3    0    0  0.20701044846E-01 -0.12585549670E+00 -0.30130835042E-01  0.88970557294E+00  0.88000000000E+00 0. -1.
        -11    1    4    4    0    0 -0.16804500483E-01  0.25859987068E-01  0.94112997437E-02  0.32248470529E-01  0.51100000000E-03 0. -1.
         11    1    4    4    0    0 -0.18958394946E-01  0.90889664022E-01  0.35087144577E-01  0.99255834089E-01  0.51100000000E-03 0.  1.
</event>
<event>
 8    1  0.1088270E+005  0.1043930E+01  0.7957747E-01            NaN
         13   -1    0    0    0    0  0.00000000000E+00  0.00000000000E+00  0.74505805969E-08  0.10566000000E+00  0.10566000000E+00 0. -1.
     999900   -1    0    0    0    0 -0.00000000000E+00 -0.00000000000E+00 -0.74505805969E-08  0.93827000000E+00  0.93827000000E+00 0.  1.
     999902    2    1    2    0    0  0.12986394728E-01 -0.16013997358E-01  0.10602816734E-01  0.10207456457E+01  0.10204823169E+01 0.  0.
     999903    2    3    3    0    0  0.20351096383E-01  0.12579292101E+00 -0.67788963432E-02  0.12919331140E+00  0.20172559973E-01 0.  0.
         14    1    1    2    0    0 -0.12986394728E-01  0.16013997358E-01 -0.10602816734E-01  0.23184354253E-01  0.00000000000E+00 0.  1.
     999901    1    3    3    0    0 -0.73647016547E-02 -0.14180691837E+00  0.17381713077E-01  0.89155233435E+00  0.88000000000E+00 0. -1.
        -11    1    4    4    0    0  0.13340021692E-02  0.50679067586E-01  0.44686167185E-02  0.50895747460E-01  0.51100000000E-03 0.  1.
         11    1    4    4    0    0  0.19017094214E-01  0.75113853422E-01 -0.11247513062E-01  0.78297563942E-01  0.51100000000E-03 0. -1.
</event>
<event>
 8    1  0.1088270E+005  0.1043930E+01  0.7957747E-01            NaN
         13   -1    0    0    0    0  0.00000000000E+00  0.00000000000E+00  0.74505805969E-08  0.10566000000E+00  0.10566000000E+00 0.  1.
     999900   -1    0    0    0    0 -0.00000000000E+00 -0.00000000000E+00 -0.74505805969E-08  0.93827000000E+00  0.93827000000E+00 0. -1.
     999902    2    1    2    0    0 -0.21527828094E-03 -0.11902142504E-01  0.19988258578E-01  0.10206654815E+01  0.10204003074E+01 0.  0.
     999903    2    3    3    0    0  0.77620976902E-01 -0.48930192072E-01 -0.89382333936E-01  0.12971571545E+00  0.20439800991E-01 0.  0.
         14    1    1    2    0    0  0.21527828094E-03  0.11902142504E-01 -0.19988258578E-01  0.23264518519E-01  0.00000000000E+00 0. -1.
     999901    1    3    3    0    0 -0.77836255183E-01  0.37028049569E-01  0.10937059251E+00  0.89094976603E+00  0.88000000000E+00 0.  1.
        -11    1    4    4    0    0  0.36816781508E-01 -0.22351429068E-01 -0.56103463030E-01  0.70731332993E-01  0.51100000000E-03 0.  1.
         11    1    4    4    0    0  0.40804195394E-01 -0.26578763005E-01 -0.33278870906E-01  0.58984382462E-01  0.51100000000E-03 0. -1.
</event>
<event>
 8    1  0.1088270E+005  0.1043930E+01  0.7957747E-01            NaN
         13   -1    0    0    0    0  0.00000000000E+00  0.00000000000E+00  0.74505805969E-08  0.10566000000E+00  0.10566000000E+00 0. -1.
     999900   -1    0    0    0    0 -0.00000000000E+00 -0.00000000000E+00 -0.74505805969E-08  0.93827000000E+00  0.93827000000E+00 0. -1.
     999902    2    1    2    0    0 -0.24949479714E-01 -0.59430007224E-03 -0.47773499485E-02  0.10185203010E+01  0.10182032954E+01 0.  0.
     999903    2    3    3    0    0  0.37029166477E-01  0.63656154740E-02 -0.12166288913E+00  0.12860343844E+00  0.18036229002E-01 0.  0.
         14    1    1    2    0    0  0.24949479714E-01  0.59430007224E-03  0.47773499485E-02  0.25409698996E-01  0.00000000000E+00 0. -1.
     999901    1    3    3    0    0 -0.61978646191E-01 -0.69599155462E-02  0.11688553918E+00  0.88991686257E+00  0.88000000000E+00 0.  1.
        -11    1    4    4    0    0  0.27837268351E-01  0.30494529267E-02 -0.60575197539E-01  0.66737008851E-01  0.51100000000E-03 0. -1.
         11    1    4    4    0    0  0.91918981263E-02  0.33161625474E-02 -0.61087691590E-01  0.61866429588E-01  0.51100000000E-03 0.  1.
</event>
<event>
 8    1  0.1088270E+005  0.1043930E+01  0.7957747E-01            NaN
         13   -1    0    0    0    0  0.00000000000E+00  0.00000000000E+00  0.74505805969E-08  0.10566000000E+00  0.10566000000E+00 0.  1.
     999900   -1    0    0    0    0 -0.00000000000E+00 -0.00000000000E+00 -0.74505805969E-08  0.93827000000E+00  0.93827000000E+00 0. -1.
     999902    2    1    2    0    0  0.33841389613E-02  0.24585246830E-01  0.24414039240E-02  0.10189931355E+01  0.10186879615E+01 0.  0.
     999903    2    3    3    0    0 -0.58985771032E-01 -0.86117816505E-01  0.70132463400E-01  0.12729405316E+00  0.19738643408E-01 0.  0.
         14    1    1    2    0    0 -0.33841389613E-02 -0.24585246830E-01 -0.24414039240E-02  0.24936864505E-01  0.00000000000E+00 0. -1.
     999901    1    3    3    0    0  0.62369909993E-01  0.11070306334E+00 -0.67691059476E-01  0.89169908234E+00  0.88000000000E+00 0.  1.
        -11    1    4    4    0    0 -0.41046622435E-01 -0.68419398157E-01  0.44563998603E-01  0.91390646950E-01  0.51100000000E-03 0.  1.
         11    1    4    4    0    0 -0.17939148597E-01 -0.17698418348E-01  0.25568464797E-01  0.35903406210E-01  0.51100000000E-03 0. -1.
</event>
<event>
 8    1  0.1088270E+005  0.1043930E+01  0.7957747E-01            NaN
         13   -1    0    0    0    0  0.00000000000E+00  0.00000000000E+00  0.74505805969E-08  0.10566000000E+00  0.10566000000E+00 0. -1.
     999900   -1    0    0    0    0 -0.00000000000E+00 -0.00000000000E+00 -0.74505805969E-08  0.93827000000E+00  0.93827000000E+00 0. -1.
     999902    2    1    2    0    0  0.14563370707E-01  0.11496900060E-01  0.13994639750E-01  0.10206895091E+01  0.10204248887E+01 0.  0.
     999903    2    3    3    0    0 -0.69258591730E-01 -0.57771582720E-01  0.92325103348E-01  0.13054350664E+00  0.19579941774E-01 0.  0.
         14    1    1    2    0    0 -0.14563370707E-01 -0.11496900060E-01 -0.13994639750E-01  0.23240490939E-01  0.00000000000E+00 0. -1.
     999901    1    3    3    0    0  0.83821962437E-01  0.69268482780E-01 -0.78330463598E-01  0.89014600242E+00  0.88000000000E+00 0. -1.
        -11    1    4    4    0    0 -0.25389479330E-01 -0.10108492591E-01  0.31172279068E-01  0.41458164292E-01  0.51100000000E-03 0. -1.
         11    1    4    4    0    0 -0.43869112400E-01 -0.47663090128E-01  0.61152824280E-01  0.89085342351E-01  0.51100000000E-03 0.  1.
</event>
<event>
 8    1  0.1088270E+005  0.1043930E+01  0.7957747E-01            NaN
         13   -1    0    0    0    0  0.00000000000E+00  0.00000000000E+00  0.74505805969E-08  0.10566000000E+00  0.10566000000E+00 0.  1.
     999900   -1    0    0    0    0 -0.00000000000E+00 -0.00000000000E+00 -0.74505805969E-08  0.93827000000E+00  0.93827000000E+00 0.  1.
     999902    2    1    2    0    0  0.43056544279E-02  0.22402362826E-01 -0.80754559402E-02  0.10197304647E+01  0.10194432810E+01 0.  0.
     999903    2    3    3    0    0 -0.12522907292E+00  0.31826256666E-01  0.11791863119E-02  0.13014983105E+00  0.15567810502E-01 0.  0.
         14    1    1    2    0    0 -0.43056544279E-02 -0.22402362826E-01  0.80754559402E-02  0.24199535303E-01  0.00000000000E+00 0.  1.
     999901    1    3    3    0    0  0.12953472735E+00 -0.94238938396E-02 -0.92546422521E-02  0.88958063365E+00  0.88000000000E+00 0.  1.
        -11    1    4    4    0    0 -0.47111631819E-01  0.48552467749E-02 -0.24389267940E-02  0.47426667169E-01  0.51100000000E-03 0. -1.
         11    1    4    4    0    0 -0.78117441099E-01  0.26971009891E-01  0.36181131059E-02  0.82723163877E-01  0.51100000000E-03 0.  1.
</event>
<event>
 8    1  0.1088270E+005  0.1043930E+01  0.7957747E-01            NaN
         13   -1    0    0    0    0  0.00000000000E+00  0.00000000000E+00  0.74505805969E-08  0.10566000000E+00  0.10566000000E+00 0.  1.
     999900   -1    0    0    0    0 -0.00000000000E+00 -0.00000000000E+00 -0.74505805969E-08  0.93827000000E+00  0.93827000000E+00 0.  1.
     999902    2    1    2    0    0 -0.69469644641E-02  0.22365017600E-01  0.13991749273E-01  0.10166495422E+01  0.10162834587E+01 0.  0.
     999903    2    3    3    0    0  0.98376324161E-01  0.77969836906E-01  0.20980349610E-01  0.12859901914E+00  0.18448198592E-01 0.  0.
         14    1    1    2    0    0  0.69469644641E-02 -0.22365017600E-01 -0.13991749273E-01  0.27280457753E-01  0.00000000000E+00 0. -1.
     999901    1    3    3    0    0 -0.10532328863E+00 -0.55604819306E-01 -0.69886003362E-02  0.88805052311E+00  0.88000000000E+00 0. -1.
        -11    1    4    4    0    0  0.14286533523E-01  0.19712996207E-01  0.10334648000E-02  0.24372862574E-01  0.51100000000E-03 0.  1.
         11    1    4    4    0    0  0.84089790638E-01  0.58256840699E-01  0.19946884810E-01  0.10422615657E+00  0.51100000000E-03 0. -1.
</event>
<event>
 8    1  0.1088270E+005  0.1043930E+01  0.7957747E-01            NaN
         13   -1    0    0    0    0  0.00000000000E+00  0.00000000000E+00  0.74505805969E-08  0.10566000000E+00  0.10566000000E+00 0.  1.
     999900   -1    0    0    0    0 -0.00000000000E+00 -0.00000000000E+00 -0.74505805969E-08  0.93827000000E+00  0.93827000000E+00 0. -1.
     999902    2    1    2    0    0  0.78789291097E-02 -0.12861383133E-01  0.20040551022E-01  0.10188478074E+01  0.10185390215E+01 0.  0.
     999903    2    3    3    0    0  0.45980899809E-01  0.97925938661E-02 -0.11660734229E+00  0.12719899224E+00  0.19291793827E-01 0.  0.
         14    1    1    2    0    0 -0.78789291097E-02  0.12861383133E-01 -0.20040551022E-01  0.25082192593E-01  0.00000000000E+00 0.  1.
     999901    1    3    3    0    0 -0.38101970699E-01 -0.22653976999E-01  0.13664789331E+00  0.89164881517E+00  0.88000000000E+00 0.  1.
        -11    1    4    4    0    0  0.14745425687E-01  0.11474982989E-01 -0.55251840992E-01  0.58327779550E-01  0.51100000000E-03 0.  1.
         11    1    4    4    0    0  0.31235474122E-01 -0.16823891227E-02 -0.61355501297E-01  0.68871212688E-01  0.51100000000E-03 0. -1.
</event>
<event>
 8    1  0.1088270E+005  0.1043930E+01  0.7957747E-01            NaN
         13   -1    0    0    0    0  0.00000000000E+00  0.00000000000E+00  0.74505805969E-08  0.10566000000E+00  0.10566000000E+00 0. -1.
     999900   -1    0    0    0    0 -0.00000000000E+00 -0.00000000000E+00 -0.74505805969E-08  0.93827000000E+00  0.93827000000E+00 0.  1.
     999902    2    1    2    0    0  0.57441036194E-02 -0.24322241389E-01 -0.59150682086E-02  0.10182482130E+01  0.10179242944E+01 0.  0.
     999903    2    3    3    0    0 -0.22607182198E-01 -0.83211666228E-01  0.95460882705E-01  0.13002028999E+00  0.18900518452E-01 0.  0.
         14    1    1    2    0    0 -0.57441036194E-02  0.24322241389E-01  0.59150682086E-02  0.25681787019E-01  0.00000000000E+00 0.  1.
     999901    1    3    3    0    0  0.28351285817E-01  0.58889424839E-01 -0.10137595091E+00  0.88822792300E+00  0.88000000000E+00 0.  1.
        -11    1    4    4    0    0 -0.13768671562E-01 -0.34728346674E-01  0.53717827426E-01  0.65433175711E-01  0.51100000000E-03 0.  1.
         11    1    4    4    0    0 -0.88385106356E-02 -0.48483319555E-01  0.41743055279E-01  0.64587114274E-01  0.51100000000E-03 0. -1.
</event>
<event>
 8    1  0.1088270E+005  0.1043930E+01  0.7957747E-01            NaN
         13   -1    0    0    0    0  0.00000000000E+00  0.00000000000E+00  0.74505805969E-08  0.10566000000E+00  0.10566000000E+00 0.  1.
     999900   -1    0    0    0    0 -0.00000000000E+00 -0.00000000000E+00 -0.74505805969E-08  0.93827000000E+00  0.93827000000E+00 0.  1.
     999902    2    1    2    0    0 -0.21465800370E-01  0.98737922958E-02 -0.78023711702E-02  0.10190472880E+01  0.10187434544E+01 0.  0.
     999903    2    3    3    0    0 -0.11917271316E+00  0.45768230322E-01  0.28090642612E-01  0.13218576561E+00  0.19675516705E-01 0.  0.
         14    1    1    2    0    0  0.21465800370E-01 -0.98737922958E-02  0.78023711702E-02  0.24882711985E-01  0.00000000000E+00 0.  1.
     999901    1    3    3    0    0  0.97706912792E-01 -0.35894438026E-01 -0.35893013782E-01  0.88686152241E+00  0.88000000000E+00 0.  1.
        -11    1    4    4    0    0 -0.79020681813E-01  0.26764761258E-01  0.27193462760E-01  0.87751730110E-01  0.51100000000E-03 0. -1.
         11    1    4    4    0    0 -0.40152031350E-01  0.19003469064E-01  0.89717985263E-03  0.44434035498E-01  0.51100000000E-03 0.  1.
</event>
<event>
 8    1  0.1088270E+005  0.1043930E+01  0.7957747E-01            NaN
         13   -1    0    0    0    0  0.00000000000E+00  0.00000000000E+00  0.74505805969E-08  0.10566000000E+00  0.10566000000E+00 0.  1.
     999900   -1    0    0    0    0 -0.00000000000E+00 -0.00000000000E+00 -0.74505805969E-08  0.93827000000E+00  0.93827000000E+00 0.  1.
     999902    2    1    2    0    0 -0.93423005573E-02  0.37716342579E-02 -0.14429509107E-01  0.10263312916E+01  0.10261803962E+01 0.  0.
     999903    2    3    3    0    0 -0.28122053925E-01  0.62979858628E-01 -0.11792072489E+00  0.13809217698E+00  0.20170262135E-01 0.  0.
         14    1    1    2    0    0  0.93423005573E-02 -0.37716342579E-02  0.14429509107E-01  0.17598708411E-01  0.00000000000E+00 0. -1.
     999901    1    3    3    0    0  0.18779753368E-01 -0.59208224370E-01  0.10349121579E+00  0.88823911461E+00  0.88000000000E+00 0. -1.
        -11    1    4    4    0    0 -0.21862077924E-01  0.33432368300E-01 -0.51949155063E-01  0.65533575624E-01  0.51100000000E-03 0.  1.
         11    1    4    4    0    0 -0.62599760014E-02  0.29547490328E-01 -0.65971569832E-01  0.72558601360E-01  0.51100000000E-03 0. -1.
</event>
<event>
 8    1  0.1088270E+005  0.1043930E+01  0.7957747E-01            NaN
         13   -1    0    0    0    0  0.00000000000E+00  0.00000000000E+00  0.74505805969E-08  0.10566000000E+00  0.10566000000E+00 0. -1.
     999900   -1    0    0    0    0 -0.00000000000E+00 -0.00000000000E+00 -0.74505805969E-08  0.93827000000E+00  0.93827000000E+00 0. -1.
     999902    2    1    2    0    0 -0.95167164247E-02  0.10361522879E-01  0.14701472895E-01  0.10235814779E+01  0.10233791963E+01 0.  0.
     999903    2    3    3    0    0 -0.48974113177E-01  0.79399461359E-01  0.97090218230E-01  0.13616329658E+00  0.20277934678E-01 0.  0.
         14    1    1    2    0    0  0.95167164247E-02 -0.10361522879E-01 -0.14701472895E-01  0.20348522137E-01  0.00000000000E+00 0.  1.
     999901    1    3    3    0    0  0.39457396753E-01 -0.69037938480E-01 -0.82388745334E-01  0.88741818128E+00  0.88000000000E+00 0. -1.
        -11    1    4    4    0    0 -0.26305500043E-01  0.57986550548E-01  0.57775384173E-01  0.85980669422E-01  0.51100000000E-03 0.  1.
         11    1    4    4    0    0 -0.22668613134E-01  0.21412910811E-01  0.39314834057E-01  0.50182627161E-01  0.51100000000E-03 0. -1.
</event>
<event>
 8    1  0.1088270E+005  0.1043930E+01  0.7957747E-01            NaN
         13   -1    0    0    0    0  0.00000000000E+00  0.00000000000E+00  0.74505805969E-08  0.10566000000E+00  0.10566000000E+00 0. -1.
     999900   -1    0    0    0    0 -0.00000000000E+00 -0.00000000000E+00 -0.74505805969E-08  0.93827000000E+00  0.93827000000E+00 0. -1.
     999902    2    1    2    0    0  0.16400607448E-01  0.14032471214E-01 -0.91901418071E-02  0.10204704842E+01  0.10202007941E+01 0.  0.
     999903    2    3    3    0    0  0.10424262692E+00 -0.68051108844E-01  0.36319455550E-01  0.13113080901E+00  0.19460409509E-01 0.  0.
         14    1    1    2    0    0 -0.16400607448E-01 -0.14032471214E-01  0.91901418071E-02  0.23459515755E-01  0.00000000000E+00 0. -1.
     999901    1    3    3    0    0 -0.87842019468E-01  0.82083580058E-01 -0.45509597357E-01  0.88933967524E+00  0.88000000000E+00 0.  1.
        -11    1    4    4    0    0  0.26390071400E-01 -0.27882903736E-01  0.10937382338E-01  0.39922169814E-01  0.51100000000E-03 0. -1.
         11    1    4    4    0    0  0.77852555516E-01 -0.40168205107E-01  0.25382073212E-01  0.91208639193E-01  0.51100000000E-03 0.  1.
</event>
<event>
 8    1  0.1088270E+005  0.1043930E+01  0.7957747E-01            NaN
         13   -1    0    0    0    0  0.00000000000E+00  0.00000000000E+00  0.74505805969E-08  0.10566000000E+00  0.10566000000E+00 0. -1.
     999900   -1    0    0    0    0 -0.00000000000E+00 -0.00000000000E+00 -0.74505805969E-08  0.93827000000E+00  0.93827000000E+00 0. -1.
     999902    2    1    2    0    0 -0.20187816345E-01  0.18511236532E-02  0.14294760949E-01  0.10191244607E+01  0.10188225320E+01 0.  0.
     999903    2    3    3    0    0 -0.10303397816E+00 -0.49607637182E-01  0.63980198722E-01  0.13234369114E+00  0.18559860868E-01 0.  0.
         14    1    1    2    0    0  0.20187816345E-01 -0.18511236532E-02 -0.14294760949E-01  0.24805539263E-01  0.00000000000E+00 0.  1.
     999901    1    3    3    0    0  0.82846161812E-01  0.51458760836E-01 -0.49685437774E-01  0.88678076959E+00  0.88000000000E+00 0. -1.
        -11    1    4    4    0    0 -0.31709585885E-01 -0.61046249725E-02  0.18569020164E-01  0.37253642962E-01  0.51100000000E-03 0. -1.
         11    1    4    4    0    0 -0.71324392271E-01 -0.43503012210E-01  0.45411178558E-01  0.95090048182E-01  0.51100000000E-03 0.  1.
</event>
<event>
 8    1  0.1088270E+005  0.1043930E+01  0.7957747E-01            NaN
         13   -1    0    0    0    0  0.00000000000E+00  0.00000000000E+00  0.74505805969E-08  0.10566000000E+00  0.10566000000E+00 0.  1.
     999900   -1    0    0    0    0 -0.00000000000E+00 -0.00000000000E+00 -0.74505805969E-08  0.93827000000E+00  0.93827000000E+00 0.  1.
     999902    2    1    2    0    0 -0.14587313781E-01 -0.16033489706E-01  0.86650230843E-03  0.10222363756E+01  0.10220061615E+01 0.  0.
     999903    2    3    3    0    0 -0.88639887282E-01  0.65840530053E-02 -0.97322401492E-01  0.13339645874E+00  0.20556896695E-01 0.  0.
         14    1    1    2    0    0  0.14587313781E-01  0.16033489706E-01 -0.86650230843E-03  0.21693624450E-01  0.00000000000E+00 0. -1.
     999901    1    3    3    0    0  0.74052573501E-01 -0.22617542712E-01  0.98188903801E-01  0.88883991681E+00  0.88000000000E+00 0. -1.
        -11    1    4    4    0    0 -0.50530816265E-01  0.21901462266E-02 -0.40314740346E-01  0.64681523970E-01  0.51100000000E-03 0. -1.
         11    1    4    4    0    0 -0.38109071017E-01  0.43939067787E-02 -0.57007661146E-01  0.68714934773E-01  0.51100000000E-03 0.  1.
</event>
<event>
 7    1  0.1088270E+005  0.1043930E+01  0.7957747E-01            NaN
         13   -1    0    0    0    0  0.00000000000E+00  0.00000000000E+00  0.74505805969E-08  0.10566000000E+00  0.10566000000E+00 0.  1.
     999900   -1    0    0    0    0 -0.00000000000E+00 -0.00000000000E+00 -0.74505805969E-08  0.93827000000E+00  0.93827000000E+00 0. -1.
     999903    2    1    2    0    0  0.86165968700E-01  0.43022499240E-01  0.62354753523E-01  0.11641559584E+00  0.19722222645E-01 0.  0.
         14    1    1    2    0    0 -0.37430361702E-02 -0.12966897173E-01 -0.40708146823E-01  0.42887107152E-01  0.00000000000E+00 0. -1.
     999901    1    1    2    0    0 -0.82422932529E-01 -0.30055602067E-01 -0.21646606700E-01  0.88462729700E+00  0.88000000000E+00 0. -1.
        -11    1    3    3    0    0  0.12632953462E-01  0.81750348931E-02  0.18906086649E-01  0.24168656191E-01  0.51100000000E-03 0.  1.
         11    1    3    3    0    0  0.73533015238E-01  0.34847464347E-01  0.43448666874E-01  0.92246939654E-01  0.51100000000E-03 0. -1.
</event>
<event>
 8    1  0.1088270E+005  0.1043930E+01  0.7957747E-01            NaN
         13   -1    0    0    0    0  0.00000000000E+00  0.00000000000E+00  0.74505805969E-08  0.10566000000E+00  0.10566000000E+00 0. -1.
     999900   -1    0    0    0    0 -0.00000000000E+00 -0.00000000000E+00 -0.74505805969E-08  0.93827000000E+00  0.93827000000E+00 0. -1.
     999902    2    1    2    0    0 -0.21578347343E-01 -0.95093836955E-02 -0.26413554751E-02  0.10202017424E+01  0.10199257644E+01 0.  0.
     999903    2    3    3    0    0  0.21202050329E-01  0.11578313694E+00 -0.49168833298E-01  0.12908267940E+00  0.19735810506E-01 0.  0.
         14    1    1    2    0    0  0.21578347343E-01  0.95093836955E-02  0.26413554751E-02  0.23728257649E-01  0.00000000000E+00 0. -1.
     999901    1    3    3    0    0 -0.42780397672E-01 -0.12529252064E+00  0.46527477823E-01  0.89111906295E+00  0.88000000000E+00 0. -1.
        -11    1    4    4    0    0 -0.10991825872E-02  0.21407172135E-01 -0.29093133232E-02  0.21637939971E-01  0.51100000000E-03 0. -1.
         11    1    4    4    0    0  0.22301232916E-01  0.94375964807E-01 -0.46259519975E-01  0.10744473943E+00  0.51100000000E-03 0.  1.
</event>
<event>
 7    1  0.1088270E+005  0.1043930E+01  0.7957747E-01            NaN
         13   -1    0    0    0    0  0.00000000000E+00  0.00000000000E+00  0.74505805969E-08  0.10566000000E+00  0.10566000000E+00 0.  1.
     999900   -1    0    0    0    0 -0.00000000000E+00 -0.00000000000E+00 -0.74505805969E-08  0.93827000000E+00  0.93827000000E+00 0.  1.
     999903    2    1    2    0    0  0.22303040958E-01 -0.56421026034E-01  0.25269084113E-01  0.68537374263E-01  0.19444465645E-01 0.  0.
         14    1    1    2    0    0 -0.47108788658E-01  0.35114612600E-01  0.67990363554E-01  0.89860800814E-01  0.00000000000E+00 0.  1.
     999901    1    1    2    0    0  0.24805747700E-01  0.21306413434E-01 -0.93259447666E-01  0.88553182492E+00  0.88000000000E+00 0.  1.
        -11    1    3    3    0    0  0.12063757407E-01 -0.11790224559E-01  0.14992305394E-02  0.16942622322E-01  0.51100000000E-03 0. -1.
         11    1    3    3    0    0  0.10239283551E-01 -0.44630801475E-01  0.23769853573E-01  0.51594751941E-01  0.51100000000E-03 0.  1.
</event>
<event>
 8    1  0.1088270E+005  0.1043930E+01  0.7957747E-01            NaN
         13   -1    0    0    0    0  0.00000000000E+00  0.00000000000E+00  0.74505805969E-08  0.10566000000E+00  0.10566000000E+00 0.  1.
     999900   -1    0    0    0    0 -0.00000000000E+00 -0.00000000000E+00 -0.74505805969E-08  0.93827000000E+00  0.93827000000E+00 0. -1.
     999902    2    1    2    0    0 -0.19825330829E-01  0.13374894169E-01 -0.47317335736E-02  0.10195513036E+01  0.10192597999E+01 0.  0.
     999903    2    3    3    0    0 -0.77985579849E-01 -0.63733079834E-01 -0.81670028470E-01  0.13093003699E+00  0.18139043677E-01 0.  0.
         14    1    1    2    0    0  0.19825330829E-01 -0.13374894169E-01  0.47317335736E-02  0.24378696420E-01  0.00000000000E+00 0.  1.
     999901    1    3    3    0    0  0.58160249020E-01  0.77107974003E-01  0.76938294897E-01  0.88862126659E+00  0.88000000000E+00 0.  1.
        -11    1    4    4    0    0 -0.40284204479E-01 -0.42446458910E-01 -0.53370414883E-01  0.79203417289E-01  0.51100000000E-03 0. -1.
         11    1    4    4    0    0 -0.37701375369E-01 -0.21286620924E-01 -0.28299613587E-01  0.51726619697E-01  0.51100000000E-03 0.  1.
</event>
<event>
 8    1  0.1088270E+005  0.1043930E+01  0.7957747E-01            NaN
         13   -1    0    0    0    0  0.00000000000E+00  0.00000000000E+00  0.74505805969E-08  0.10566000000E+00  0.10566000000E+00 0. -1.
     999900   -1    0    0    0    0 -0.00000000000E+00 -0.00000000000E+00 -0.74505805969E-08  0.93827000000E+00  0.93827000000E+00 0.  1.
     999902    2    1    2    0    0  0.21055367563E-01  0.96177975260E-03  0.11121307443E-01  0.10200985711E+01  0.10198201595E+01 0.  0.
     999903    2    3    3    0    0  0.63014926281E-01 -0.21714497951E-01  0.11234211296E+00  0.13301319213E+00  0.25087020174E-01 0.  0.
         14    1    1    2    0    0 -0.21055367563E-01 -0.96177975260E-03 -0.11121307443E-01  0.23831428886E-01  0.00000000000E+00 0.  1.
     999901    1    3    3    0    0 -0.41959558718E-01  0.22676277704E-01 -0.10122080552E+00  0.88708537898E+00  0.88000000000E+00 0.  1.
        -11    1    4    4    0    0  0.44797828539E-01 -0.24007160552E-01  0.95048315639E-01  0.10778512247E+00  0.51100000000E-03 0. -1.
         11    1    4    4    0    0  0.18217097741E-01  0.22926626011E-02  0.17293797320E-01  0.25228069658E-01  0.51100000000E-03 0.  1.
</event>
<event>
 8    1  0.1088270E+005  0.1043930E+01  0.7957747E-01            NaN
         13   -1    0    0    0    0  0.00000000000E+00  0.00000000000E+00  0.74505805969E-08  0.10566000000E+00  0.10566000000E+00 0. -1.
     999900   -1    0    0    0    0 -0.00000000000E+00 -0.00000000000E+00 -0.74505805969E-08  0.93827000000E+00  0.93827000000E+00 0.  1.
     999902    2    1    2    0    0 -0.79429431245E-02  0.19281267812E-01  0.11239432209E-01  0.10202407098E+01  0.10199656482E+01 0.  0.
     999903    2    3    3    0    0 -0.85824500896E-01 -0.88602408188E-01  0.35470009831E-01  0.12990844290E+00  0.20046202839E-01 0.  0.
         14    1    1    2    0    0  0.79429431245E-02 -0.19281267812E-01 -0.11239432209E-01  0.23689290202E-01  0.00000000000E+00 0. -1.
     999901    1    3    3    0    0  0.77881557772E-01  0.10788367600E+00 -0.24230577623E-01  0.89033226690E+00  0.88000000000E+00 0.  1.
        -11    1    4    4    0    0 -0.57824026002E-01 -0.70850954859E-01  0.21616328996E-01  0.93973414260E-01  0.51100000000E-03 0. -1.
         11    1    4    4    0    0 -0.28000474894E-01 -0.17751453330E-01  0.13853680835E-01  0.35935028639E-01  0.51100000000E-03 0.  1.
</event>
<event>
 8    1  0.1088270E+005  0.1043930E+01  0.7957747E-01            NaN
         13   -1    0    0    0    0  0.00000000000E+00  0.00000000000E+00  0.74505805969E-08  0.10566000000E+00  0.10566000000E+00 0.  1.
     999900   -1    0    0    0    0 -0.00000000000E+00 -0.00000000000E+00 -0.74505805969E-08  0.93827000000E+00  0.93827000000E+00 0. -1.
     999902    2    1    2    0    0  0.16073300185E-01  0.19382449684E-02  0.17827761728E-01  0.10198481217E+01  0.10195637570E+01 0.  0.
     999903    2    3    3    0    0 -0.28940270237E-01 -0.76807006639E-01  0.10030022035E+00  0.13135009551E+00  0.21350828558E-01 0.  0.
         14    1    1    2    0    0 -0.16073300185E-01 -0.19382449684E-02 -0.17827761728E-01  0.24081878262E-01  0.00000000000E+00 0. -1.
     999901    1    3    3    0    0  0.45013570422E-01  0.78745251607E-01 -0.82472458617E-01  0.88849802622E+00  0.88000000000E+00 0.  1.
        -11    1    4    4    0    0 -0.15060525890E-01 -0.63651987839E-01  0.81804656627E-01  0.10474090874E+00  0.51100000000E-03 0.  1.
         11    1    4    4    0    0 -0.13879744346E-01 -0.13155018799E-01  0.18495563718E-01  0.26609186778E-01  0.51100000000E-03 0. -1.
</event>
<event>
 8    1  0.1088270E+005  0.1043930E+01  0.7957747E-01            NaN
         13   -1    0    0    0    0  0.00000000000E+00  0.00000000000E+00  0.74505805969E-08  0.10566000000E+00  0.10566000000E+00 0. -1.
     999900   -1    0    0    0    0 -0.00000000000E+00 -0.00000000000E+00 -0.74505805969E-08  0.93827000000E+00  0.93827000000E+00 0.  1.
     999902    2    1    2    0    0  0.11597807593E-01  0.41576170986E-02  0.19029492115E-01  0.10212602737E+01  0.10210086337E+01 0.  0.
     999903    2    3    3    0    0 -0.86688735147E-01  0.57477236620E-01 -0.73779517566E-01  0.12934282314E+00  0.21623578692E-01 0.  0.
         14    1    1    2    0    0 -0.11597807593E-01 -0.41576170986E-02 -0.19029492115E-01  0.22669726312E-01  0.00000000000E+00 0. -1.
     999901    1    3    3    0    0  0.98286542740E-01 -0.53319619521E-01  0.92809009681E-01  0.89191745055E+00  0.88000000000E+00 0. -1.
        -11    1    4    4    0    0 -0.44653531130E-01  0.42189631320E-01 -0.40362623419E-01  0.73507178721E-01  0.51100000000E-03 0.  1.
         11    1    4    4    0    0 -0.42035204017E-01  0.15287605300E-01 -0.33416894147E-01  0.55835644421E-01  0.51100000000E-03 0. -1.
</event>
<event>
 8    1  0.1088270E+005  0.1043930E+01  0.7957747E-01            NaN
         13   -1    0    0    0    0  0.00000000000E+00  0.00000000000E+00  0.74505805969E-08  0.10566000000E+00  0.10566000000E+00 0. -1.
     999900   -1    0    0    0    0 -0.00000000000E+00 -0.00000000000E+00 -0.74505805969E-08  0.93827000000E+00  0.93827000000E+00 0.  1.
     999902    2    1    2    0    0 -0.10407938782E-01  0.20464117734E-01  0.61485820909E-02  0.10201621569E+01  0.10198852465E+01 0.  0.
     999903    2    3    3    0    0 -0.10339930818E+00 -0.27000034289E-01  0.73708262826E-01  0.13141891446E+00  0.20435368455E-01 0.  0.
         14    1    1    2    0    0  0.10407938782E-01 -0.20464117734E-01 -0.61485820909E-02  0.23767843108E-01  0.00000000000E+00 0.  1.
     999901    1    3    3    0    0  0.92991369403E-01  0.47464152023E-01 -0.67559680735E-01  0.88874324243E+00  0.88000000000E+00 0.  1.
        -11    1    4    4    0    0 -0.47749036002E-01 -0.20460793330E-01  0.27451628267E-01  0.58757701778E-01  0.51100000000E-03 0.  1.
         11    1    4    4    0    0 -0.55650272182E-01 -0.65392409590E-02  0.46256634559E-01  0.72661212679E-01  0.51100000000E-03 0. -1.
</event>
<event>
 8    1  0.1088270E+005  0.1043930E+01  0.7957747E-01            NaN
         13   -1    0    0    0    0  0.00000000000E+00  0.00000000000E+00  0.74505805969E-08  0.10566000000E+00  0.10566000000E+00 0. -1.
     999900   -1    0    0    0    0 -0.00000000000E+00 -0.00000000000E+00 -0.74505805969E-08  0.93827000000E+00  0.93827000000E+00 0. -1.
     999902    2    1    2    0    0  0.68435374438E-02 -0.27556983289E-01 -0.22694691345E-03  0.10155350561E+01  0.10151380090E+01 0.  0.
     999903    2    3    3    0    0  0.10680214814E+00  0.41681537327E-01 -0.47773674415E-01  0.12590232972E+00  0.20616092276E-01 0.  0.
         14    1    1    2    0    0 -0.68435374438E-02  0.27556983289E-01  0.22694691345E-03  0.28394943874E-01  0.00000000000E+00 0.  1.
     999901    1    3    3    0    0 -0.99958610699E-01 -0.69238520616E-01  0.47546727502E-01  0.88963272640E+00  0.88000000000E+00 0.  1.
        -11    1    4    4    0    0  0.77664124023E-01  0.26250961229E-01 -0.43025616232E-01  0.92586683162E-01  0.51100000000E-03 0. -1.
         11    1    4    4    0    0  0.29138024120E-01  0.15430576098E-01 -0.47480581837E-02  0.33315646562E-01  0.51100000000E-03 0.  1.
</event>
<event>
 8    1  0.1088270E+005  0.1043930E+01  0.7957747E-01            NaN
         13   -1    0    0    0    0  0.00000000000E+00  0.00000000000E+00  0.74505805969E-08  0.10566000000E+00  0.10566000000E+00 0. -1.
     999900   -1    0    0    0    0 -0.00000000000E+00 -0.00000000000E+00 -0.74505805969E-08  0.93827000000E+00  0.93827000000E+00 0.  1.
     999902    2    1    2    0    0 -0.20785470918E-01  0.10900956010E-01 -0.39994336792E-02  0.10201211337E+01  0.10198432553E+01 0.  0.
     999903    2    3    3    0    0  0.57073912433E-01 -0.11293504550E+00  0.17278558974E-02  0.12802795435E+00  0.19401433635E-01 0.  0.
         14    1    1    2    0    0  0.20785470918E-01 -0.10900956010E-01  0.39994336792E-02  0.23808866268E-01  0.00000000000E+00 0. -1.
     999901    1    3    3    0    0 -0.77859383351E-01  0.12383600151E+00 -0.57272895767E-02  0.89209317938E+00  0.88000000000E+00 0.  1.
        -11    1    4    4    0    0  0.35164970285E-01 -0.48749774152E-01  0.30921332031E-02  0.60190846678E-01  0.51100000000E-03 0.  1.
         11    1    4    4    0    0  0.21908942148E-01 -0.64185271350E-01 -0.13642773057E-02  0.67837107677E-01  0.51100000000E-03 0. -1.
</event>
<event>
 8    1  0.1088270E+005  0.1043930E+01  0.7957747E-01            NaN
         13   -1    0    0    0    0  0.00000000000E+00  0.00000000000E+00  0.74505805969E-08  0.10566000000E+00  0.10566000000E+00 0.  1.
     999900   -1    0    0    0    0 -0.00000000000E+00 -0.00000000000E+00 -0.74505805969E-08  0.93827000000E+00  0.93827000000E+00 0. -1.
     999902    2    1    2    0    0  0.14566873577E-01 -0.17839898003E-01  0.31836569031E-02  0.10206793777E+01  0.10204145239E+01 0.  0.
     999903    2    3    3    0    0  0.80835347328E-01  0.49774080088E-01  0.88747712235E-01  0.13147503210E+00  0.19942798523E-01 0.  0.
         14    1    1    2    0    0 -0.14566873577E-01  0.17839898003E-01 -0.31836569031E-02  0.23250622311E-01  0.00000000000E+00 0. -1.
     999901    1    3    3    0    0 -0.66268473751E-01 -0.67613978091E-01 -0.85564055332E-01  0.88920434559E+00  0.88000000000E+00 0. -1.
        -11    1    4    4    0    0  0.25945299891E-01  0.26698583076E-01  0.38546495834E-01  0.53591663408E-01  0.51100000000E-03 0. -1.
         11    1    4    4    0    0  0.54890047437E-01  0.23075497011E-01  0.50201216401E-01  0.77883368694E-01  0.51100000000E-03 0.  1.
</event>
<event>
 8    1  0.1088270E+005  0.1043930E+01  0.7957747E-01            NaN
         13   -1    0    0    0    0  0.00000000000E+00  0.00000000000E+00  0.74505805969E-08  0.10566000000E+00  0.10566000000E+00 0.  1.
     999900   -1    0    0    0    0 -0.00000000000E+00 -0.00000000000E+00 -0.74505805969E-08  0.93827000000E+00  0.93827000000E+00 0.  1.
     999902    2    1    2    0    0  0.14455352802E-01  0.54470950393E-03 -0.18653422072E-01  0.10203248292E+01  0.10200517404E+01 0.  0.
     999903    2    3    3    0    0  0.10615922749E+00  0.34183249435E-01  0.65382179807E-01  0.13094125932E+00  0.20796822703E-01 0.  0.
         14    1    1    2    0    0 -0.14455352802E-01 -0.54470950393E-03  0.18653422072E-01  0.23605170790E-01  0.00000000000E+00 0.  1.
     999901    1    3    3    0    0 -0.91703874684E-01 -0.33638539931E-01 -0.84035601879E-01  0.88938356989E+00  0.88000000000E+00 0.  1.
        -11    1    4    4    0    0  0.86110032150E-02  0.62842938602E-02  0.12796695794E-01  0.16663081046E-01  0.51100000000E-03 0. -1.
         11    1    4    4    0    0  0.97548224270E-01  0.27898955575E-01  0.52585484013E-01  0.11427817828E+00  0.51100000000E-03 0.  1.
</event>
<event>
 8    1  0.1088270E+005  0.1043930E+01  0.7957747E-01            NaN
         13   -1    0    0    0    0  0.00000000000E+00  0.00000000000E+00  0.74505805969E-08  0.10566000000E+00  0.10566000000E+00 0.  1.
     999900   -1    0    0    0    0 -0.00000000000E+00 -0.00000000000E+00 -0.74505805969E-08  0.93827000000E+00  0.93827000000E+00 0. -1.
     999902    2    1    2    0    0 -0.82657360683E-02  0.10128521915E-01 -0.20421614225E-01  0.10196822851E+01  0.10193939430E+01 0.  0.
     999903    2    3    3    0    0  0.54929614107E-01 -0.17310099623E-01  0.11152300478E+00  0.12718247408E+00  0.20520698398E-01 0.  0.
         14    1    1    2    0    0  0.82657360683E-02 -0.10128521915E-01  0.20421614225E-01  0.24247714871E-01  0.00000000000E+00 0.  1.
     999901    1    3    3    0    0 -0.63195350175E-01  0.27438621538E-01 -0.13194461901E+00  0.89249981105E+00  0.88000000000E+00 0. -1.
        -11    1    4    4    0    0  0.36574537807E-01 -0.19669213779E-02  0.75781015215E-01  0.84170000496E-01  0.51100000000E-03 0. -1.
         11    1    4    4    0    0  0.18355076300E-01 -0.15343178245E-01  0.35741989567E-01  0.43012473585E-01  0.51100000000E-03 0.  1.
</event>
<event>
 8    1  0.1088270E+005  0.1043930E+01  0.7957747E-01            NaN
         13   -1    0    0    0    0  0.00000000000E+00  0.00000000000E+00  0.74505805969E-08  0.10566000000E+00  0.10566000000E+00 0.  1.
     999900   -1    0    0    0    0 -0.00000000000E+00 -0.00000000000E+00 -0.74505805969E-08  0.93827000000E+00  0.93827000000E+00 0.  1.
     999902    2    1    2    0    0 -0.83477866676E-02 -0.14210158763E-01 -0.17219218486E-01  0.10200948235E+01  0.10198163233E+01 0.  0.
     999903    2    3    3    0    0 -0.21872295192E-01 -0.66320855332E-01  0.10708801142E+00  0.12972932301E+00  0.22022758883E-01 0.  0.
         14    1    1    2    0    0  0.83477866676E-02  0.14210158763E-01  0.17219218486E-01  0.23835176517E-01  0.00000000000E+00 0.  1.
     999901    1    3    3    0    0  0.13524508524E-01  0.52110696569E-01 -0.12430722991E+00  0.89036550047E+00  0.88000000000E+00 0.  1.
        -11    1    4    4    0    0 -0.22291869083E-01 -0.32905209117E-01  0.60648485584E-01  0.72513310081E-01  0.51100000000E-03 0.  1.
         11    1    4    4    0    0  0.41957389104E-03 -0.33415646215E-01  0.46439525838E-01  0.57216012927E-01  0.51100000000E-03 0. -1.
</event>
<event>
 8    1  0.1088270E+005  0.1043930E+01  0.7957747E-01            NaN
         13   -1    0    0    0    0  0.00000000000E+00  0.00000000000E+00  0.74505805969E-08  0.10566000000E+00  0.10566000000E+00 0. -1.
     999900   -1    0    0    0    0 -0.00000000000E+00 -0.00000000000E+00 -0.74505805969E-08  0.93827000000E+00  0.93827000000E+00 0.  1.
     999902    2    1    2    0    0  0.18165018993E-01 -0.87825147505E-02 -0.11865400680E-01  0.10205229879E+01  0.10202545176E+01 0.  0.
     999903    2    3    3    0    0  0.48520893440E-01  0.73161967799E-01  0.93697423817E-01  0.12991651634E+00  0.19802609829E-01 0.  0.
         14    1    1    2    0    0 -0.18165018993E-01  0.87825147505E-02  0.11865400680E-01  0.23407012061E-01  0.00000000000E+00 0. -1.
     999901    1    3    3    0    0 -0.30355874448E-01 -0.81944482550E-01 -0.10556282450E+00  0.89060647160E+00  0.88000000000E+00 0.  1.
        -11    1    4    4    0    0  0.15959106865E-01  0.21300663290E-01  0.42241058360E-01  0.49929745452E-01  0.51100000000E-03 0.  1.
         11    1    4    4    0    0  0.32561786575E-01  0.51861304510E-01  0.51456365457E-01  0.79986770890E-01  0.51100000000E-03 0. -1.
</event>
<event>
 8    1  0.1088270E+005  0.1043930E+01  0.7957747E-01            NaN
         13   -1    0    0    0    0  0.00000000000E+00  0.00000000000E+00  0.74505805969E-08  0.10566000000E+00  0.10566000000E+00 0.  1.
     999900   -1    0    0    0    0 -0.00000000000E+00 -0.00000000000E+00 -0.74505805969E-08  0.93827000000E+00  0.93827000000E+00 0.  1.
     999902    2    1    2    0    0 -0.10853815530E-01 -0.28876096546E-02 -0.26163053039E-01  0.10154581025E+01  0.10150588697E+01 0.  0.
     999903    2    3    3    0    0  0.37372709437E-01 -0.11471722523E+00  0.27575219570E-01  0.12544716857E+00  0.20489953469E-01 0.  0.
         14    1    1    2    0    0  0.10853815530E-01  0.28876096546E-02  0.26163053039E-01  0.28471897468E-01  0.00000000000E+00 0.  1.
     999901    1    3    3    0    0 -0.48226524967E-01  0.11182961557E+00 -0.53738272610E-01  0.89001093396E+00  0.88000000000E+00 0.  1.
        -11    1    4    4    0    0  0.13837038817E-01 -0.74492069429E-01  0.16614110282E-01  0.77568175385E-01  0.51100000000E-03 0. -1.
         11    1    4    4    0    0  0.23535670620E-01 -0.40225155799E-01  0.10961109288E-01  0.47878993185E-01  0.51100000000E-03 0.  1.
</event>
<event>
 8    1  0.1088270E+005  0.1043930E+01  0.7957747E-01            NaN
         13   -1    0    0    0    0  0.00000000000E+00  0.00000000000E+00  0.74505805969E-08  0.10566000000E+00  0.10566000000E+00 0.  1.
     999900   -1    0    0    0    0 -0.00000000000E+00 -0.00000000000E+00 -0.74505805969E-08  0.93827000000E+00  0.93827000000E+00 0. -1.
     999902    2    1    2    0    0 -0.14053129145E-01  0.10329433390E-02  0.19226169618E-01  0.10200929908E+01  0.10198144472E+01 0.  0.
     999903    2    3    3    0    0 -0.15473271058E-01  0.93893352597E-01 -0.84954110001E-01  0.12909433585E+00  0.19818248254E-01 0.  0.
         14    1    1    2    0    0  0.14053129145E-01 -0.10329433390E-02 -0.19226169618E-01  0.23837009227E-01  0.00000000000E+00 0. -1.
     999901    1    3    3    0    0  0.14201419131E-02 -0.92860409257E-01  0.10418027962E+00  0.89099865492E+00  0.88000000000E+00 0.  1.
        -11    1    4    4    0    0 -0.19580516392E-01  0.71526610807E-01 -0.69141507939E-01  0.10139162646E+00  0.51100000000E-03 0. -1.
         11    1    4    4    0    0  0.41072453333E-02  0.22366741790E-01 -0.15812602062E-01  0.27702709389E-01  0.51100000000E-03 0.  1.
</event>
<event>
 8    1  0.1088270E+005  0.1043930E+01  0.7957747E-01            NaN
         13   -1    0    0    0    0  0.00000000000E+00  0.00000000000E+00  0.74505805969E-08  0.10566000000E+00  0.10566000000E+00 0.  1.
     999900   -1    0    0    0    0 -0.00000000000E+00 -0.00000000000E+00 -0.74505805969E-08  0.93827000000E+00  0.93827000000E+00 0. -1.
     999902    2    1    2    0    0 -0.18595804911E-01  0.65347350331E-02  0.12831189757E-01  0.10204109406E+01  0.10201398638E+01 0.  0.
     999903    2    3    3    0    0 -0.41244583840E-01  0.11944430975E+00 -0.31644746153E-01  0.13179423580E+00  0.20006793929E-01 0.  0.
         14    1    1    2    0    0  0.18595804911E-01 -0.65347350331E-02 -0.12831189757E-01  0.23519059353E-01  0.00000000000E+00 0.  1.
     999901    1    3    3    0    0  0.22648778928E-01 -0.11290957472E+00  0.44475935910E-01  0.88861670484E+00  0.88000000000E+00 0.  1.
        -11    1    4    4    0    0 -0.30951895603E-01  0.10476805447E+00 -0.22024414473E-01  0.11144371240E+00  0.51100000000E-03 0.  1.
         11    1    4    4    0    0 -0.10292688237E-01  0.14676255282E-01 -0.96203316799E-02  0.20350523406E-01  0.51100000000E-03 0. -1.
</event>
<event>
 8    1  0.1088270E+005  0.1043930E+01  0.7957747E-01            NaN
         13   -1    0    0    0    0  0.00000000000E+00  0.00000000000E+00  0.74505805969E-08  0.10566000000E+00  0.10566000000E+00 0.  1.
     999900   -1    0    0    0    0 -0.00000000000E+00 -0.00000000000E+00 -0.74505805969E-08  0.93827000000E+00  0.93827000000E+00 0. -1.
     999902    2    1    2    0    0 -0.45747605463E-02 -0.21378036037E-01 -0.93828291241E-02  0.10201395326E+01  0.10198620885E+01 0.  0.
     999903    2    3    3    0    0 -0.80456580175E-01 -0.55916030972E-01  0.84293757013E-01  0.13124908574E+00  0.22825889336E-01 0.  0.
         14    1    1    2    0    0  0.45747605463E-02  0.21378036037E-01  0.93828291241E-02  0.23790467444E-01  0.00000000000E+00 0.  1.
     999901    1    3    3    0    0  0.75881819629E-01  0.34537994935E-01 -0.93676586137E-01  0.88889044681E+00  0.88000000000E+00 0. -1.
        -11    1    4    4    0    0 -0.27928195193E-01 -0.32472981752E-01  0.40528328615E-01  0.58968510003E-01  0.51100000000E-03 0.  1.
         11    1    4    4    0    0 -0.52528384982E-01 -0.23443049220E-01  0.43765428397E-01  0.72280575740E-01  0.51100000000E-03 0. -1.
</event>
<event>
 8    1  0.1088270E+005  0.1043930E+01  0.7957747E-01            NaN
         13   -1    0    0    0    0  0.00000000000E+00  0.00000000000E+00  0.74505805969E-08  0.10566000000E+00  0.10566000000E+00 0. -1.
     999900   -1    0    0    0    0 -0.00000000000E+00 -0.00000000000E+00 -0.74505805969E-08  0.93827000000E+00  0.93827000000E+00 0. -1.
     999902    2    1    2    0    0  0.18204589760E-01 -0.11787969794E-01 -0.10309314951E-01  0.10199165601E+01  0.10196338285E+01 0.  0.
     999903    2    3    3    0    0 -0.64219013930E-01  0.17604825764E-01 -0.10972017400E+00  0.13000639287E+00  0.20715548859E-01 0.  0.
         14    1    1    2    0    0 -0.18204589760E-01  0.11787969794E-01  0.10309314951E-01  0.24013439882E-01  0.00000000000E+00 0.  1.
     999901    1    3    3    0    0  0.82423603690E-01 -0.29392795558E-01  0.99410859047E-01  0.88991016725E+00  0.88000000000E+00 0.  1.
        -11    1    4    4    0    0 -0.45025437150E-01  0.37147164812E-02 -0.61887155837E-01  0.76624867293E-01  0.51100000000E-03 0. -1.
         11    1    4    4    0    0 -0.19193576780E-01  0.13890109283E-01 -0.47833018160E-01  0.53381525576E-01  0.51100000000E-03 0.  1.
</event>
<event>
 8    1  0.1088270E+005  0.1043930E+01  0.7957747E-01            NaN
         13   -1    0    0    0    0  0.00000000000E+00  0.00000000000E+00  0.74505805969E-08  0.10566000000E+00  0.10566000000E+00 0. -1.
     999900   -1    0    0    0    0 -0.00000000000E+00 -0.00000000000E+00 -0.74505805969E-08  0.93827000000E+00  0.93827000000E+00 0. -1.
     999902    2    1    2    0    0  0.18677095961E-01 -0.11971606482E-02  0.14523248734E-01  0.10202405116E+01  0.10199654453E+01 0.  0.
     999903    2    3    3    0    0  0.88792462809E-01  0.70637427771E-01  0.66509063849E-01  0.13300948321E+00  0.19857477051E-01 0.  0.
         14    1    1    2    0    0 -0.18677095961E-01  0.11971606482E-02 -0.14523248734E-01  0.23689488406E-01  0.00000000000E+00 0.  1.
     999901    1    3    3    0    0 -0.70115366848E-01 -0.71834588420E-01 -0.51985815116E-01  0.88723102839E+00  0.88000000000E+00 0. -1.
        -11    1    4    4    0    0  0.77000891939E-01  0.59964445110E-01  0.48519768063E-01  0.10899220638E+00  0.51100000000E-03 0. -1.
         11    1    4    4    0    0  0.11791570870E-01  0.10672982661E-01  0.17989295786E-01  0.24017276830E-01  0.51100000000E-03 0.  1.
</event>
<event>
 8    1  0.1088270E+005  0.1043930E+01  0.7957747E-01            NaN
         13   -1    0    0    0    0  0.00000000000E+00  0.00000000000E+00  0.74505805969E-08  0.10566000000E+00  0.10566000000E+00 0. -1.
     999900   -1    0    0    0    0 -0.00000000000E+00 -0.00000000000E+00 -0.74505805969E-08  0.93827000000E+00  0.93827000000E+00 0. -1.
     999902    2    1    2    0    0 -0.19163863796E-01  0.14357265902E-02 -0.14797035474E-01  0.10196757788E+01  0.10193872800E+01 0.  0.
     999903    2    3    3    0    0 -0.85065729012E-01 -0.68669125880E-01  0.69212961116E-01  0.13045396976E+00  0.16618578083E-01 0.  0.
         14    1    1    2    0    0  0.19163863796E-01 -0.14357265902E-02  0.14797035474E-01  0.24254221185E-01  0.00000000000E+00 0.  1.
     999901    1    3    3    0    0  0.65901865215E-01  0.70104852470E-01 -0.84009996590E-01  0.88922180906E+00  0.88000000000E+00 0. -1.
        -11    1    4    4    0    0 -0.52988825425E-01 -0.34868434593E-01  0.33461379049E-01  0.71718535677E-01  0.51100000000E-03 0. -1.
         11    1    4    4    0    0 -0.32076903587E-01 -0.33800691287E-01  0.35751582067E-01  0.58735434079E-01  0.51100000000E-03 0.  1.
</event>
<event>
 8    1  0.1088270E+005  0.1043930E+01  0.7957747E-01            NaN
         13   -1    0    0    0    0  0.00000000000E+00  0.00000000000E+00  0.74505805969E-08  0.10566000000E+00  0.10566000000E+00 0.  1.
     999900   -1    0    0    0    0 -0.00000000000E+00 -0.00000000000E+00 -0.74505805969E-08  0.93827000000E+00  0.93827000000E+00 0.  1.
     999902    2    1    2    0    0 -0.89397889600E-02 -0.21329402973E-01 -0.53769321818E-02  0.10201860606E+01  0.10199097135E+01 0.  0.
     999903    2    3    3    0    0  0.10183364933E+00  0.73290871167E-01  0.15314907904E-01  0.12796865260E+00  0.19994642104E-01 0.  0.
         14    1    1    2    0    0  0.89397889600E-02  0.21329402973E-01  0.53769321818E-02  0.23743939385E-01  0.00000000000E+00 0.  1.
     999901    1    3    3    0    0 -0.11077343829E+00 -0.94620274141E-01 -0.20691840085E-01  0.89221740801E+00  0.88000000000E+00 0.  1.
        -11    1    4    4    0    0  0.20572233511E-01  0.59989906377E-02  0.45542921629E-02  0.21913634532E-01  0.51100000000E-03 0.  1.
         11    1    4    4    0    0  0.81261415820E-01  0.67291880530E-01  0.10760615741E-01  0.10605501807E+00  0.51100000000E-03 0. -1.
</event>
<event>
 8    1  0.1088270E+005  0.1043930E+01  0.7957747E-01            NaN
         13   -1    0    0    0    0  0.00000000000E+00  0.00000000000E+00  0.74505805969E-08  0.10566000000E+00  0.10566000000E+00 0. -1.
     999900   -1    0    0    0    0 -0.00000000000E+00 -0.00000000000E+00 -0.74505805969E-08  0.93827000000E+00  0.93827000000E+00 0. -1.
     999902    2    1    2    0    0  0.48437358844E-02 -0.18246388857E-01 -0.11157886039E-01  0.10220007751E+01  0.10217654787E+01 0.  0.
     999903    2    3    3    0    0 -0.89859827460E-01 -0.63177309157E-01  0.70496816623E-01  0.13202603222E+00  0.19872368900E-01 0.  0.
         14    1    1    2    0    0 -0.48437358844E-02  0.18246388857E-01  0.11157886039E-01  0.21929224895E-01  0.00000000000E+00 0. -1.
     999901    1    3    3    0    0  0.94703563345E-01  0.44930920300E-01 -0.81654702662E-01  0.88997474289E+00  0.88000000000E+00 0. -1.
        -11    1    4    4    0    0 -0.36253872842E-01 -0.25621252590E-01  0.17180762025E-01  0.47604953367E-01  0.51100000000E-03 0.  1.
         11    1    4    4    0    0 -0.53605954619E-01 -0.37556056567E-01  0.53316054599E-01  0.84421078851E-01  0.51100000000E-03 0. -1.
</event>
<event>
 8    1  0.1088270E+005  0.1043930E+01  0.7957747E-01            NaN
         13   -1    0    0    0    0  0.00000000000E+00  0.00000000000E+00  0.74505805969E-08  0.10566000000E+00  0.10566000000E+00 0. -1.
     999900   -1    0    0    0    0 -0.00000000000E+00 -0.00000000000E+00 -0.74505805969E-08  0.93827000000E+00  0.93827000000E+00 0.  1.
     999902    2    1    2    0    0  0.12731215476E-02 -0.14423593841E-01 -0.18472570830E-01  0.10204588098E+01  0.10201888480E+01 0.  0.
     999903    2    3    3    0    0  0.68996387804E-01  0.74384002004E-01  0.75962082024E-01  0.12838754943E+00  0.20485205837E-01 0.  0.
         14    1    1    2    0    0 -0.12731215476E-02  0.14423593841E-01  0.18472570830E-01  0.23471190230E-01  0.00000000000E+00 0. -1.
     999901    1    3    3    0    0 -0.67723266256E-01 -0.88807595844E-01 -0.94434652853E-01  0.89207126034E+00  0.88000000000E+00 0.  1.
        -11    1    4    4    0    0  0.15537230856E-01  0.16158389085E-01  0.28215236015E-01  0.36039696792E-01  0.51100000000E-03 0. -1.
         11    1    4    4    0    0  0.53459156948E-01  0.58225612918E-01  0.47746846009E-01  0.92347852634E-01  0.51100000000E-03 0.  1.
</event>
<event>
 8    1  0.1088270E+005  0.1043930E+01  0.7957747E-01            NaN
         13   -1    0    0    0    0  0.00000000000E+00  0.00000000000E+00  0.74505805969E-08  0.10566000000E+00  0.10566000000E+00 0. -1.
     999900   -1    0    0    0    0 -0.00000000000E+00 -0.00000000000E+00 -0.74505805969E-08  0.93827000000E+00  0.93827000000E+00 0.  1.
     999902    2    1    2    0    0  0.61886218161E-02 -0.65457115414E-02 -0.21889643751E-01  0.10202593033E+01  0.10199846783E+01 0.  0.
     999903    2    3    3    0    0  0.46777664724E-01 -0.45806473221E-01 -0.11438917868E+00  0.13361109696E+00  0.21923916745E-01 0.  0.
         14    1    1    2    0    0 -0.61886218161E-02  0.65457115414E-02  0.21889643751E-01  0.23670696718E-01  0.00000000000E+00 0. -1.
     999901    1    3    3    0    0 -0.40589042908E-01  0.39260761679E-01  0.92499534930E-01  0.88664820632E+00  0.88000000000E+00 0. -1.
        -11    1    4    4    0    0  0.18362448320E-02 -0.13084640880E-01 -0.26482597824E-01  0.29600147475E-01  0.51100000000E-03 0.  1.
         11    1    4    4    0    0  0.44941419892E-01 -0.32721832340E-01 -0.87906580857E-01  0.10401094948E+00  0.51100000000E-03 0. -1.
</event>
<event>
 8    1  0.1088270E+005  0.1043930E+01  0.7957747E-01            NaN
         13   -1    0    0    0    0  0.00000000000E+00  0.00000000000E+00  0.74505805969E-08  0.10566000000E+00  0.10566000000E+00 0.  1.
     999900   -1    0    0    0    0 -0.00000000000E+00 -0.00000000000E+00 -0.74505805969E-08  0.93827000000E+00  0.93827000000E+00 0. -1.
     999902    2    1    2    0    0 -0.22988078146E-01 -0.68274678785E-02  0.54179053305E-03  0.10199433456E+01  0.10196612519E+01 0.  0.
     999903    2    3    3    0    0 -0.20793815988E-01 -0.11394945212E+00 -0.58852313064E-01  0.13145722083E+00  0.20013638680E-01 0.  0.
         14    1    1    2    0    0  0.22988078146E-01  0.68274678785E-02 -0.54179053305E-03  0.23986654445E-01  0.00000000000E+00 0.  1.
     999901    1    3    3    0    0 -0.21942621580E-02  0.10712198424E+00  0.59394103597E-01  0.88848612473E+00  0.88000000000E+00 0.  1.
        -11    1    4    4    0    0 -0.67123279965E-02 -0.80761990651E-01 -0.45956063433E-01  0.93165312045E-01  0.51100000000E-03 0. -1.
         11    1    4    4    0    0 -0.14081487992E-01 -0.33187461465E-01 -0.12896249631E-01  0.38291908782E-01  0.51100000000E-03 0.  1.
</event>
<event>
 8    1  0.1088270E+005  0.1043930E+01  0.7957747E-01            NaN
         13   -1    0    0    0    0  0.00000000000E+00  0.00000000000E+00  0.74505805969E-08  0.10566000000E+00  0.10566000000E+00 0.  1.
     999900   -1    0    0    0    0 -0.00000000000E+00 -0.00000000000E+00 -0.74505805969E-08  0.93827000000E+00  0.93827000000E+00 0. -1.
     999902    2    1    2    0    0 -0.22673030930E-02 -0.94331339262E-02  0.21816488439E-01  0.10200535713E+01  0.10197740948E+01 0.  0.
     999903    2    3    3    0    0 -0.74897915816E-01 -0.64339614688E-01 -0.80979082003E-01  0.12940388887E+00  0.20939697254E-01 0.  0.
         14    1    1    2    0    0  0.22673030930E-02  0.94331339262E-02 -0.21816488439E-01  0.23876428686E-01  0.00000000000E+00 0. -1.
     999901    1    3    3    0    0  0.72630612723E-01  0.54906480762E-01  0.10279557044E+00  0.89064968244E+00  0.88000000000E+00 0.  1.
        -11    1    4    4    0    0 -0.46283160248E-01 -0.26270254470E-01 -0.45396320598E-01  0.69952442683E-01  0.51100000000E-03 0.  1.
         11    1    4    4    0    0 -0.28614755567E-01 -0.38069360218E-01 -0.35582761405E-01  0.59451446188E-01  0.51100000000E-03 0. -1.
</event>
<event>
 8    1  0.1088270E+005  0.1043930E+01  0.7957747E-01            NaN
         13   -1    0    0    0    0  0.00000000000E+00  0.00000000000E+00  0.74505805969E-08  0.10566000000E+00  0.10566000000E+00 0. -1.
     999900   -1    0    0    0    0 -0.00000000000E+00 -0.00000000000E+00 -0.74505805969E-08  0.93827000000E+00  0.93827000000E+00 0.  1.
     999902    2    1    2    0    0 -0.13579241661E-01 -0.10414195108E-01  0.16711449022E-01  0.10200108906E+01  0.10197304022E+01 0.  0.
     999903    2    3    3    0    0 -0.40346024379E-01 -0.11996247022E+00 -0.29968202093E-01  0.13158741332E+00  0.19958914345E-01 0.  0.
         14    1    1    2    0    0  0.13579241661E-01  0.10414195108E-01 -0.16711449022E-01  0.23919109353E-01  0.00000000000E+00 0.  1.
     999901    1    3    3    0    0  0.26766782717E-01  0.10954827512E+00  0.46679651115E-01  0.88842347733E+00  0.88000000000E+00 0.  1.
        -11    1    4    4    0    0 -0.25135528167E-01 -0.51118285331E-01 -0.67916003178E-02  0.57369511305E-01  0.51100000000E-03 0. -1.
         11    1    4    4    0    0 -0.15210496212E-01 -0.68844184894E-01 -0.23176601775E-01  0.74217902015E-01  0.51100000000E-03 0.  1.
</event>
<event>
 8    1  0.1088270E+005  0.1043930E+01  0.7957747E-01            NaN
         13   -1    0    0    0    0  0.00000000000E+00  0.00000000000E+00  0.74505805969E-08  0.10566000000E+00  0.10566000000E+00 0.  1.
     999900   -1    0    0    0    0 -0.00000000000E+00 -0.00000000000E+00 -0.74505805969E-08  0.93827000000E+00  0.93827000000E+00 0.  1.
     999902    2    1    2    0    0 -0.12288222060E-01 -0.21020475940E-01  0.39432322367E-02  0.10192640338E+01  0.10189655346E+01 0.  0.
     999903    2    3    3    0    0  0.20137993160E-01 -0.58030610889E-01  0.11388528492E+00  0.13105884098E+00  0.20819969019E-01 0.  0.
         14    1    1    2    0    0  0.12288222060E-01  0.21020475940E-01 -0.39432322367E-02  0.24665966241E-01  0.00000000000E+00 0.  1.
     999901    1    3    3    0    0 -0.32426215220E-01  0.37010134950E-01 -0.10994205268E+00  0.88820519277E+00  0.88000000000E+00 0.  1.
        -11    1    4    4    0    0 -0.37658234900E-03 -0.39160764872E-02  0.22796732332E-01  0.23139351662E-01  0.51100000000E-03 0.  1.
         11    1    4    4    0    0  0.20514575509E-01 -0.54114534402E-01  0.91088552589E-01  0.10791948932E+00  0.51100000000E-03 0. -1.
</event>
<event>
 8    1  0.1088270E+005  0.1043930E+01  0.7957747E-01            NaN
         13   -1    0    0    0    0  0.00000000000E+00  0.00000000000E+00  0.74505805969E-08  0.10566000000E+00  0.10566000000E+00 0.  1.
     999900   -1    0    0    0    0 -0.00000000000E+00 -0.00000000000E+00 -0.74505805969E-08  0.93827000000E+00  0.93827000000E+00 0.  1.
     999902    2    1    2    0    0 -0.73434343575E-02  0.75055230789E-02  0.21357332593E-01  0.10201309546E+01  0.10198533081E+01 0.  0.
     999903    2    3    3    0    0  0.60216818314E-01 -0.68686078150E-01 -0.87046412890E-01  0.12765074764E+00  0.19333722786E-01 0.  0.
         14    1    1    2    0    0  0.73434343575E-02 -0.75055230789E-02 -0.21357332593E-01  0.23799045366E-01  0.00000000000E+00 0. -1.
     999901    1    3    3    0    0 -0.67560252672E-01  0.76191601229E-01  0.10840374548E+00  0.89248020699E+00  0.88000000000E+00 0. -1.
        -11    1    4    4    0    0  0.36193933752E-01 -0.27777655433E-01 -0.47770845645E-01  0.66059925798E-01  0.51100000000E-03 0. -1.
         11    1    4    4    0    0  0.24022884562E-01 -0.40908422717E-01 -0.39275567244E-01  0.61590821843E-01  0.51100000000E-03 0.  1.
</event>
<event>
 8    1  0.1088270E+005  0.1043930E+01  0.7957747E-01            NaN
         13   -1    0    0    0    0  0.00000000000E+00  0.00000000000E+00  0.74505805969E-08  0.10566000000E+00  0.10566000000E+00 0. -1.
     999900   -1    0    0    0    0 -0.00000000000E+00 -0.00000000000E+00 -0.74505805969E-08  0.93827000000E+00  0.93827000000E+00 0.  1.
     999902    2    1    2    0    0  0.57961036888E-03  0.12149714904E-01 -0.20604707878E-01  0.10200029127E+01  0.10197222349E+01 0.  0.
     999903    2    3    3    0    0 -0.40380591488E-01 -0.94309624521E-01 -0.76889996611E-01  0.13085761364E+00  0.26205839495E-01 0.  0.
         14    1    1    2    0    0 -0.57961036888E-03 -0.12149714904E-01  0.20604707878E-01  0.23927087310E-01  0.00000000000E+00 0. -1.
     999901    1    3    3    0    0  0.40960201856E-01  0.10645933942E+00  0.56285288733E-01  0.88914529905E+00  0.88000000000E+00 0.  1.
        -11    1    4    4    0    0 -0.43098172299E-01 -0.76788673513E-01 -0.65963160634E-01  0.11002432693E+00  0.51100000000E-03 0. -1.
         11    1    4    4    0    0  0.27175808116E-02 -0.17520951008E-01 -0.10926835977E-01  0.20833286710E-01  0.51100000000E-03 0.  1.
</event>
<event>
 8    1  0.1088270E+005  0.1043930E+01  0.7957747E-01            NaN
         13   -1    0    0    0    0  0.00000000000E+00  0.00000000000E+00  0.74505805969E-08  0.10566000000E+00  0.10566000000E+00 0. -1.
     999900   -1    0    0    0    0 -0.00000000000E+00 -0.00000000000E+00 -0.74505805969E-08  0.93827000000E+00  0.93827000000E+00 0. -1.
     999902    2    1    2    0    0  0.89353463498E-02 -0.12868823853E-01  0.16123840190E-01  0.10214483349E+01  0.10212008988E+01 0.  0.
     999903    2    3    3    0    0 -0.82782340233E-01 -0.34072318363E-01  0.96541983883E-01  0.13278146819E+00  0.17225704905E-01 0.  0.
         14    1    1    2    0    0 -0.89353463498E-02  0.12868823853E-01 -0.16123840190E-01  0.22481665068E-01  0.00000000000E+00 0.  1.
     999901    1    3    3    0    0  0.91717686583E-01  0.21203494510E-01 -0.80418143692E-01  0.88866686674E+00  0.88000000000E+00 0. -1.
        -11    1    4    4    0    0 -0.23320863008E-01 -0.88940017393E-02  0.16436904360E-01  0.29889778593E-01  0.51100000000E-03 0. -1.
         11    1    4    4    0    0 -0.59461477225E-01 -0.25178316624E-01  0.80105079522E-01  0.10289168960E+00  0.51100000000E-03 0.  1.
</event>
<event>
 8    1  0.1088270E+005  0.1043930E+01  0.7957747E-01            NaN
         13   -1    0    0    0    0  0.00000000000E+00  0.00000000000E+00  0.74505805969E-08  0.10566000000E+00  0.10566000000E+00 0. -1.
     999900   -1    0    0    0    0 -0.00000000000E+00 -0.00000000000E+00 -0.74505805969E-08  0.93827000000E+00  0.93827000000E+00 0.  1.
     999902    2    1    2    0    0  0.11767796879E-01 -0.19457438904E-01  0.94526789197E-02  0.10193042795E+01  0.10190067655E+01 0.  0.
     999903    2    3    3    0    0  0.84969550337E-01  0.90684737869E-01 -0.25080970985E-01  0.12875255792E+00  0.22463746296E-01 0.  0.
         14    1    1    2    0    0 -0.11767796879E-01  0.19457438904E-01 -0.94526789197E-02  0.24625720515E-01  0.00000000000E+00 0. -1.
     999901    1    3    3    0    0 -0.73201753458E-01 -0.11014217677E+00  0.34533649905E-01  0.89055172157E+00  0.88000000000E+00 0. -1.
        -11    1    4    4    0    0  0.31499310652E-01  0.49704449101E-01 -0.95743410335E-02  0.59621036214E-01  0.51100000000E-03 0. -1.
         11    1    4    4    0    0  0.53470239685E-01  0.40980288768E-01 -0.15506629952E-01  0.69131521702E-01  0.51100000000E-03 0.  1.
</event>
<event>
 8    1  0.1088270E+005  0.1043930E+01  0.7957747E-01            NaN
         13   -1    0    0    0    0  0.00000000000E+00  0.00000000000E+00  0.74505805969E-08  0.10566000000E+00  0.10566000000E+00 0. -1.
     999900   -1    0    0    0    0 -0.00000000000E+00 -0.00000000000E+00 -0.74505805969E-08  0.93827000000E+00  0.93827000000E+00 0. -1.
     999902    2    1    2    0    0 -0.31697184096E-02 -0.15102787197E-01  0.49625514898E-02  0.10277198731E+01  0.10275920248E+01 0.  0.
     999903    2    3    3    0    0 -0.92351749539E-01  0.74293656123E-01 -0.63793244775E-01  0.13605148282E+00  0.19799871608E-01 0.  0.
         14    1    1    2    0    0  0.31697184096E-02  0.15102787197E-01 -0.49625514898E-02  0.16210126872E-01  0.00000000000E+00 0.  1.
     999901    1    3    3    0    0  0.89182031129E-01 -0.89396443320E-01  0.68755796265E-01  0.89166839031E+00  0.88000000000E+00 0.  1.
        -11    1    4    4    0    0 -0.38146145699E-01  0.19314818664E-01 -0.26519423696E-01  0.50316315505E-01  0.51100000000E-03 0.  1.
         11    1    4    4    0    0 -0.54205603839E-01  0.54978837458E-01 -0.37273821078E-01  0.85735167316E-01  0.51100000000E-03 0. -1.
</event>
<event>
 8    1  0.1088270E+005  0.1043930E+01  0.7957747E-01            NaN
         13   -1    0    0    0    0  0.00000000000E+00  0.00000000000E+00  0.74505805969E-08  0.10566000000E+00  0.10566000000E+00 0. -1.
     999900   -1    0    0    0    0 -0.00000000000E+00 -0.00000000000E+00 -0.74505805969E-08  0.93827000000E+00  0.93827000000E+00 0.  1.
     999902    2    1    2    0    0 -0.29266105661E-02 -0.10194164644E-01  0.29398657120E-01  0.10126767268E+01  0.10121943420E+01 0.  0.
     999903    2    3    3    0    0  0.11752276520E+00 -0.61215879383E-02  0.34778277570E-01  0.12444613836E+00  0.20693926233E-01 0.  0.
         14    1    1    2    0    0  0.29266105661E-02  0.10194164644E-01 -0.29398657120E-01  0.31253273151E-01  0.00000000000E+00 0.  1.
     999901    1    3    3    0    0 -0.12044937577E+00 -0.40725767061E-02 -0.53796204504E-02  0.88823058849E+00  0.88000000000E+00 0.  1.
        -11    1    4    4    0    0  0.11092321536E+00 -0.54847272806E-02  0.27157843355E-01  0.11433219807E+00  0.51100000000E-03 0. -1.
         11    1    4    4    0    0  0.65995498474E-02 -0.63686065770E-03  0.76204342151E-02  0.10113940296E-01  0.51100000000E-03 0.  1.
</event>
<event>
 8    1  0.1088270E+005  0.1043930E+01  0.7957747E-01            NaN
         13   -1    0    0    0    0  0.00000000000E+00  0.00000000000E+00  0.74505805969E-08  0.10566000000E+00  0.10566000000E+00 0.  1.
     999900   -1    0    0    0    0 -0.00000000000E+00 -0.00000000000E+00 -0.74505805969E-08  0.93827000000E+00  0.93827000000E+00 0.  1.
     999902    2    1    2    0    0  0.22846755709E-01  0.58080942684E-02  0.48727214207E-03  0.10203515005E+01  0.10200790356E+01 0.  0.
     999903    2    3    3    0    0  0.11392362389E+00 -0.62466430941E-01  0.18552503208E-01  0.13283656580E+00  0.20511235019E-01 0.  0.
         14    1    1    2    0    0 -0.22846755709E-01 -0.58080942684E-02 -0.48727214207E-03  0.23578499519E-01  0.00000000000E+00 0. -1.
     999901    1    3    3    0    0 -0.91076868186E-01  0.68274525210E-01 -0.18065231066E-01  0.88751493468E+00  0.88000000000E+00 0.  1.
        -11    1    4    4    0    0  0.43492469906E-01 -0.20533853096E-01  0.16467322134E-01  0.50839629038E-01  0.51100000000E-03 0. -1.
         11    1    4    4    0    0  0.70431153989E-01 -0.41932577845E-01  0.20851810740E-02  0.81996936760E-01  0.51100000000E-03 0.  1.
</event>
<event>
 8    1  0.1088270E+005  0.1043930E+01  0.7957747E-01            NaN
         13   -1    0    0    0    0  0.00000000000E+00  0.00000000000E+00  0.74505805969E-08  0.10566000000E+00  0.10566000000E+00 0.  1.
     999900   -1    0    0    0    0 -0.00000000000E+00 -0.00000000000E+00 -0.74505805969E-08  0.93827000000E+00  0.93827000000E+00 0. -1.
     999902    2    1    2    0    0  0.11896830905E-01 -0.39135245819E-02  0.18110430184E-01  0.10219109641E+01  0.10216737153E+01 0.  0.
     999903    2    3    3    0    0 -0.82331654975E-01  0.99097916129E-01  0.11977011076E-01  0.13088459901E+00  0.19708654732E-01 0.  0.
         14    1    1    2    0    0 -0.11896830905E-01  0.39135245819E-02 -0.18110430184E-01  0.22019035894E-01  0.00000000000E+00 0. -1.
     999901    1    3    3    0    0  0.94228485881E-01 -0.10301144071E+00  0.61334191082E-02  0.89102636510E+00  0.88000000000E+00 0. -1.
        -11    1    4    4    0    0 -0.72667779255E-01  0.84146525669E-01  0.16772476106E-01  0.11244029971E+00  0.51100000000E-03 0. -1.
         11    1    4    4    0    0 -0.96638757200E-02  0.14951390460E-01 -0.47954650304E-02  0.18444299295E-01  0.51100000000E-03 0.  1.
</event>
<event>
 8    1  0.1088270E+005  0.1043930E+01  0.7957747E-01            NaN
         13   -1    0    0    0    0  0.00000000000E+00  0.00000000000E+00  0.74505805969E-08  0.10566000000E+00  0.10566000000E+00 0. -1.
     999900   -1    0    0    0    0 -0.00000000000E+00 -0.00000000000E+00 -0.74505805969E-08  0.93827000000E+00  0.93827000000E+00 0. -1.
     999902    2    1    2    0    0  0.71039132533E-02 -0.83520020190E-02 -0.22856720962E-01  0.10185794336E+01  0.10182639203E+01 0.  0.
     999903    2    3    3    0    0  0.64351752669E-01  0.79247606392E-01 -0.78683243102E-01  0.13062244872E+00  0.21209435958E-01 0.  0.
         14    1    1    2    0    0 -0.71039132533E-02  0.83520020190E-02  0.22856720962E-01  0.25350566352E-01  0.00000000000E+00 0. -1.
     999901    1    3    3    0    0 -0.57247839416E-01 -0.87599608411E-01  0.55826522140E-01  0.88795698493E+00  0.88000000000E+00 0.  1.
        -11    1    4    4    0    0  0.84901777244E-02  0.20913169261E-01 -0.24756778981E-01  0.33505268136E-01  0.51100000000E-03 0.  1.
         11    1    4    4    0    0  0.55861574944E-01  0.58334437130E-01 -0.53926464121E-01  0.97117180582E-01  0.51100000000E-03 0. -1.
</event>
<event>
 8    1  0.1088270E+005  0.1043930E+01  0.7957747E-01            NaN
         13   -1    0    0    0    0  0.00000000000E+00  0.00000000000E+00  0.74505805969E-08  0.10566000000E+00  0.10566000000E+00 0. -1.
     999900   -1    0    0    0    0 -0.00000000000E+00 -0.00000000000E+00 -0.74505805969E-08  0.93827000000E+00  0.93827000000E+00 0.  1.
     999902    2    1    2    0    0 -0.24434549151E-02  0.19032779855E-01  0.14479255379E-01  0.10198911561E+01  0.10196078188E+01 0.  0.
     999903    2    3    3    0    0  0.10861207966E-01 -0.90696083694E-01  0.89993868145E-01  0.12976762853E+00  0.19924750301E-01 0.  0.
         14    1    1    2    0    0  0.24434549151E-02 -0.19032779855E-01 -0.14479255379E-01  0.24038843925E-01  0.00000000000E+00 0.  1.
     999901    1    3    3    0    0 -0.13304662881E-01  0.10972886355E+00 -0.75514612765E-01  0.89012352755E+00  0.88000000000E+00 0.  1.
        -11    1    4    4    0    0  0.12240465635E-01 -0.39443356576E-01  0.49253060706E-01  0.64278553864E-01  0.51100000000E-03 0.  1.
         11    1    4    4    0    0 -0.13792576687E-02 -0.51252727118E-01  0.40740807439E-01  0.65489074665E-01  0.51100000000E-03 0. -1.
</event>
<event>
 8    1  0.1088270E+005  0.1043930E+01  0.7957747E-01            NaN
         13   -1    0    0    0    0  0.00000000000E+00  0.00000000000E+00  0.74505805969E-08  0.10566000000E+00  0.10566000000E+00 0.  1.
     999900   -1    0    0    0    0 -0.00000000000E+00 -0.00000000000E+00 -0.74505805969E-08  0.93827000000E+00  0.93827000000E+00 0.  1.
     999902    2    1    2    0    0  0.26209804088E-01 -0.11448383435E-01 -0.37510518372E-02  0.10150840349E+01  0.10146740896E+01 0.  0.
     999903    2    3    3    0    0  0.69395128208E-01 -0.98582701975E-01 -0.41040374213E-01  0.12894191578E+00  0.20185945151E-01 0.  0.
         14    1    1    2    0    0 -0.26209804088E-01  0.11448383435E-01  0.37510518372E-02  0.28845965116E-01  0.00000000000E+00 0.  1.
     999901    1    3    3    0    0 -0.43185324120E-01  0.87134318540E-01  0.37289322376E-01  0.88614211910E+00  0.88000000000E+00 0.  1.
        -11    1    4    4    0    0  0.89795448603E-02 -0.89868498715E-02 -0.10917522884E-01  0.16758553740E-01  0.51100000000E-03 0. -1.
         11    1    4    4    0    0  0.60415583348E-01 -0.89595852103E-01 -0.30122851329E-01  0.11218336204E+00  0.51100000000E-03 0.  1.
</event>
<event>
 8    1  0.1088270E+005  0.1043930E+01  0.7957747E-01            NaN
         13   -1    0    0    0    0  0.00000000000E+00  0.00000000000E+00  0.74505805969E-08  0.10566000000E+00  0.10566000000E+00 0.  1.
     999900   -1    0    0    0    0 -0.00000000000E+00 -0.00000000000E+00 -0.74505805969E-08  0.93827000000E+00  0.93827000000E+00 0.  1.
     999902    2    1    2    0    0  0.85876331340E-02  0.19175580665E-01  0.11253861618E-01  0.10200951571E+01  0.10198166648E+01 0.  0.
     999903    2    3    3    0    0  0.15756570988E-01 -0.12519602545E+00  0.10996069847E-01  0.12830223223E+00  0.20450792784E-01 0.  0.
         14    1    1    2    0    0 -0.85876331340E-02 -0.19175580665E-01 -0.11253861618E-01  0.23834842941E-01  0.00000000000E+00 0.  1.
     999901    1    3    3    0    0 -0.71689378540E-02  0.14437160611E+00  0.25779177100E-03  0.89179292483E+00  0.88000000000E+00 0.  1.
        -11    1    4    4    0    0  0.20414847409E-01 -0.93664374271E-01  0.61941393225E-02  0.96064610994E-01  0.51100000000E-03 0. -1.
         11    1    4    4    0    0 -0.46582764207E-02 -0.31531651176E-01  0.48019305249E-02  0.32237621235E-01  0.51100000000E-03 0.  1.
</event>
<event>
 8    1  0.1088270E+005  0.1043930E+01  0.7957747E-01            NaN
         13   -1    0    0    0    0  0.00000000000E+00  0.00000000000E+00  0.74505805969E-08  0.10566000000E+00  0.10566000000E+00 0. -1.
     999900   -1    0    0    0    0 -0.00000000000E+00 -0.00000000000E+00 -0.74505805969E-08  0.93827000000E+00  0.93827000000E+00 0.  1.
     999902    2    1    2    0    0 -0.91964332427E-02  0.99751591718E-02  0.19464471554E-01  0.10202035625E+01  0.10199276274E+01 0.  0.
     999903    2    3    3    0    0 -0.91924152391E-01  0.55792245149E-01 -0.71072820343E-01  0.13051817870E+00  0.20514013913E-01 0.  0.
         14    1    1    2    0    0  0.91964332427E-02 -0.99751591718E-02 -0.19464471554E-01  0.23726437528E-01  0.00000000000E+00 0.  1.
     999901    1    3    3    0    0  0.82727719148E-01 -0.45817085978E-01  0.90537291896E-01  0.88968538378E+00  0.88000000000E+00 0. -1.
        -11    1    4    4    0    0 -0.34513531839E-01  0.17391072830E-01 -0.36974554796E-01  0.53488429754E-01  0.51100000000E-03 0.  1.
         11    1    4    4    0    0 -0.57410620552E-01  0.38401172319E-01 -0.34098265547E-01  0.77029748941E-01  0.51100000000E-03 0. -1.
</event>
<event>
 8    1  0.1088270E+005  0.1043930E+01  0.7957747E-01            NaN
         13   -1    0    0    0    0  0.00000000000E+00  0.00000000000E+00  0.74505805969E-08  0.10566000000E+00  0.10566000000E+00 0. -1.
     999900   -1    0    0    0    0 -0.00000000000E+00 -0.00000000000E+00 -0.74505805969E-08  0.93827000000E+00  0.93827000000E+00 0.  1.
     999902    2    1    2    0    0  0.23123335703E-03  0.11152552836E-01  0.19752166747E-01  0.10212456222E+01  0.10209936532E+01 0.  0.
     999903    2    3    3    0    0 -0.11836956987E+00 -0.39914468562E-01  0.37601811160E-01  0.13164312616E+00  0.17649266025E-01 0.  0.
         14    1    1    2    0    0 -0.23123335703E-03 -0.11152552836E-01 -0.19752166747E-01  0.22684377771E-01  0.00000000000E+00 0.  1.
     999901    1    3    3    0    0  0.11860080323E+00  0.51067021398E-01 -0.17849644412E-01  0.88960249607E+00  0.88000000000E+00 0. -1.
        -11    1    4    4    0    0 -0.54235672084E-01 -0.12740872773E-01  0.94304182345E-02  0.56506918820E-01  0.51100000000E-03 0. -1.
         11    1    4    4    0    0 -0.64133897788E-01 -0.27173595789E-01  0.28171392925E-01  0.75136207344E-01  0.51100000000E-03 0.  1.
</event>
<event>
 8    1  0.1088270E+005  0.1043930E+01  0.7957747E-01            NaN
         13   -1    0    0    0    0  0.00000000000E+00  0.00000000000E+00  0.74505805969E-08  0.10566000000E+00  0.10566000000E+00 0. -1.
     999900   -1    0    0    0    0 -0.00000000000E+00 -0.00000000000E+00 -0.74505805969E-08  0.93827000000E+00  0.93827000000E+00 0.  1.
     999902    2    1    2    0    0 -0.20178833547E-01 -0.11108649390E-01  0.27475428272E-02  0.10207322327E+01  0.10204685956E+01 0.  0.
     999903    2    3    3    0    0  0.50903779708E-01  0.71978970915E-01 -0.91593984688E-01  0.12896061714E+00  0.21661387323E-01 0.  0.
         14    1    1    2    0    0  0.20178833547E-01  0.11108649390E-01 -0.27475428272E-02  0.23197767267E-01  0.00000000000E+00 0. -1.
     999901    1    3    3    0    0 -0.71082613255E-01 -0.83087620304E-01  0.94341527516E-01  0.89177161559E+00  0.88000000000E+00 0. -1.
        -11    1    4    4    0    0  0.28475644026E-02  0.19014381634E-01 -0.20790169958E-01  0.28322210716E-01  0.51100000000E-03 0. -1.
         11    1    4    4    0    0  0.48056215306E-01  0.52964589280E-01 -0.70803814730E-01  0.10063840643E+00  0.51100000000E-03 0.  1.
</event>
<event>
 8    1  0.1088270E+005  0.1043930E+01  0.7957747E-01            NaN
         13   -1    0    0    0    0  0.00000000000E+00  0.00000000000E+00  0.74505805969E-08  0.10566000000E+00  0.10566000000E+00 0.  1.
     999900   -1    0    0    0    0 -0.00000000000E+00 -0.00000000000E+00 -0.74505805969E-08  0.93827000000E+00  0.93827000000E+00 0.  1.
     999902    2    1    2    0    0  0.19053224819E-01 -0.12961192505E-01 -0.45075850334E-02  0.10204494504E+01  0.10201792708E+01 0.  0.
     999903    2    3    3    0    0 -0.69041864765E-01 -0.86317822081E-01 -0.66996871298E-01  0.13081646381E+00  0.20169802711E-01 0.  0.
         14    1    1    2    0    0 -0.19053224819E-01  0.12961192505E-01  0.45075850334E-02  0.23480549610E-01  0.00000000000E+00 0. -1.
     999901    1    3    3    0    0  0.88095089584E-01  0.73356629576E-01  0.62489286264E-01  0.88963298658E+00  0.88000000000E+00 0. -1.
        -11    1    4    4    0    0 -0.31226369240E-01 -0.29556757898E-01 -0.35166751012E-01  0.55548623485E-01  0.51100000000E-03 0.  1.
         11    1    4    4    0    0 -0.37815495525E-01 -0.56761064183E-01 -0.31830120286E-01  0.75267840326E-01  0.51100000000E-03 0. -1.
</event>
<event>
 8    1  0.1088270E+005  0.1043930E+01  0.7957747E-01            NaN
         13   -1    0    0    0    0  0.00000000000E+00  0.00000000000E+00  0.74505805969E-08  0.10566000000E+00  0.10566000000E+00 0. -1.
     999900   -1    0    0    0    0 -0.00000000000E+00 -0.00000000000E+00 -0.74505805969E-08  0.93827000000E+00  0.93827000000E+00 0. -1.
     999902    2    1    2    0    0 -0.11171982032E-03 -0.14728818490E-01 -0.18450398624E-01  0.10203213621E+01  0.10200481921E+01 0.  0.
     999903    2    3    3    0    0  0.64959991370E-01  0.56348034692E-01 -0.97107139213E-01  0.13157329344E+00  0.22064305303E-01 0.  0.
         14    1    1    2    0    0  0.11171982032E-03  0.14728818490E-01  0.18450398624E-01  0.23608637928E-01  0.00000000000E+00 0. -1.
     999901    1    3    3    0    0 -0.65071711190E-01 -0.71076853181E-01  0.78656740589E-01  0.88874806863E+00  0.88000000000E+00 0.  1.
        -11    1    4    4    0    0  0.21362049414E-01  0.28541140883E-01 -0.28416600589E-01  0.45592742713E-01  0.51100000000E-03 0. -1.
         11    1    4    4    0    0  0.43597941956E-01  0.27806893808E-01 -0.68690538624E-01  0.85980550728E-01  0.51100000000E-03 0.  1.
</event>
<event>
 8    1  0.1088270E+005  0.1043930E+01  0.7957747E-01            NaN
         13   -1    0    0    0    0  0.00000000000E+00  0.00000000000E+00  0.74505805969E-08  0.10566000000E+00  0.10566000000E+00 0. -1.
     999900   -1    0    0    0    0 -0.00000000000E+00 -0.00000000000E+00 -0.74505805969E-08  0.93827000000E+00  0.93827000000E+00 0.  1.
     999902    2    1    2    0    0  0.22666709472E-01 -0.17377375547E-02  0.72064336983E-03  0.10211853572E+01  0.10209320325E+01 0.  0.
     999903    2    3    3    0    0  0.82066502083E-01 -0.97350563011E-01  0.34235075460E-01  0.13338280880E+00  0.20171524705E-01 0.  0.
         14    1    1    2    0    0 -0.22666709472E-01  0.17377375547E-02 -0.72064336983E-03  0.22744642819E-01  0.00000000000E+00 0. -1.
     999901    1    3    3    0    0 -0.59399792612E-01  0.95612825456E-01 -0.33514432090E-01  0.88780254838E+00  0.88000000000E+00 0. -1.
        -11    1    4    4    0    0  0.47874935407E-01 -0.71103979245E-01  0.20463191792E-01  0.88129385814E-01  0.51100000000E-03 0.  1.
         11    1    4    4    0    0  0.34191566677E-01 -0.26246583766E-01  0.13771883668E-01  0.45253422986E-01  0.51100000000E-03 0. -1.
</event>
<event>
 8    1  0.1088270E+005  0.1043930E+01  0.7957747E-01            NaN
         13   -1    0    0    0    0  0.00000000000E+00  0.00000000000E+00  0.74505805969E-08  0.10566000000E+00  0.10566000000E+00 0.  1.
     999900   -1    0    0    0    0 -0.00000000000E+00 -0.00000000000E+00 -0.74505805969E-08  0.93827000000E+00  0.93827000000E+00 0. -1.
     999902    2    1    2    0    0 -0.18154359113E-01 -0.12433369096E-01 -0.81826488056E-02  0.10204539449E+01  0.10201838699E+01 0.  0.
     999903    2    3    3    0    0 -0.50388692000E-02 -0.83995350277E-01  0.98477595772E-01  0.13103304285E+00  0.19779089397E-01 0.  0.
         14    1    1    2    0    0  0.18154359113E-01  0.12433369096E-01  0.81826488056E-02  0.23476055107E-01  0.00000000000E+00 0.  1.
     999901    1    3    3    0    0 -0.13115489913E-01  0.71561981180E-01 -0.10666024458E+00  0.88942090205E+00  0.88000000000E+00 0. -1.
        -11    1    4    4    0    0  0.51836150422E-02 -0.51041422090E-01  0.66461800778E-01  0.83961471626E-01  0.51100000000E-03 0.  1.
         11    1    4    4    0    0 -0.10222484242E-01 -0.32953928186E-01  0.32015794994E-01  0.47071571220E-01  0.51100000000E-03 0. -1.
</event>
<event>
 8    1  0.1088270E+005  0.1043930E+01  0.7957747E-01            NaN
         13   -1    0    0    0    0  0.00000000000E+00  0.00000000000E+00  0.74505805969E-08  0.10566000000E+00  0.10566000000E+00 0.  1.
     999900   -1    0    0    0    0 -0.00000000000E+00 -0.00000000000E+00 -0.74505805969E-08  0.93827000000E+00  0.93827000000E+00 0. -1.
     999902    2    1    2    0    0  0.18399239250E-01  0.12110420646E-01 -0.28113152008E-02  0.10217241948E+01  0.10214828596E+01 0.  0.
     999903    2    3    3    0    0 -0.12317455611E+00 -0.28736990022E-01 -0.18162611045E-01  0.12934125410E+00  0.20037307816E-01 0.  0.
         14    1    1    2    0    0 -0.18399239250E-01 -0.12110420646E-01  0.28113152008E-02  0.22205805240E-01  0.00000000000E+00 0. -1.
     999901    1    3    3    0    0  0.14157379536E+00  0.40847410668E-01  0.15351295844E-01  0.89238294066E+00  0.88000000000E+00 0. -1.
        -11    1    4    4    0    0 -0.94990982229E-01 -0.14342187396E-01 -0.17705853434E-01  0.97686966433E-01  0.51100000000E-03 0.  1.
         11    1    4    4    0    0 -0.28183573881E-01 -0.14394802626E-01 -0.45675761058E-03  0.31654287670E-01  0.51100000000E-03 0. -1.
</event>
<event>
 8    1  0.1088270E+005  0.1043930E+01  0.7957747E-01            NaN
         13   -1    0    0    0    0  0.00000000000E+00  0.00000000000E+00  0.74505805969E-08  0.10566000000E+00  0.10566000000E+00 0. -1.
     999900   -1    0    0    0    0 -0.00000000000E+00 -0.00000000000E+00 -0.74505805969E-08  0.93827000000E+00  0.93827000000E+00 0.  1.
     999902    2    1    2    0    0  0.15034288895E-01  0.20501181472E-02 -0.17846043686E-01  0.10205053527E+01  0.10202364730E+01 0.  0.
     999903    2    3    3    0    0 -0.27171652196E-01 -0.12326435670E+00  0.28509005880E-02  0.13038546043E+00  0.32555189184E-01 0.  0.
         14    1    1    2    0    0 -0.15034288895E-01 -0.20501181472E-02  0.17846043686E-01  0.23424647324E-01  0.00000000000E+00 0.  1.
     999901    1    3    3    0    0  0.42205941091E-01  0.12531447484E+00 -0.20696944274E-01  0.89011989225E+00  0.88000000000E+00 0.  1.
        -11    1    4    4    0    0 -0.67527918251E-02 -0.87398362342E-02  0.84551281136E-02  0.13918880963E-01  0.51100000000E-03 0.  1.
         11    1    4    4    0    0 -0.20418860371E-01 -0.11452452046E+00 -0.56042275256E-02  0.11646657947E+00  0.51100000000E-03 0. -1.
</event>
<event>
 7    1  0.1088270E+005  0.1043930E+01  0.7957747E-01            NaN
         13   -1    0    0    0    0  0.00000000000E+00  0.00000000000E+00  0.74505805969E-08  0.10566000000E+00  0.10566000000E+00 0. -1.
     999900   -1    0    0    0    0 -0.00000000000E+00 -0.00000000000E+00 -0.74505805969E-08  0.93827000000E+00  0.93827000000E+00 0. -1.
     999903    2    1    2    0    0 -0.35532412684E-01  0.91346744348E-01  0.27719607823E-01  0.10345868676E+00  0.18125759392E-01 0.  0.
         14    1    1    2    0    0 -0.25148272131E-03 -0.44605236121E-01 -0.37767786635E-01  0.58447378387E-01  0.00000000000E+00 0.  1.
     999901    1    1    2    0    0  0.35783895406E-01 -0.46741508227E-01  0.10048178812E-01  0.88202393486E+00  0.88000000000E+00 0.  1.
        -11    1    3    3    0    0 -0.13414373734E-01  0.47334647120E-01  0.57999890627E-02  0.49542055213E-01  0.51100000000E-03 0.  1.
         11    1    3    3    0    0 -0.22118038951E-01  0.44012097228E-01  0.21919618761E-01  0.53916631544E-01  0.51100000000E-03 0. -1.
</event>
<event>
 8    1  0.1088270E+005  0.1043930E+01  0.7957747E-01            NaN
         13   -1    0    0    0    0  0.00000000000E+00  0.00000000000E+00  0.74505805969E-08  0.10566000000E+00  0.10566000000E+00 0.  1.
     999900   -1    0    0    0    0 -0.00000000000E+00 -0.00000000000E+00 -0.74505805969E-08  0.93827000000E+00  0.93827000000E+00 0.  1.
     999902    2    1    2    0    0  0.15223757444E-01 -0.13310937453E-01 -0.12013427711E-01  0.10204083867E+01  0.10201372503E+01 0.  0.
     999903    2    3    3    0    0  0.10315411368E+00 -0.81261753501E-01  0.10142327813E-01  0.13314295942E+00  0.19491974763E-01 0.  0.
         14    1    1    2    0    0 -0.15223757444E-01  0.13310937453E-01  0.12013427711E-01  0.23521613294E-01  0.00000000000E+00 0.  1.
     999901    1    3    3    0    0 -0.87930356232E-01  0.67950816049E-01 -0.22155755524E-01  0.88726542728E+00  0.88000000000E+00 0. -1.
        -11    1    4    4    0    0  0.53523271681E-01 -0.37855234208E-01  0.14208512177E-01  0.67081311165E-01  0.51100000000E-03 0.  1.
         11    1    4    4    0    0  0.49630841996E-01 -0.43406519293E-01 -0.40661843642E-02  0.66061648258E-01  0.51100000000E-03 0. -1.
</event>
<event>
 8    1  0.1088270E+005  0.1043930E+01  0.7957747E-01            NaN
         13   -1    0    0    0    0  0.00000000000E+00  0.00000000000E+00  0.74505805969E-08  0.10566000000E+00  0.10566000000E+00 0.  1.
     999900   -1    0    0    0    0 -0.00000000000E+00 -0.00000000000E+00 -0.74505805969E-08  0.93827000000E+00  0.93827000000E+00 0. -1.
     999902    2    1    2    0    0 -0.77627546424E-02  0.19410465064E-01  0.11313171157E-01  0.10201599694E+01  0.10198830074E+01 0.  0.
     999903    2    3    3    0    0  0.98547187171E-01 -0.44481561529E-02  0.82985790157E-01  0.13054881734E+00  0.20615968285E-01 0.  0.
         14    1    1    2    0    0  0.77627546424E-02 -0.19410465064E-01 -0.11313171157E-01  0.23770030612E-01  0.00000000000E+00 0. -1.
     999901    1    3    3    0    0 -0.10630994181E+00  0.23858621217E-01 -0.71672619000E-01  0.88961115205E+00  0.88000000000E+00 0. -1.
        -11    1    4    4    0    0  0.39465175188E-01  0.22262714242E-03  0.20690359287E-01  0.44563457046E-01  0.51100000000E-03 0. -1.
         11    1    4    4    0    0  0.59082011983E-01 -0.46707832953E-02  0.62295430871E-01  0.85985360294E-01  0.51100000000E-03 0.  1.
</event>
<event>
 8    1  0.1088270E+005  0.1043930E+01  0.7957747E-01            NaN
         13   -1    0    0    0    0  0.00000000000E+00  0.00000000000E+00  0.74505805969E-08  0.10566000000E+00  0.10566000000E+00 0.  1.
     999900   -1    0    0    0    0 -0.00000000000E+00 -0.00000000000E+00 -0.74505805969E-08  0.93827000000E+00  0.93827000000E+00 0.  1.
     999902    2    1    2    0    0  0.16394125543E-01  0.14947639410E-01 -0.77243853608E-02  0.10204381843E+01  0.10201677424E+01 0.  0.
     999903    2    3    3    0    0  0.54459059616E-01 -0.11020634140E+00  0.37349859970E-01  0.12962723593E+00  0.17233148220E-01 0.  0.
         14    1    1    2    0    0 -0.16394125543E-01 -0.14947639410E-01  0.77243853608E-02  0.23491815712E-01  0.00000000000E+00 0.  1.
     999901    1    3    3    0    0 -0.38064934073E-01  0.12515398081E+00 -0.45074245331E-01  0.89081094836E+00  0.88000000000E+00 0. -1.
        -11    1    4    4    0    0  0.31176024461E-01 -0.75495472618E-01  0.30913167431E-01  0.87334963953E-01  0.51100000000E-03 0.  1.
         11    1    4    4    0    0  0.23283035156E-01 -0.34710868778E-01  0.64366925383E-02  0.42292271979E-01  0.51100000000E-03 0. -1.
</event>
<event>
 8    1  0.1088270E+005  0.1043930E+01  0.7957747E-01            NaN
         13   -1    0    0    0    0  0.00000000000E+00  0.00000000000E+00  0.74505805969E-08  0.10566000000E+00  0.10566000000E+00 0. -1.
     999900   -1    0    0    0    0 -0.00000000000E+00 -0.00000000000E+00 -0.74505805969E-08  0.93827000000E+00  0.93827000000E+00 0.  1.
     999902    2    1    2    0    0 -0.20405711696E-01 -0.30635790889E-02  0.12129482430E-01  0.10199946092E+01  0.10197137343E+01 0.  0.
     999903    2    3    3    0    0 -0.74980062466E-03 -0.21150419629E-01 -0.12511397043E+00  0.12895630816E+00  0.22985242395E-01 0.  0.
         14    1    1    2    0    0  0.20405711696E-01  0.30635790889E-02 -0.12129482430E-01  0.23935390756E-01  0.00000000000E+00 0.  1.
     999901    1    3    3    0    0 -0.19655911071E-01  0.18086840540E-01  0.13724345286E+00  0.89103830108E+00  0.88000000000E+00 0. -1.
        -11    1    4    4    0    0  0.68046348087E-02  0.17948691811E-02 -0.26119366724E-01  0.27055628792E-01  0.51100000000E-03 0.  1.
         11    1    4    4    0    0 -0.75544354334E-02 -0.22945288810E-01 -0.98994603701E-01  0.10190067937E+00  0.51100000000E-03 0. -1.
</event>
<event>
 8    1  0.1088270E+005  0.1043930E+01  0.7957747E-01            NaN
         13   -1    0    0    0    0  0.00000000000E+00  0.00000000000E+00  0.74505805969E-08  0.10566000000E+00  0.10566000000E+00 0.  1.
     999900   -1    0    0    0    0 -0.00000000000E+00 -0.00000000000E+00 -0.74505805969E-08  0.93827000000E+00  0.93827000000E+00 0.  1.
     999902    2    1    2    0    0  0.22056746910E-01  0.13281463807E-02 -0.61965517499E-02  0.10209808974E+01  0.10207229455E+01 0.  0.
     999903    2    3    3    0    0 -0.29870430708E-01 -0.81498937000E-01 -0.96017793914E-01  0.13102325061E+00  0.20331160560E-01 0.  0.
         14    1    1    2    0    0 -0.22056746910E-01 -0.13281463807E-02  0.61965517499E-02  0.22949102611E-01  0.00000000000E+00 0.  1.
     999901    1    3    3    0    0  0.51927177617E-01  0.82827083381E-01  0.89821242164E-01  0.88995764678E+00  0.88000000000E+00 0. -1.
        -11    1    4    4    0    0 -0.55366452515E-02 -0.47514812679E-02 -0.15587906993E-01  0.17218448835E-01  0.51100000000E-03 0.  1.
         11    1    4    4    0    0 -0.24333785456E-01 -0.76747455732E-01 -0.80429886921E-01  0.11380480178E+00  0.51100000000E-03 0. -1.
</event>
<event>
 8    1  0.1088270E+005  0.1043930E+01  0.7957747E-01            NaN
         13   -1    0    0    0    0  0.00000000000E+00  0.00000000000E+00  0.74505805969E-08  0.10566000000E+00  0.10566000000E+00 0.  1.
     999900   -1    0    0    0    0 -0.00000000000E+00 -0.00000000000E+00 -0.74505805969E-08  0.93827000000E+00  0.93827000000E+00 0.  1.
     999902    2    1    2    0    0  0.11672843943E-01 -0.16276878666E-02 -0.79965023645E-02  0.10296875036E+01  0.10295889988E+01 0.  0.
     999903    2    3    3    0    0 -0.80239287618E-01 -0.11048358387E+00  0.73714470968E-02  0.13809700349E+00  0.19273779018E-01 0.  0.
         14    1    1    2    0    0 -0.11672843943E-01  0.16276878666E-02  0.79965023645E-02  0.14242496395E-01  0.00000000000E+00 0. -1.
     999901    1    3    3    0    0  0.91912131561E-01  0.10885589601E+00 -0.15367949461E-01  0.89159050011E+00  0.88000000000E+00 0. -1.
        -11    1    4    4    0    0 -0.61187906175E-01 -0.69326343398E-01  0.71027255523E-02  0.92740560610E-01  0.51100000000E-03 0.  1.
         11    1    4    4    0    0 -0.19051381443E-01 -0.41157240476E-01  0.26872154447E-03  0.45356442880E-01  0.51100000000E-03 0. -1.
</event>
<event>
 8    1  0.1088270E+005  0.1043930E+01  0.7957747E-01            NaN
         13   -1    0    0    0    0  0.00000000000E+00  0.00000000000E+00  0.74505805969E-08  0.10566000000E+00  0.10566000000E+00 0. -1.
     999900   -1    0    0    0    0 -0.00000000000E+00 -0.00000000000E+00 -0.74505805969E-08  0.93827000000E+00  0.93827000000E+00 0. -1.
     999902    2    1    2    0    0 -0.12541478730E-02  0.14152760891E-01  0.16964256981E-01  0.10218017479E+01  0.10215621138E+01 0.  0.
     999903    2    3    3    0    0 -0.39506366323E-01 -0.12038313159E+00 -0.19927248877E-01  0.12999228291E+00  0.21167121099E-01 0.  0.
         14    1    1    2    0    0  0.12541478730E-02 -0.14152760891E-01 -0.16964256981E-01  0.22128252137E-01  0.00000000000E+00 0.  1.
     999901    1    3    3    0    0  0.38252218450E-01  0.13453589248E+00  0.36891505858E-01  0.89180946496E+00  0.88000000000E+00 0.  1.
        -11    1    4    4    0    0  0.12836948225E-02 -0.13351857199E-01  0.13511215587E-02  0.13490982674E-01  0.51100000000E-03 0. -1.
         11    1    4    4    0    0 -0.40790061146E-01 -0.10703127439E+00 -0.21278370435E-01  0.11650130023E+00  0.51100000000E-03 0.  1.
</event>
<event>
 8    1  0.1088270E+005  0.1043930E+01  0.7957747E-01            NaN
         13   -1    0    0    0    0  0.00000000000E+00  0.00000000000E+00  0.74505805969E-08  0.10566000000E+00  0.10566000000E+00 0.  1.
     999900   -1    0    0    0    0 -0.00000000000E+00 -0.00000000000E+00 -0.74505805969E-08  0.93827000000E+00  0.93827000000E+00 0. -1.
     999902    2    1    2    0    0  0.13368878632E-01 -0.71674022031E-02 -0.18819102373E-01  0.10197585875E+01  0.10194720788E+01 0.  0.
     999903    2    3    3    0    0 -0.36956269965E-01 -0.13214026704E-01 -0.12375131708E+00  0.13207623890E+00  0.24276902856E-01 0.  0.
         14    1    1    2    0    0 -0.13368878632E-01  0.71674022031E-02  0.18819102373E-01  0.24171412543E-01  0.00000000000E+00 0.  1.
     999901    1    3    3    0    0  0.50325148597E-01  0.60466245010E-02  0.10493221471E+00  0.88768234855E+00  0.88000000000E+00 0.  1.
        -11    1    4    4    0    0 -0.33322292886E-01 -0.10252589244E-01 -0.70848553444E-01  0.78963722275E-01  0.51100000000E-03 0.  1.
         11    1    4    4    0    0 -0.36339770788E-02 -0.29614374600E-02 -0.52902763637E-01  0.53112516629E-01  0.51100000000E-03 0. -1.
</event>
<event>
 8    1  0.1088270E+005  0.1043930E+01  0.7957747E-01            NaN
         13   -1    0    0    0    0  0.00000000000E+00  0.00000000000E+00  0.74505805969E-08  0.10566000000E+00  0.10566000000E+00 0. -1.
     999900   -1    0    0    0    0 -0.00000000000E+00 -0.00000000000E+00 -0.74505805969E-08  0.93827000000E+00  0.93827000000E+00 0. -1.
     999902    2    1    2    0    0  0.11573778027E-01 -0.17857556505E-02  0.26387657835E-01  0.10150604703E+01  0.10146498453E+01 0.  0.
     999903    2    3    3    0    0  0.62168363214E-01 -0.43922151440E-01 -0.94606528276E-01  0.12434453296E+00  0.26778851964E-01 0.  0.
         14    1    1    2    0    0 -0.11573778027E-01  0.17857556505E-02 -0.26387657835E-01  0.28869529734E-01  0.00000000000E+00 0.  1.
     999901    1    3    3    0    0 -0.50594585186E-01  0.42136395790E-01  0.12099418611E+00  0.89071593731E+00  0.88000000000E+00 0. -1.
        -11    1    4    4    0    0  0.45909750244E-01 -0.25271874077E-01 -0.79908173805E-01  0.95561237689E-01  0.51100000000E-03 0. -1.
         11    1    4    4    0    0  0.16258612970E-01 -0.18650277363E-01 -0.14698354471E-01  0.28783295270E-01  0.51100000000E-03 0.  1.
</event>
<event>
 8    1  0.1088270E+005  0.1043930E+01  0.7957747E-01            NaN
         13   -1    0    0    0    0  0.00000000000E+00  0.00000000000E+00  0.74505805969E-08  0.10566000000E+00  0.10566000000E+00 0. -1.
     999900   -1    0    0    0    0 -0.00000000000E+00 -0.00000000000E+00 -0.74505805969E-08  0.93827000000E+00  0.93827000000E+00 0.  1.
     999902    2    1    2    0    0 -0.13176294348E-01 -0.56280141090E-02 -0.18617932756E-01  0.10204370927E+01  0.10201666253E+01 0.  0.
     999903    2    3    3    0    0  0.12579975016E+00  0.12440242951E-01 -0.17194799483E-01  0.12934628461E+00  0.21318147908E-01 0.  0.
         14    1    1    2    0    0  0.13176294348E-01  0.56280141090E-02  0.18617932756E-01  0.23492907348E-01  0.00000000000E+00 0.  1.
     999901    1    3    3    0    0 -0.13897604451E+00 -0.18068257060E-01 -0.14231332731E-02  0.89109080804E+00  0.88000000000E+00 0.  1.
        -11    1    4    4    0    0  0.58179789778E-01  0.15579519595E-01 -0.12299637414E-01  0.61474804358E-01  0.51100000000E-03 0. -1.
         11    1    4    4    0    0  0.67619960379E-01 -0.31392766443E-02 -0.48951620693E-02  0.67871480257E-01  0.51100000000E-03 0.  1.
</event>
<event>
 8    1  0.1088270E+005  0.1043930E+01  0.7957747E-01            NaN
         13   -1    0    0    0    0  0.00000000000E+00  0.00000000000E+00  0.74505805969E-08  0.10566000000E+00  0.10566000000E+00 0.  1.
     999900   -1    0    0    0    0 -0.00000000000E+00 -0.00000000000E+00 -0.74505805969E-08  0.93827000000E+00  0.93827000000E+00 0.  1.
     999902    2    1    2    0    0  0.13041756010E-01  0.53249221014E-02 -0.19028274353E-01  0.10202547509E+01  0.10199800191E+01 0.  0.
     999903    2    3    3    0    0  0.12610320104E+00 -0.34343335024E-01 -0.22335791029E-02  0.13197634704E+00  0.18201245273E-01 0.  0.
         14    1    1    2    0    0 -0.13041756010E-01 -0.53249221014E-02  0.19028274353E-01  0.23675249102E-01  0.00000000000E+00 0.  1.
     999901    1    3    3    0    0 -0.11306144503E+00  0.39668257126E-01 -0.16794695250E-01  0.88827840386E+00  0.88000000000E+00 0.  1.
        -11    1    4    4    0    0  0.56367427285E-01 -0.22544974796E-01  0.47909882759E-02  0.60899732651E-01  0.51100000000E-03 0.  1.
         11    1    4    4    0    0  0.69735773752E-01 -0.11798360228E-01 -0.70245673788E-02  0.71076614387E-01  0.51100000000E-03 0. -1.
</event>
<event>
 8    1  0.1088270E+005  0.1043930E+01  0.7957747E-01            NaN
         13   -1    0    0    0    0  0.00000000000E+00  0.00000000000E+00  0.74505805969E-08  0.10566000000E+00  0.10566000000E+00 0.  1.
     999900   -1    0    0    0    0 -0.00000000000E+00 -0.00000000000E+00 -0.74505805969E-08  0.93827000000E+00  0.93827000000E+00 0. -1.
     999902    2    1    2    0    0  0.29963052200E-01  0.13232227228E-01 -0.12076498410E-01  0.10090198561E+01  0.10084157634E+01 0.  0.
     999903    2    3    3    0    0  0.11010881530E+00  0.46115085300E-01 -0.29521398423E-01  0.12459408179E+00  0.20040457869E-01 0.  0.
         14    1    1    2    0    0 -0.29963052200E-01 -0.13232227228E-01  0.12076498410E-01  0.34910143918E-01  0.00000000000E+00 0.  1.
     999901    1    3    3    0    0 -0.80145763105E-01 -0.32882858072E-01  0.17444900013E-01  0.88442577429E+00  0.88000000000E+00 0. -1.
        -11    1    4    4    0    0  0.92778266543E-01  0.31856704055E-01 -0.28370651349E-01  0.10211665542E+00  0.51100000000E-03 0.  1.
         11    1    4    4    0    0  0.17330548762E-01  0.14258381245E-01 -0.11507470739E-02  0.22477426364E-01  0.51100000000E-03 0. -1.
</event>
<event>
 8    1  0.1088270E+005  0.1043930E+01  0.7957747E-01            NaN
         13   -1    0    0    0    0  0.00000000000E+00  0.00000000000E+00  0.74505805969E-08  0.10566000000E+00  0.10566000000E+00 0.  1.
     999900   -1    0    0    0    0 -0.00000000000E+00 -0.00000000000E+00 -0.74505805969E-08  0.93827000000E+00  0.93827000000E+00 0.  1.
     999902    2    1    2    0    0 -0.18848959028E-01 -0.10503541813E-01 -0.10434609785E-01  0.10199615055E+01  0.10196798439E+01 0.  0.
     999903    2    3    3    0    0 -0.20517121602E-01  0.18640529235E-01 -0.12737725758E+00  0.13174546055E+00  0.19065125680E-01 0.  0.
         14    1    1    2    0    0  0.18848959028E-01  0.10503541813E-01  0.10434609785E-01  0.23968494496E-01  0.00000000000E+00 0.  1.
     999901    1    3    3    0    0  0.16681625739E-02 -0.29144071048E-01  0.11694264780E+00  0.88821604496E+00  0.88000000000E+00 0. -1.
        -11    1    4    4    0    0 -0.21839757484E-01  0.21315475721E-01 -0.11274948267E+00  0.11680766874E+00  0.51100000000E-03 0. -1.
         11    1    4    4    0    0  0.13226358822E-02 -0.26749464859E-02 -0.14627774909E-01  0.14937791810E-01  0.51100000000E-03 0.  1.
</event>
<event>
 8    1  0.1088270E+005  0.1043930E+01  0.7957747E-01            NaN
         13   -1    0    0    0    0  0.00000000000E+00  0.00000000000E+00  0.74505805969E-08  0.10566000000E+00  0.10566000000E+00 0.  1.
     999900   -1    0    0    0    0 -0.00000000000E+00 -0.00000000000E+00 -0.74505805969E-08  0.93827000000E+00  0.93827000000E+00 0.  1.
     999902    2    1    2    0    0  0.21788259014E-01  0.63883213790E-02 -0.49525226155E-02  0.10206906721E+01  0.10204260785E+01 0.  0.
     999903    2    3    3    0    0 -0.76320891630E-01  0.57349807066E-01 -0.85685908357E-01  0.13010639308E+00  0.21719110479E-01 0.  0.
         14    1    1    2    0    0 -0.21788259014E-01 -0.63883213790E-02  0.49525226155E-02  0.23239327899E-01  0.00000000000E+00 0.  1.
     999901    1    3    3    0    0  0.98109150645E-01 -0.50961485687E-01  0.80733385741E-01  0.89058427902E+00  0.88000000000E+00 0. -1.
        -11    1    4    4    0    0 -0.26714455882E-01  0.14314168317E-01 -0.39625609648E-01  0.49889955188E-01  0.51100000000E-03 0.  1.
         11    1    4    4    0    0 -0.49606435749E-01  0.43035638749E-01 -0.46060298709E-01  0.80216437894E-01  0.51100000000E-03 0. -1.
</event>
<event>
 8    1  0.1088270E+005  0.1043930E+01  0.7957747E-01            NaN
         13   -1    0    0    0    0  0.00000000000E+00  0.00000000000E+00  0.74505805969E-08  0.10566000000E+00  0.10566000000E+00 0.  1.
     999900   -1    0    0    0    0 -0.00000000000E+00 -0.00000000000E+00 -0.74505805969E-08  0.93827000000E+00  0.93827000000E+00 0.  1.
     999902    2    1    2    0    0 -0.16943700077E-01  0.11446632624E-01 -0.12233751857E-01  0.10201018852E+01  0.10198235520E+01 0.  0.
     999903    2    3    3    0    0  0.55791443918E-01 -0.53989892398E-02 -0.11640138335E+00  0.13081842555E+00  0.20551012589E-01 0.  0.
         14    1    1    2    0    0  0.16943700077E-01 -0.11446632624E-01  0.12233751857E-01  0.23828114806E-01  0.00000000000E+00 0.  1.
     999901    1    3    3    0    0 -0.72735143995E-01  0.16845621864E-01  0.10416763149E+00  0.88928345965E+00  0.88000000000E+00 0. -1.
        -11    1    4    4    0    0  0.50831087264E-01 -0.10722325313E-01 -0.10675120307E+00  0.11872172577E+00  0.51100000000E-03 0.  1.
         11    1    4    4    0    0  0.49603566544E-02  0.53233360731E-02 -0.96501802821E-02  0.12096699780E-01  0.51100000000E-03 0. -1.
</event>
<event>
 8    1  0.1088270E+005  0.1043930E+01  0.7957747E-01            NaN
         13   -1    0    0    0    0  0.00000000000E+00  0.00000000000E+00  0.74505805969E-08  0.10566000000E+00  0.10566000000E+00 0.  1.
     999900   -1    0    0    0    0 -0.00000000000E+00 -0.00000000000E+00 -0.74505805969E-08  0.93827000000E+00  0.93827000000E+00 0. -1.
     999902    2    1    2    0    0 -0.22154982312E-01  0.76034920344E-02 -0.70564308942E-03  0.10204959593E+01  0.10202268614E+01 0.  0.
     999903    2    3    3    0    0  0.14362564434E-01  0.12569572937E+00 -0.29412448076E-01  0.13139338455E+00  0.19835063947E-01 0.  0.
         14    1    1    2    0    0  0.22154982312E-01 -0.76034920344E-02  0.70564308942E-03  0.23434040721E-01  0.00000000000E+00 0.  1.
     999901    1    3    3    0    0 -0.36517546746E-01 -0.11809223734E+00  0.28706804987E-01  0.88910257473E+00  0.88000000000E+00 0.  1.
        -11    1    4    4    0    0 -0.34542219407E-02  0.56305056123E-01 -0.12546036931E-01  0.57791479976E-01  0.51100000000E-03 0. -1.
         11    1    4    4    0    0  0.17816786375E-01  0.69390673249E-01 -0.16866411145E-01  0.73601904572E-01  0.51100000000E-03 0.  1.
</event>
<event>
 8    1  0.1088270E+005  0.1043930E+01  0.7957747E-01            NaN
         13   -1    0    0    0    0  0.00000000000E+00  0.00000000000E+00  0.74505805969E-08  0.10566000000E+00  0.10566000000E+00 0.  1.
     999900   -1    0    0    0    0 -0.00000000000E+00 -0.00000000000E+00 -0.74505805969E-08  0.93827000000E+00  0.93827000000E+00 0. -1.
     999902    2    1    2    0    0 -0.17542258602E-01  0.11762472078E-01 -0.11220086768E-01  0.10200139608E+01  0.10197335452E+01 0.  0.
     999903    2    3    3    0    0 -0.20846507866E-01  0.12459336753E+00 -0.34499910500E-01  0.13249850780E+00  0.20187288670E-01 0.  0.
         14    1    1    2    0    0  0.17542258602E-01 -0.11762472078E-01  0.11220086768E-01  0.23916039248E-01  0.00000000000E+00 0.  1.
     999901    1    3    3    0    0  0.33042492637E-02 -0.11283089545E+00  0.23279823732E-01  0.88751545295E+00  0.88000000000E+00 0.  1.
        -11    1    4    4    0    0 -0.74726176210E-03  0.20893611795E-01  0.13321923524E-02  0.20955602388E-01  0.51100000000E-03 0. -1.
         11    1    4    4    0    0 -0.20099246104E-01  0.10369975573E+00 -0.35832102852E-01  0.11154290541E+00  0.51100000000E-03 0.  1.
</event>
<event>
 8    1  0.1088270E+005  0.1043930E+01  0.7957747E-01            NaN
         13   -1    0    0    0    0  0.00000000000E+00  0.00000000000E+00  0.74505805969E-08  0.10566000000E+00  0.10566000000E+00 0.  1.
     999900   -1    0    0    0    0 -0.00000000000E+00 -0.00000000000E+00 -0.74505805969E-08  0.93827000000E+00  0.93827000000E+00 0. -1.
     999902    2    1    2    0    0  0.11905728762E-02 -0.22957607977E-01 -0.83583649593E-02  0.10194691845E+01  0.10191756898E+01 0.  0.
     999903    2    3    3    0    0  0.11135807373E+00 -0.65907768670E-01 -0.12983201410E-01  0.13154858919E+00  0.19799324343E-01 0.  0.
         14    1    1    2    0    0 -0.11905728762E-02  0.22957607977E-01  0.83583649593E-02  0.24460815452E-01  0.00000000000E+00 0. -1.
     999901    1    3    3    0    0 -0.11016750085E+00  0.42950160693E-01  0.46248364505E-02  0.88792059536E+00  0.88000000000E+00 0. -1.
        -11    1    4    4    0    0  0.10178939152E+00 -0.55605823576E-01 -0.16204445867E-01  0.11711504186E+00  0.51100000000E-03 0. -1.
         11    1    4    4    0    0  0.95686822024E-02 -0.10301945094E-01  0.32212444572E-02  0.14433547334E-01  0.51100000000E-03 0.  1.
</event>
<event>
 8    1  0.1088270E+005  0.1043930E+01  0.7957747E-01            NaN
         13   -1    0    0    0    0  0.00000000000E+00  0.00000000000E+00  0.74505805969E-08  0.10566000000E+00  0.10566000000E+00 0.  1.
     999900   -1    0    0    0    0 -0.00000000000E+00 -0.00000000000E+00 -0.74505805969E-08  0.93827000000E+00  0.93827000000E+00 0. -1.
     999902    2    1    2    0    0 -0.20468248499E-01 -0.74561912589E-02 -0.86421552314E-02  0.10204943257E+01  0.10202251898E+01 0.  0.
     999903    2    3    3    0    0  0.11302710651E-01  0.11933041692E+00 -0.45949516986E-01  0.13005843403E+00  0.20888716584E-01 0.  0.
         14    1    1    2    0    0  0.20468248499E-01  0.74561912589E-02  0.86421552314E-02  0.23435674340E-01  0.00000000000E+00 0. -1.
     999901    1    3    3    0    0 -0.31770959151E-01 -0.12678660818E+00  0.37307361755E-01  0.89043589163E+00  0.88000000000E+00 0. -1.
        -11    1    4    4    0    0  0.16363989356E-01  0.81061795842E-01 -0.35980815913E-01  0.90186889998E-01  0.51100000000E-03 0. -1.
         11    1    4    4    0    0 -0.50612787044E-02  0.38268621081E-01 -0.99687010728E-02  0.39871544034E-01  0.51100000000E-03 0.  1.
</event>
<event>
 8    1  0.1088270E+005  0.1043930E+01  0.7957747E-01            NaN
         13   -1    0    0    0    0  0.00000000000E+00  0.00000000000E+00  0.74505805969E-08  0.10566000000E+00  0.10566000000E+00 0. -1.
     999900   -1    0    0    0    0 -0.00000000000E+00 -0.00000000000E+00 -0.74505805969E-08  0.93827000000E+00  0.93827000000E+00 0.  1.
     999902    2    1    2    0    0 -0.55551140712E-02 -0.21050412062E-01 -0.84386124293E-02  0.10205807105E+01  0.10203135779E+01 0.  0.
     999903    2    3    3    0    0  0.96904357425E-01  0.29561121566E-02 -0.85749372148E-01  0.13094527389E+00  0.19862448089E-01 0.  0.
         14    1    1    2    0    0  0.55551140712E-02  0.21050412062E-01  0.84386124293E-02  0.23349289497E-01  0.00000000000E+00 0.  1.
     999901    1    3    3    0    0 -0.10245947150E+00 -0.24006524218E-01  0.77310759718E-01  0.88963543661E+00  0.88000000000E+00 0.  1.
        -11    1    4    4    0    0  0.31063021824E-01 -0.40937061075E-02 -0.17678933203E-01  0.35978820919E-01  0.51100000000E-03 0. -1.
         11    1    4    4    0    0  0.65841335601E-01  0.70498182641E-02 -0.68070438945E-01  0.94966452974E-01  0.51100000000E-03 0.  1.
</event>
<event>
 8    1  0.1088270E+005  0.1043930E+01  0.7957747E-01            NaN
         13   -1    0    0    0    0  0.00000000000E+00  0.00000000000E+00  0.74505805969E-08  0.10566000000E+00  0.10566000000E+00 0.  1.
     999900   -1    0    0    0    0 -0.00000000000E+00 -0.00000000000E+00 -0.74505805969E-08  0.93827000000E+00  0.93827000000E+00 0.  1.
     999902    2    1    2    0    0 -0.18837882739E-01 -0.84616362165E-02  0.11558071264E-01  0.10202645373E+01  0.10199900352E+01 0.  0.
     999903    2    3    3    0    0  0.72242202428E-01 -0.70094428169E-01  0.81103842714E-01  0.13069677862E+00  0.19278225175E-01 0.  0.
         14    1    1    2    0    0  0.18837882739E-01  0.84616362165E-02 -0.11558071264E-01  0.23665462702E-01  0.00000000000E+00 0. -1.
     999901    1    3    3    0    0 -0.91080085167E-01  0.61632791953E-01 -0.69545771450E-01  0.88956775868E+00  0.88000000000E+00 0.  1.
        -11    1    4    4    0    0  0.57217957415E-01 -0.54173074119E-01  0.52544341851E-01  0.94708952016E-01  0.51100000000E-03 0. -1.
         11    1    4    4    0    0  0.15024245013E-01 -0.15921354050E-01  0.28559500862E-01  0.35987826601E-01  0.51100000000E-03 0.  1.
</event>
<event>
 8    1  0.1088270E+005  0.1043930E+01  0.7957747E-01            NaN
         13   -1    0    0    0    0  0.00000000000E+00  0.00000000000E+00  0.74505805969E-08  0.10566000000E+00  0.10566000000E+00 0. -1.
     999900   -1    0    0    0    0 -0.00000000000E+00 -0.00000000000E+00 -0.74505805969E-08  0.93827000000E+00  0.93827000000E+00 0.  1.
     999902    2    1    2    0    0  0.30121251481E-03 -0.23879319362E-01 -0.11252729449E-02  0.10200222845E+01  0.10197420664E+01 0.  0.
     999903    2    3    3    0    0  0.32217878042E-01  0.12119636441E+00  0.10909984176E-01  0.12749190686E+00  0.20214058195E-01 0.  0.
         14    1    1    2    0    0 -0.30121251481E-03  0.23879319362E-01  0.11252729449E-02  0.23907715520E-01  0.00000000000E+00 0. -1.
     999901    1    3    3    0    0 -0.31916665527E-01 -0.14507568377E+00 -0.12035257121E-01  0.89253037762E+00  0.88000000000E+00 0. -1.
        -11    1    4    4    0    0  0.21525542296E-01  0.44569347136E-01  0.73338472652E-02  0.50038206522E-01  0.51100000000E-03 0. -1.
         11    1    4    4    0    0  0.10692335746E-01  0.76627017273E-01  0.35761369109E-02  0.77453700338E-01  0.51100000000E-03 0.  1.
</event>
<event>
 8    1  0.1088270E+005  0.1043930E+01  0.7957747E-01            NaN
         13   -1    0    0    0    0  0.00000000000E+00  0.00000000000E+00  0.74505805969E-08  0.10566000000E+00  0.10566000000E+00 0. -1.
     999900   -1    0    0    0    0 -0.00000000000E+00 -0.00000000000E+00 -0.74505805969E-08  0.93827000000E+00  0.93827000000E+00 0.  1.
     999902    2    1    2    0    0 -0.21216384227E-01 -0.68025187265E-02  0.79137861323E-02  0.10202860318E+01  0.10200120340E+01 0.  0.
     999903    2    3    3    0    0  0.70838999645E-01 -0.10649862255E+00 -0.87422557727E-02  0.12972950326E+00  0.19829183116E-01 0.  0.
         14    1    1    2    0    0  0.21216384227E-01  0.68025187265E-02 -0.79137861323E-02  0.23643968188E-01  0.00000000000E+00 0.  1.
     999901    1    3    3    0    0 -0.92055383872E-01  0.99696103828E-01  0.16656041905E-01  0.89055652855E+00  0.88000000000E+00 0.  1.
        -11    1    4    4    0    0  0.26363407177E-01 -0.49890432523E-01  0.41899303611E-02  0.56585343799E-01  0.51100000000E-03 0. -1.
         11    1    4    4    0    0  0.44475592467E-01 -0.56608190031E-01 -0.12932186134E-01  0.73144159460E-01  0.51100000000E-03 0.  1.
</event>
<event>
 8    1  0.1088270E+005  0.1043930E+01  0.7957747E-01            NaN
         13   -1    0    0    0    0  0.00000000000E+00  0.00000000000E+00  0.74505805969E-08  0.10566000000E+00  0.10566000000E+00 0.  1.
     999900   -1    0    0    0    0 -0.00000000000E+00 -0.00000000000E+00 -0.74505805969E-08  0.93827000000E+00  0.93827000000E+00 0. -1.
     999902    2    1    2    0    0  0.20610244221E-01  0.26584093979E-03 -0.10934358979E-01  0.10205973395E+01  0.10203305917E+01 0.  0.
     999903    2    3    3    0    0 -0.81020074867E-01  0.27120473391E-01 -0.96324359091E-01  0.13023710616E+00  0.19584408584E-01 0.  0.
         14    1    1    2    0    0 -0.20610244221E-01 -0.26584093979E-03  0.10934358979E-01  0.23332660468E-01  0.00000000000E+00 0. -1.
     999901    1    3    3    0    0  0.10163031909E+00 -0.26854632451E-01  0.85390000111E-01  0.89036023337E+00  0.88000000000E+00 0. -1.
        -11    1    4    4    0    0 -0.13563851454E-01  0.10217041856E-01 -0.27966546151E-01  0.32722390426E-01  0.51100000000E-03 0.  1.
         11    1    4    4    0    0 -0.67456223413E-01  0.16903431535E-01 -0.68357812940E-01  0.97514715739E-01  0.51100000000E-03 0. -1.
</event>
<event>
 8    1  0.1088270E+005  0.1043930E+01  0.7957747E-01            NaN
         13   -1    0    0    0    0  0.00000000000E+00  0.00000000000E+00  0.74505805969E-08  0.10566000000E+00  0.10566000000E+00 0. -1.
     999900   -1    0    0    0    0 -0.00000000000E+00 -0.00000000000E+00 -0.74505805969E-08  0.93827000000E+00  0.93827000000E+00 0.  1.
     999902    2    1    2    0    0  0.33896327044E-02  0.23397315037E-01 -0.34839903298E-02  0.10200330933E+01  0.10197531315E+01 0.  0.
     999903    2    3    3    0    0 -0.33233165874E-01  0.11281421530E+00 -0.58784873164E-01  0.13301855055E+00  0.20168861873E-01 0.  0.
         14    1    1    2    0    0 -0.33896327044E-02 -0.23397315037E-01  0.34839903298E-02  0.23896906691E-01  0.00000000000E+00 0. -1.
     999901    1    3    3    0    0  0.36622798579E-01 -0.89416900262E-01  0.55300882834E-01  0.88701454276E+00  0.88000000000E+00 0. -1.
        -11    1    4    4    0    0 -0.36223331498E-02  0.36893488645E-01 -0.11576655476E-01  0.38839810438E-01  0.51100000000E-03 0.  1.
         11    1    4    4    0    0 -0.29610832725E-01  0.75920726654E-01 -0.47208217688E-01  0.94178740109E-01  0.51100000000E-03 0. -1.
</event>
<event>
 8    1  0.1088270E+005  0.1043930E+01  0.7957747E-01            NaN
         13   -1    0    0    0    0  0.00000000000E+00  0.00000000000E+00  0.74505805969E-08  0.10566000000E+00  0.10566000000E+00 0.  1.
     999900   -1    0    0    0    0 -0.00000000000E+00 -0.00000000000E+00 -0.74505805969E-08  0.93827000000E+00  0.93827000000E+00 0.  1.
     999902    2    1    2    0    0 -0.19468713578E-01  0.91141953493E-02  0.97234028744E-02  0.10203366974E+01  0.10200638863E+01 0.  0.
     999903    2    3    3    0    0 -0.20752991562E-01 -0.25500814612E-02 -0.12654002591E+00  0.12977203002E+00  0.19779080980E-01 0.  0.
         14    1    1    2    0    0  0.19468713578E-01 -0.91141953493E-02 -0.97234028744E-02  0.23593302624E-01  0.00000000000E+00 0. -1.
     999901    1    3    3    0    0  0.12842779834E-02  0.11664276811E-01  0.13626342878E+00  0.89056466736E+00  0.88000000000E+00 0. -1.
        -11    1    4    4    0    0 -0.77983017601E-02 -0.36541153313E-02 -0.98308271748E-01  0.98686085565E-01  0.51100000000E-03 0. -1.
         11    1    4    4    0    0 -0.12954689802E-01  0.11040338701E-02 -0.28231754159E-01  0.31085944453E-01  0.51100000000E-03 0.  1.
</event>
<event>
 8    1  0.1088270E+005  0.1043930E+01  0.7957747E-01            NaN
         13   -1    0    0    0    0  0.00000000000E+00  0.00000000000E+00  0.74505805969E-08  0.10566000000E+00  0.10566000000E+00 0.  1.
     999900   -1    0    0    0    0 -0.00000000000E+00 -0.00000000000E+00 -0.74505805969E-08  0.93827000000E+00  0.93827000000E+00 0. -1.
     999902    2    1    2    0    0 -0.23533135595E-01  0.34197578424E-02 -0.40610825409E-02  0.10198054149E+01  0.10195200286E+01 0.  0.
     999903    2    3    3    0    0  0.88098570832E-01  0.72029033397E-02  0.90776745725E-01  0.12768985976E+00  0.15844327711E-01 0.  0.
         14    1    1    2    0    0  0.23533135595E-01 -0.34197578424E-02  0.40610825409E-02  0.24124585095E-01  0.00000000000E+00 0.  1.
     999901    1    3    3    0    0 -0.11163170643E+00 -0.37831454973E-02 -0.94837828266E-01  0.89211555515E+00  0.88000000000E+00 0.  1.
        -11    1    4    4    0    0  0.17392984715E-01  0.36989637826E-02  0.10502506342E-01  0.20658218966E-01  0.51100000000E-03 0.  1.
         11    1    4    4    0    0  0.70705586117E-01  0.35039395572E-02  0.80274239383E-01  0.10703164079E+00  0.51100000000E-03 0. -1.
</event>
<event>
 8    1  0.1088270E+005  0.1043930E+01  0.7957747E-01            NaN
         13   -1    0    0    0    0  0.00000000000E+00  0.00000000000E+00  0.74505805969E-08  0.10566000000E+00  0.10566000000E+00 0.  1.
     999900   -1    0    0    0    0 -0.00000000000E+00 -0.00000000000E+00 -0.74505805969E-08  0.93827000000E+00  0.93827000000E+00 0. -1.
     999902    2    1    2    0    0 -0.20547010386E-02 -0.15927909114E-01  0.14621327443E-01  0.10222112684E+01  0.10219805155E+01 0.  0.
     999903    2    3    3    0    0  0.79588691030E-01  0.18121342418E-01  0.10163269238E+00  0.13350660847E+00  0.28845581172E-01 0.  0.
         14    1    1    2    0    0  0.20547010386E-02  0.15927909114E-01 -0.14621327443E-01  0.21718731577E-01  0.00000000000E+00 0. -1.
     999901    1    3    3    0    0 -0.81643392068E-01 -0.34049251533E-01 -0.87011364938E-01  0.88870465996E+00  0.88000000000E+00 0. -1.
        -11    1    4    4    0    0  0.35350134582E-01  0.19583443982E-01  0.62469653662E-01  0.74403373867E-01  0.51100000000E-03 0. -1.
         11    1    4    4    0    0  0.44238556448E-01 -0.14621015636E-02  0.39163038718E-01  0.59103234600E-01  0.51100000000E-03 0.  1.
</event>
<event>
 8    1  0.1088270E+005  0.1043930E+01  0.7957747E-01            NaN
         13   -1    0    0    0    0  0.00000000000E+00  0.00000000000E+00  0.74505805969E-08  0.10566000000E+00  0.10566000000E+00 0. -1.
     999900   -1    0    0    0    0 -0.00000000000E+00 -0.00000000000E+00 -0.74505805969E-08  0.93827000000E+00  0.93827000000E+00 0.  1.
     999902    2    1    2    0    0 -0.74340513879E-02  0.95778092283E-02 -0.20677777818E-01  0.10199598092E+01  0.10196781073E+01 0.  0.
     999903    2    3    3    0    0  0.20964021121E-01  0.41323646794E-01 -0.12322268991E+00  0.13298195849E+00  0.18794573928E-01 0.  0.
         14    1    1    2    0    0  0.74340513879E-02 -0.95778092283E-02  0.20677777818E-01  0.23970190762E-01  0.00000000000E+00 0. -1.
     999901    1    3    3    0    0 -0.28398072509E-01 -0.31745837565E-01  0.10254491209E+00  0.88697785075E+00  0.88000000000E+00 0. -1.
        -11    1    4    4    0    0  0.16569299433E-01  0.14199710501E-01 -0.65708139946E-01  0.69238675884E-01  0.51100000000E-03 0. -1.
         11    1    4    4    0    0  0.43947216877E-02  0.27123936293E-01 -0.57514549963E-01  0.63743282604E-01  0.51100000000E-03 0.  1.
</event>
<event>
 8    1  0.1088270E+005  0.1043930E+01  0.7957747E-01            NaN
         13   -1    0    0    0    0  0.00000000000E+00  0.00000000000E+00  0.74505805969E-08  0.10566000000E+00  0.10566000000E+00 0.  1.
     999900   -1    0    0    0    0 -0.00000000000E+00 -0.00000000000E+00 -0.74505805969E-08  0.93827000000E+00  0.93827000000E+00 0. -1.
     999902    2    1    2    0    0  0.16922126659E-01  0.15689533349E-01  0.33140448218E-02  0.10206168552E+01  0.10203505586E+01 0.  0.
     999903    2    3    3    0    0 -0.63498131822E-01 -0.98776344320E-01  0.48060018319E-01  0.12844419407E+00  0.19984160915E-01 0.  0.
         14    1    1    2    0    0 -0.16922126659E-01 -0.15689533349E-01 -0.33140448218E-02  0.23313144799E-01  0.00000000000E+00 0.  1.
     999901    1    3    3    0    0  0.80420258481E-01  0.11446587767E+00 -0.44745973497E-01  0.89217266113E+00  0.88000000000E+00 0.  1.
        -11    1    4    4    0    0 -0.21875988228E-01 -0.41578643015E-01  0.28873352117E-01  0.55147747002E-01  0.51100000000E-03 0. -1.
         11    1    4    4    0    0 -0.41622143594E-01 -0.57197701305E-01  0.19186666202E-01  0.73296447068E-01  0.51100000000E-03 0.  1.
</event>
<event>
 8    1  0.1088270E+005  0.1043930E+01  0.7957747E-01            NaN
         13   -1    0    0    0    0  0.00000000000E+00  0.00000000000E+00  0.74505805969E-08  0.10566000000E+00  0.10566000000E+00 0. -1.
     999900   -1    0    0    0    0 -0.00000000000E+00 -0.00000000000E+00 -0.74505805969E-08  0.93827000000E+00  0.93827000000E+00 0.  1.
     999902    2    1    2    0    0 -0.15998324899E-01  0.14154722676E-01  0.93593241848E-02  0.10206083465E+01  0.10203418532E+01 0.  0.
     999903    2    3    3    0    0 -0.10512478652E-01 -0.11070705403E+00  0.64194449968E-01  0.13008746025E+00  0.20862787153E-01 0.  0.
         14    1    1    2    0    0  0.15998324899E-01 -0.14154722676E-01 -0.93593241848E-02  0.23321653518E-01  0.00000000000E+00 0.  1.
     999901    1    3    3    0    0 -0.54858462470E-02  0.12486177671E+00 -0.54835125783E-01  0.89052088623E+00  0.88000000000E+00 0.  1.
        -11    1    4    4    0    0 -0.12977543152E-02 -0.92143144089E-01  0.48893730886E-01  0.10432114460E+00  0.51100000000E-03 0. -1.
         11    1    4    4    0    0 -0.92147243370E-02 -0.18563909945E-01  0.15300719082E-01  0.25766315656E-01  0.51100000000E-03 0.  1.
</event>
<event>
 8    1  0.1088270E+005  0.1043930E+01  0.7957747E-01            NaN
         13   -1    0    0    0    0  0.00000000000E+00  0.00000000000E+00  0.74505805969E-08  0.10566000000E+00  0.10566000000E+00 0.  1.
     999900   -1    0    0    0    0 -0.00000000000E+00 -0.00000000000E+00 -0.74505805969E-08  0.93827000000E+00  0.93827000000E+00 0. -1.
     999902    2    1    2    0    0 -0.21008198890E-03 -0.22653472554E-01  0.73648538811E-02  0.10201084756E+01  0.10198302981E+01 0.  0.
     999903    2    3    3    0    0  0.12678393629E+00  0.11409514868E-01 -0.17130208514E-01  0.13000298976E+00  0.20074605211E-01 0.  0.
         14    1    1    2    0    0  0.21008198890E-03  0.22653472554E-01 -0.73648538811E-02  0.23821524424E-01  0.00000000000E+00 0. -1.
     999901    1    3    3    0    0 -0.12699401827E+00 -0.34062987422E-01  0.24495062395E-01  0.89010548581E+00  0.88000000000E+00 0.  1.
        -11    1    4    4    0    0  0.32974679484E-01 -0.58212344055E-02 -0.42250062673E-02  0.33753933934E-01  0.51100000000E-03 0. -1.
         11    1    4    4    0    0  0.93809256802E-01  0.17230749273E-01 -0.12905202247E-01  0.96249055830E-01  0.51100000000E-03 0.  1.
</event>
<event>
 8    1  0.1088270E+005  0.1043930E+01  0.7957747E-01            NaN
         13   -1    0    0    0    0  0.00000000000E+00  0.00000000000E+00  0.74505805969E-08  0.10566000000E+00  0.10566000000E+00 0. -1.
     999900   -1    0    0    0    0 -0.00000000000E+00 -0.00000000000E+00 -0.74505805969E-08  0.93827000000E+00  0.93827000000E+00 0.  1.
     999902    2    1    2    0    0 -0.98345432774E-02 -0.13943711268E-01  0.16146847395E-01  0.10204381715E+01  0.10201677293E+01 0.  0.
     999903    2    3    3    0    0 -0.17743012785E-01  0.12500719412E+00  0.20438349671E-01  0.12949018481E+00  0.20208135527E-01 0.  0.
         14    1    1    2    0    0  0.98345432774E-02  0.13943711268E-01 -0.16146847395E-01  0.23491828499E-01  0.00000000000E+00 0.  1.
     999901    1    3    3    0    0  0.79084695079E-02 -0.13895090538E+00 -0.42915022754E-02  0.89094798669E+00  0.88000000000E+00 0. -1.
        -11    1    4    4    0    0 -0.88604860971E-02  0.15480647854E-01  0.49385527148E-02  0.18515104530E-01  0.51100000000E-03 0.  1.
         11    1    4    4    0    0 -0.88825266882E-02  0.10952654626E+00  0.15499796956E-01  0.11097508028E+00  0.51100000000E-03 0. -1.
</event>
<event>
 8    1  0.1088270E+005  0.1043930E+01  0.7957747E-01            NaN
         13   -1    0    0    0    0  0.00000000000E+00  0.00000000000E+00  0.74505805969E-08  0.10566000000E+00  0.10566000000E+00 0. -1.
     999900   -1    0    0    0    0 -0.00000000000E+00 -0.00000000000E+00 -0.74505805969E-08  0.93827000000E+00  0.93827000000E+00 0.  1.
     999902    2    1    2    0    0 -0.18651420536E-01 -0.86627498070E-02  0.11914669451E-01  0.10201628363E+01  0.10198859419E+01 0.  0.
     999903    2    3    3    0    0  0.94432946158E-01  0.36744184786E-01 -0.74790857181E-01  0.12754437803E+00  0.20153898204E-01 0.  0.
         14    1    1    2    0    0  0.18651420536E-01  0.86627498070E-02 -0.11914669451E-01  0.23767163700E-01  0.00000000000E+00 0.  1.
     999901    1    3    3    0    0 -0.11308436669E+00 -0.45406934593E-01  0.86705526632E-01  0.89261845827E+00  0.88000000000E+00 0. -1.
        -11    1    4    4    0    0  0.61386381107E-01  0.33718954371E-01 -0.53159695755E-01  0.87928778242E-01  0.51100000000E-03 0.  1.
         11    1    4    4    0    0  0.33046565051E-01  0.30252304145E-02 -0.21631161426E-01  0.39615599786E-01  0.51100000000E-03 0. -1.
</event>
<event>
 8    1  0.1088270E+005  0.1043930E+01  0.7957747E-01            NaN
         13   -1    0    0    0    0  0.00000000000E+00  0.00000000000E+00  0.74505805969E-08  0.10566000000E+00  0.10566000000E+00 0. -1.
     999900   -1    0    0    0    0 -0.00000000000E+00 -0.00000000000E+00 -0.74505805969E-08  0.93827000000E+00  0.93827000000E+00 0.  1.
     999902    2    1    2    0    0  0.74406627425E-02  0.22479629021E-01 -0.85310495724E-03  0.10202355920E+01  0.10199604101E+01 0.  0.
     999903    2    3    3    0    0  0.12042925190E+00  0.48977840516E-01 -0.15732306823E-01  0.13249127793E+00  0.20109691056E-01 0.  0.
         14    1    1    2    0    0 -0.74406627425E-02 -0.22479629021E-01  0.85310495724E-03  0.23694408012E-01  0.00000000000E+00 0. -1.
     999901    1    3    3    0    0 -0.11298858916E+00 -0.26498211495E-01  0.14879201865E-01  0.88774431406E+00  0.88000000000E+00 0.  1.
        -11    1    4    4    0    0  0.59749282647E-01  0.35119573482E-01 -0.85825872343E-02  0.69837548232E-01  0.51100000000E-03 0. -1.
         11    1    4    4    0    0  0.60679969255E-01  0.13858267035E-01 -0.71497195883E-02  0.62653729699E-01  0.51100000000E-03 0.  1.
</event>
<event>
 8    1  0.1088270E+005  0.1043930E+01  0.7957747E-01            NaN
         13   -1    0    0    0    0  0.00000000000E+00  0.00000000000E+00  0.74505805969E-08  0.10566000000E+00  0.10566000000E+00 0.  1.
     999900   -1    0    0    0    0 -0.00000000000E+00 -0.00000000000E+00 -0.74505805969E-08  0.93827000000E+00  0.93827000000E+00 0.  1.
     999902    2    1    2    0    0 -0.20756497611E-01  0.45406471842E-02 -0.69169661652E-02  0.10215851104E+01  0.10213407089E+01 0.  0.
     999903    2    3    3    0    0 -0.12132953332E-01  0.45635492360E-01  0.12093854231E+00  0.13135470042E+00  0.19952934290E-01 0.  0.
         14    1    1    2    0    0  0.20756497611E-01 -0.45406471842E-02  0.69169661652E-02  0.22344889592E-01  0.00000000000E+00 0. -1.
     999901    1    3    3    0    0 -0.86235442797E-02 -0.41094845175E-01 -0.12785550848E+00  0.89023040999E+00  0.88000000000E+00 0.  1.
        -11    1    4    4    0    0 -0.10164330564E-01  0.83613436316E-02  0.42348871345E-01  0.44349900883E-01  0.51100000000E-03 0. -1.
         11    1    4    4    0    0 -0.19686227678E-02  0.37274148728E-01  0.78589670968E-01  0.87004799539E-01  0.51100000000E-03 0.  1.
</event>
<event>
 8    1  0.1088270E+005  0.1043930E+01  0.7957747E-01            NaN
         13   -1    0    0    0    0  0.00000000000E+00  0.00000000000E+00  0.74505805969E-08  0.10566000000E+00  0.10566000000E+00 0.  1.
     999900   -1    0    0    0    0 -0.00000000000E+00 -0.00000000000E+00 -0.74505805969E-08  0.93827000000E+00  0.93827000000E+00 0. -1.
     999902    2    1    2    0    0 -0.36510898421E-02  0.20085964315E-01 -0.12178697762E-01  0.10201582290E+01  0.10198812259E+01 0.  0.
     999903    2    3    3    0    0 -0.16666963022E-01  0.44965541817E-01  0.11913946023E+00  0.12997124582E+00  0.19965624166E-01 0.  0.
         14    1    1    2    0    0  0.36510898421E-02 -0.20085964315E-01  0.12178697762E-01  0.23771771046E-01  0.00000000000E+00 0. -1.
     999901    1    3    3    0    0  0.13015873180E-01 -0.24879577503E-01 -0.13131815799E+00  0.89018698314E+00  0.88000000000E+00 0. -1.
        -11    1    4    4    0    0 -0.17103081641E-02 -0.67035940297E-03  0.16968140874E-01  0.17074936646E-01  0.51100000000E-03 0.  1.
         11    1    4    4    0    0 -0.14956654858E-01  0.45635901220E-01  0.10217131935E+00  0.11289630917E+00  0.51100000000E-03 0. -1.
</event>
<event>
 8    1  0.1088270E+005  0.1043930E+01  0.7957747E-01            NaN
         13   -1    0    0    0    0  0.00000000000E+00  0.00000000000E+00  0.74505805969E-08  0.10566000000E+00  0.10566000000E+00 0.  1.
     999900   -1    0    0    0    0 -0.00000000000E+00 -0.00000000000E+00 -0.74505805969E-08  0.93827000000E+00  0.93827000000E+00 0.  1.
     999902    2    1    2    0    0 -0.11707032132E-01 -0.19446819284E-01  0.51943256305E-02  0.10206445024E+01  0.10203788443E+01 0.  0.
     999903    2    3    3    0    0 -0.89604524893E-01  0.91858427748E-01  0.91470675658E-02  0.13021061848E+00  0.20104593749E-01 0.  0.
         14    1    1    2    0    0  0.11707032132E-01  0.19446819284E-01 -0.51943256305E-02  0.23285497640E-01  0.00000000000E+00 0. -1.
     999901    1    3    3    0    0  0.77897492761E-01 -0.11130524703E+00 -0.39527419353E-02  0.89043388388E+00  0.88000000000E+00 0.  1.
        -11    1    4    4    0    0 -0.14619503655E-01  0.57872100298E-02  0.13853849943E-02  0.15792469713E-01  0.51100000000E-03 0. -1.
         11    1    4    4    0    0 -0.74985021238E-01  0.86071217718E-01  0.77616825715E-02  0.11441814877E+00  0.51100000000E-03 0.  1.
</event>
<event>
 8    1  0.1088270E+005  0.1043930E+01  0.7957747E-01            NaN
         13   -1    0    0    0    0  0.00000000000E+00  0.00000000000E+00  0.74505805969E-08  0.10566000000E+00  0.10566000000E+00 0. -1.
     999900   -1    0    0    0    0 -0.00000000000E+00 -0.00000000000E+00 -0.74505805969E-08  0.93827000000E+00  0.93827000000E+00 0.  1.
     999902    2    1    2    0    0 -0.11019792184E-01 -0.15853234193E-01  0.13968457558E-01  0.10200997952E+01  0.10198214126E+01 0.  0.
     999903    2    3    3    0    0 -0.46017414420E-02 -0.69195780516E-01  0.11117419384E+00  0.13311863769E+00  0.23486980604E-01 0.  0.
         14    1    1    2    0    0  0.11019792184E-01  0.15853234193E-01 -0.13968457558E-01  0.23830204798E-01  0.00000000000E+00 0.  1.
     999901    1    3    3    0    0 -0.64180507419E-02  0.53342546323E-01 -0.97205736281E-01  0.88698115752E+00  0.88000000000E+00 0.  1.
        -11    1    4    4    0    0 -0.13212457446E-01 -0.41108694250E-01  0.57258387770E-01  0.71716649850E-01  0.51100000000E-03 0. -1.
         11    1    4    4    0    0  0.86107160043E-02 -0.28087086266E-01  0.53915806070E-01  0.61401987835E-01  0.51100000000E-03 0.  1.
</event>
<event>
 8    1  0.1088270E+005  0.1043930E+01  0.7957747E-01            NaN
         13   -1    0    0    0    0  0.00000000000E+00  0.00000000000E+00  0.74505805969E-08  0.10566000000E+00  0.10566000000E+00 0. -1.
     999900   -1    0    0    0    0 -0.00000000000E+00 -0.00000000000E+00 -0.74505805969E-08  0.93827000000E+00  0.93827000000E+00 0. -1.
     999902    2    1    2    0    0 -0.20974740376E-01  0.13303356236E-01 -0.11007576498E-01  0.10167622662E+01  0.10163992425E+01 0.  0.
     999903    2    3    3    0    0  0.12171167342E+00  0.21213023316E-01 -0.13315887614E-02  0.12518187145E+00  0.20124711312E-01 0.  0.
         14    1    1    2    0    0  0.20974740376E-01 -0.13303356236E-01  0.11007576498E-01  0.27167733828E-01  0.00000000000E+00 0. -1.
     999901    1    3    3    0    0 -0.14268641380E+00 -0.79096670805E-02 -0.96759877364E-02  0.89158039472E+00  0.88000000000E+00 0. -1.
        -11    1    4    4    0    0  0.94831881876E-01  0.24791315619E-01  0.13927992402E-03  0.98020281933E-01  0.51100000000E-03 0. -1.
         11    1    4    4    0    0  0.26879791546E-01 -0.35782923023E-02 -0.14708686854E-02  0.27161589516E-01  0.51100000000E-03 0.  1.
</event>
<event>
 8    1  0.1088270E+005  0.1043930E+01  0.7957747E-01            NaN
         13   -1    0    0    0    0  0.00000000000E+00  0.00000000000E+00  0.74505805969E-08  0.10566000000E+00  0.10566000000E+00 0.  1.
     999900   -1    0    0    0    0 -0.00000000000E+00 -0.00000000000E+00 -0.74505805969E-08  0.93827000000E+00  0.93827000000E+00 0. -1.
     999902    2    1    2    0    0  0.43643620161E-03 -0.11016773538E-01 -0.20480591993E-01  0.10206702832E+01  0.10204052198E+01 0.  0.
     999903    2    3    3    0    0  0.14393680883E-02 -0.79455931337E-01 -0.10522797615E+00  0.13395328029E+00  0.23563478736E-01 0.  0.
         14    1    1    2    0    0 -0.43643620161E-03  0.11016773538E-01  0.20480591993E-01  0.23259716768E-01  0.00000000000E+00 0.  1.
     999901    1    3    3    0    0 -0.10029318867E-02  0.68439157799E-01  0.84747384155E-01  0.88671700295E+00  0.88000000000E+00 0.  1.
        -11    1    4    4    0    0 -0.17537547426E-02 -0.66746086201E-01 -0.71821979206E-01  0.98065149247E-01  0.51100000000E-03 0. -1.
         11    1    4    4    0    0  0.31931228309E-02 -0.12709845136E-01 -0.33405996942E-01  0.35888131039E-01  0.51100000000E-03 0.  1.
</event>
<event>
 8    1  0.1088270E+005  0.1043930E+01  0.7957747E-01            NaN
         13   -1    0    0    0    0  0.00000000000E+00  0.00000000000E+00  0.74505805969E-08  0.10566000000E+00  0.10566000000E+00 0.  1.
     999900   -1    0    0    0    0 -0.00000000000E+00 -0.00000000000E+00 -0.74505805969E-08  0.93827000000E+00  0.93827000000E+00 0.  1.
     999902    2    1    2    0    0  0.12151164543E-02 -0.19477453656E-02  0.24112537841E-01  0.10197084249E+01  0.10194207115E+01 0.  0.
     999903    2    3    3    0    0  0.69379872974E-01 -0.91535134369E-01 -0.55057874630E-01  0.12901190613E+00  0.20504993735E-01 0.  0.
         14    1    1    2    0    0 -0.12151164543E-02  0.19477453656E-02 -0.24112537841E-01  0.24221575117E-01  0.00000000000E+00 0. -1.
     999901    1    3    3    0    0 -0.68164756520E-01  0.89587389003E-01  0.79170412471E-01  0.89069651875E+00  0.88000000000E+00 0. -1.
        -11    1    4    4    0    0  0.37281108997E-01 -0.41731398704E-01 -0.16597838810E-01  0.58370712690E-01  0.51100000000E-03 0. -1.
         11    1    4    4    0    0  0.32098763977E-01 -0.49803735665E-01 -0.38460035820E-01  0.70641193445E-01  0.51100000000E-03 0.  1.
</event>
<event>
 8    1  0.1088270E+005  0.1043930E+01  0.7957747E-01            NaN
         13   -1    0    0    0    0  0.00000000000E+00  0.00000000000E+00  0.74505805969E-08  0.10566000000E+00  0.10566000000E+00 0. -1.
     999900   -1    0    0    0    0 -0.00000000000E+00 -0.00000000000E+00 -0.74505805969E-08  0.93827000000E+00  0.93827000000E+00 0.  1.
     999902    2    1    2    0    0 -0.11462682362E-02  0.28691016321E-02 -0.23642164702E-01  0.10200868117E+01  0.10198081221E+01 0.  0.
     999903    2    3    3    0    0  0.10354716308E+00 -0.70213865178E-01  0.27002867199E-01  0.12943157324E+00  0.19271104487E-01 0.  0.
         14    1    1    2    0    0  0.11462682362E-02 -0.28691016321E-02  0.23642164702E-01  0.23843188269E-01  0.00000000000E+00 0. -1.
     999901    1    3    3    0    0 -0.10469343132E+00  0.73082966810E-01 -0.50645031901E-01  0.89065523849E+00  0.88000000000E+00 0.  1.
        -11    1    4    4    0    0  0.94795899472E-01 -0.67383816921E-01  0.20360401574E-01  0.11807475773E+00  0.51100000000E-03 0. -1.
         11    1    4    4    0    0  0.87512636101E-02 -0.28300482573E-02  0.66424656250E-02  0.11356815508E-01  0.51100000000E-03 0.  1.
</event>
<event>
 8    1  0.1088270E+005  0.1043930E+01  0.7957747E-01            NaN
         13   -1    0    0    0    0  0.00000000000E+00  0.00000000000E+00  0.74505805969E-08  0.10566000000E+00  0.10566000000E+00 0.  1.
     999900   -1    0    0    0    0 -0.00000000000E+00 -0.00000000000E+00 -0.74505805969E-08  0.93827000000E+00  0.93827000000E+00 0. -1.
     999902    2    1    2    0    0  0.16974497547E-01  0.16585406840E-01 -0.21095636801E-02  0.10201043931E+01  0.10198261191E+01 0.  0.
     999903    2    3    3    0    0 -0.11942208956E-01  0.12502066834E+00  0.36077262609E-01  0.13215584976E+00  0.19769063729E-01 0.  0.
         14    1    1    2    0    0 -0.16974497547E-01 -0.16585406840E-01  0.21095636801E-02  0.23825606937E-01  0.00000000000E+00 0.  1.
     999901    1    3    3    0    0  0.28916706503E-01 -0.10843526150E+00 -0.38186826289E-01  0.88794854330E+00  0.88000000000E+00 0.  1.
        -11    1    4    4    0    0 -0.32173478082E-04  0.90734734658E-01  0.23379797729E-01  0.93699888855E-01  0.51100000000E-03 0.  1.
         11    1    4    4    0    0 -0.11910035478E-01  0.34285933684E-01  0.12697464880E-01  0.38455960904E-01  0.51100000000E-03 0. -1.
</event>
<event>
 8    1  0.1088270E+005  0.1043930E+01  0.7957747E-01            NaN
         13   -1    0    0    0    0  0.00000000000E+00  0.00000000000E+00  0.74505805969E-08  0.10566000000E+00  0.10566000000E+00 0.  1.
     999900   -1    0    0    0    0 -0.00000000000E+00 -0.00000000000E+00 -0.74505805969E-08  0.93827000000E+00  0.93827000000E+00 0.  1.
     999902    2    1    2    0    0  0.13359878342E-01  0.75160481508E-02 -0.12018135593E-01  0.10244514756E+01  0.10242662803E+01 0.  0.
     999903    2    3    3    0    0 -0.35275223030E-01 -0.94173752358E-01  0.83174250670E-01  0.13216913296E+00  0.20920964114E-01 0.  0.
         14    1    1    2    0    0 -0.13359878342E-01 -0.75160481508E-02  0.12018135593E-01  0.19478524386E-01  0.00000000000E+00 0. -1.
     999901    1    3    3    0    0  0.48635101372E-01  0.10168980051E+00 -0.95192386263E-01  0.89228234266E+00  0.88000000000E+00 0.  1.
        -11    1    4    4    0    0 -0.18038274994E-01 -0.64865796139E-01  0.44675303397E-01  0.80802813862E-01  0.51100000000E-03 0. -1.
         11    1    4    4    0    0 -0.17236948036E-01 -0.29307956220E-01  0.38498947273E-01  0.51366319096E-01  0.51100000000E-03 0.  1.
</event>
<event>
 8    1  0.1088270E+005  0.1043930E+01  0.7957747E-01            NaN
         13   -1    0    0    0    0  0.00000000000E+00  0.00000000000E+00  0.74505805969E-08  0.10566000000E+00  0.10566000000E+00 0. -1.
     999900   -1    0    0    0    0 -0.00000000000E+00 -0.00000000000E+00 -0.74505805969E-08  0.93827000000E+00  0.93827000000E+00 0. -1.
     999902    2    1    2    0    0  0.21069072978E-01  0.71524274258E-02  0.83633911038E-02  0.10201600744E+01  0.10198831148E+01 0.  0.
     999903    2    3    3    0    0 -0.86038866274E-01  0.94837775842E-01  0.14630824669E-02  0.12931303629E+00  0.17967484735E-01 0.  0.
         14    1    1    2    0    0 -0.21069072978E-01 -0.71524274258E-02 -0.83633911038E-02  0.23769925641E-01  0.00000000000E+00 0. -1.
     999901    1    3    3    0    0  0.10710793925E+00 -0.87685348416E-01  0.69003086369E-02  0.89084703807E+00  0.88000000000E+00 0.  1.
        -11    1    4    4    0    0 -0.12231086404E-01  0.13199331266E-01 -0.60694447331E-02  0.18997923593E-01  0.51100000000E-03 0. -1.
         11    1    4    4    0    0 -0.73807779871E-01  0.81638444575E-01  0.75325272000E-02  0.11031511270E+00  0.51100000000E-03 0.  1.
</event>
<event>
 8    1  0.1088270E+005  0.1043930E+01  0.7957747E-01            NaN
         13   -1    0    0    0    0  0.00000000000E+00  0.00000000000E+00  0.74505805969E-08  0.10566000000E+00  0.10566000000E+00 0. -1.
     999900   -1    0    0    0    0 -0.00000000000E+00 -0.00000000000E+00 -0.74505805969E-08  0.93827000000E+00  0.93827000000E+00 0. -1.
     999902    2    1    2    0    0  0.34260467421E-02 -0.22589082748E-01 -0.67108375183E-02  0.10201174026E+01  0.10198394360E+01 0.  0.
     999903    2    3    3    0    0  0.11678345896E+00 -0.57173052841E-01  0.10321203865E-01  0.13200927610E+00  0.20317171765E-01 0.  0.
         14    1    1    2    0    0 -0.34260467421E-02  0.22589082748E-01  0.67108375183E-02  0.23812597420E-01  0.00000000000E+00 0.  1.
     999901    1    3    3    0    0 -0.11335741222E+00  0.34583970093E-01 -0.17032041383E-01  0.88810812648E+00  0.88000000000E+00 0. -1.
        -11    1    4    4    0    0  0.72262878103E-01 -0.45908116920E-01  0.47416437362E-02  0.85745105150E-01  0.51100000000E-03 0. -1.
         11    1    4    4    0    0  0.44520580857E-01 -0.11264935921E-01  0.55795601286E-02  0.46264170947E-01  0.51100000000E-03 0.  1.
</event>
<event>
 8    1  0.1088270E+005  0.1043930E+01  0.7957747E-01            NaN
         13   -1    0    0    0    0  0.00000000000E+00  0.00000000000E+00  0.74505805969E-08  0.10566000000E+00  0.10566000000E+00 0. -1.
     999900   -1    0    0    0    0 -0.00000000000E+00 -0.00000000000E+00 -0.74505805969E-08  0.93827000000E+00  0.93827000000E+00 0.  1.
     999902    2    1    2    0    0 -0.23476967508E-01  0.41118359787E-02  0.86938084712E-02  0.10185595939E+01  0.10182435803E+01 0.  0.
     999903    2    3    3    0    0 -0.11743125220E+00 -0.62390236327E-02  0.57110415905E-01  0.13217439788E+00  0.19479410684E-01 0.  0.
         14    1    1    2    0    0  0.23476967508E-01 -0.41118359787E-02 -0.86938084712E-02  0.25370406072E-01  0.00000000000E+00 0. -1.
     999901    1    3    3    0    0  0.93954284688E-01  0.10350859611E-01 -0.48416607434E-01  0.88638519605E+00  0.88000000000E+00 0.  1.
        -11    1    4    4    0    0 -0.38842188862E-01  0.52680141602E-02  0.25038227420E-01  0.46514960626E-01  0.51100000000E-03 0.  1.
         11    1    4    4    0    0 -0.78589063335E-01 -0.11507037793E-01  0.32072188486E-01  0.85659437249E-01  0.51100000000E-03 0. -1.
</event>
<event>
 8    1  0.1088270E+005  0.1043930E+01  0.7957747E-01            NaN
         13   -1    0    0    0    0  0.00000000000E+00  0.00000000000E+00  0.74505805969E-08  0.10566000000E+00  0.10566000000E+00 0. -1.
     999900   -1    0    0    0    0 -0.00000000000E+00 -0.00000000000E+00 -0.74505805969E-08  0.93827000000E+00  0.93827000000E+00 0. -1.
     999902    2    1    2    0    0  0.13327277255E-01  0.68912792633E-02  0.17314034469E-01  0.10210197002E+01  0.10207626297E+01 0.  0.
     999903    2    3    3    0    0 -0.76306798037E-01 -0.65405459866E-01 -0.77341388567E-01  0.12848357482E+00  0.20633395392E-01 0.  0.
         14    1    1    2    0    0 -0.13327277255E-01 -0.68912792633E-02 -0.17314034469E-01  0.22910299834E-01  0.00000000000E+00 0. -1.
     999901    1    3    3    0    0  0.89634075292E-01  0.72296739129E-01  0.94655423035E-01  0.89253612535E+00  0.88000000000E+00 0. -1.
        -11    1    4    4    0    0 -0.16003996949E-01 -0.23403451241E-01 -0.14817937738E-01  0.31995028491E-01  0.51100000000E-03 0. -1.
         11    1    4    4    0    0 -0.60302801088E-01 -0.42002008625E-01 -0.62523450828E-01  0.96488546326E-01  0.51100000000E-03 0.  1.
</event>
<event>
 8    1  0.1088270E+005  0.1043930E+01  0.7957747E-01            NaN
         13   -1    0    0    0    0  0.00000000000E+00  0.00000000000E+00  0.74505805969E-08  0.10566000000E+00  0.10566000000E+00 0.  1.
     999900   -1    0    0    0    0 -0.00000000000E+00 -0.00000000000E+00 -0.74505805969E-08  0.93827000000E+00  0.93827000000E+00 0. -1.
     999902    2    1    2    0    0 -0.22267759316E-01  0.96066294658E-02  0.14170290106E-02  0.10196370297E+01  0.10193475972E+01 0.  0.
     999903    2    3    3    0    0  0.96196058059E-01  0.71744187247E-01 -0.41567877562E-01  0.12849032219E+00  0.19518310945E-01 0.  0.
         14    1    1    2    0    0  0.22267759316E-01 -0.96066294658E-02 -0.14170290106E-02  0.24292970298E-01  0.00000000000E+00 0. -1.
     999901    1    3    3    0    0 -0.11846381738E+00 -0.62137557781E-01  0.42984906573E-01  0.89114670751E+00  0.88000000000E+00 0.  1.
        -11    1    4    4    0    0  0.18267052775E-01  0.96993295531E-02 -0.36426450061E-03  0.20691931289E-01  0.51100000000E-03 0.  1.
         11    1    4    4    0    0  0.77929005284E-01  0.62044857694E-01 -0.41203613062E-01  0.10779839090E+00  0.51100000000E-03 0. -1.
</event>
<event>
 8    1  0.1088270E+005  0.1043930E+01  0.7957747E-01            NaN
         13   -1    0    0    0    0  0.00000000000E+00  0.00000000000E+00  0.74505805969E-08  0.10566000000E+00  0.10566000000E+00 0.  1.
     999900   -1    0    0    0    0 -0.00000000000E+00 -0.00000000000E+00 -0.74505805969E-08  0.93827000000E+00  0.93827000000E+00 0.  1.
     999902    2    1    2    0    0 -0.13746240492E-01 -0.16371662429E-01 -0.47066546806E-03  0.10225474841E+01  0.10223238945E+01 0.  0.
     999903    2    3    3    0    0 -0.12693579339E+00  0.17103173056E-01  0.33789217602E-01  0.13400588181E+00  0.20264524714E-01 0.  0.
         14    1    1    2    0    0  0.13746240492E-01  0.16371662429E-01  0.47066546806E-03  0.21382515856E-01  0.00000000000E+00 0. -1.
     999901    1    3    3    0    0  0.11318955289E+00 -0.33474835484E-01 -0.34259883070E-01  0.88854160234E+00  0.88000000000E+00 0.  1.
        -11    1    4    4    0    0 -0.73072355880E-01  0.16200291589E-01  0.11600729769E-01  0.75742040464E-01  0.51100000000E-03 0. -1.
         11    1    4    4    0    0 -0.53863437505E-01  0.90288146692E-03  0.22188487833E-01  0.58263841344E-01  0.51100000000E-03 0.  1.
</event>
<event>
 8    1  0.1088270E+005  0.1043930E+01  0.7957747E-01            NaN
         13   -1    0    0    0    0  0.00000000000E+00  0.00000000000E+00  0.74505805969E-08  0.10566000000E+00  0.10566000000E+00 0.  1.
     999900   -1    0    0    0    0 -0.00000000000E+00 -0.00000000000E+00 -0.74505805969E-08  0.93827000000E+00  0.93827000000E+00 0. -1.
     999902    2    1    2    0    0 -0.10820889964E-01  0.94697107798E-02 -0.19147939746E-01  0.10199840050E+01  0.10197028781E+01 0.  0.
     999903    2    3    3    0    0 -0.53866837089E-01  0.10707532813E+00  0.48680460757E-01  0.13095053989E+00  0.20285329794E-01 0.  0.
         14    1    1    2    0    0  0.10820889964E-01 -0.94697107798E-02  0.19147939746E-01  0.23945995038E-01  0.00000000000E+00 0.  1.
     999901    1    3    3    0    0  0.43045947125E-01 -0.97605617355E-01 -0.67828400502E-01  0.88903346507E+00  0.88000000000E+00 0. -1.
        -11    1    4    4    0    0 -0.47203472090E-01  0.84208091833E-01  0.31385540461E-01  0.10151100324E+00  0.51100000000E-03 0.  1.
         11    1    4    4    0    0 -0.66633649982E-02  0.22867236302E-01  0.17294920296E-01  0.29439536651E-01  0.51100000000E-03 0. -1.
</event>
<event>
 8    1  0.1088270E+005  0.1043930E+01  0.7957747E-01            NaN
         13   -1    0    0    0    0  0.00000000000E+00  0.00000000000E+00  0.74505805969E-08  0.10566000000E+00  0.10566000000E+00 0. -1.
     999900   -1    0    0    0    0 -0.00000000000E+00 -0.00000000000E+00 -0.74505805969E-08  0.93827000000E+00  0.93827000000E+00 0.  1.
     999902    2    1    2    0    0  0.15844072859E-01 -0.12499667335E-01 -0.12063482723E-01  0.10204182169E+01  0.10201473097E+01 0.  0.
     999903    2    3    3    0    0 -0.72885697385E-01 -0.78117103288E-01  0.70601494701E-01  0.12968137670E+00  0.20447046233E-01 0.  0.
         14    1    1    2    0    0 -0.15844072859E-01  0.12499667335E-01  0.12063482723E-01  0.23511783081E-01  0.00000000000E+00 0. -1.
     999901    1    3    3    0    0  0.88729770244E-01  0.65617435953E-01 -0.82664977424E-01  0.89073684022E+00  0.88000000000E+00 0.  1.
        -11    1    4    4    0    0 -0.14629894644E-01 -0.26814246466E-01  0.13971411090E-01  0.33593140366E-01  0.51100000000E-03 0.  1.
         11    1    4    4    0    0 -0.58255802741E-01 -0.51302856822E-01  0.56630083611E-01  0.96088236335E-01  0.51100000000E-03 0. -1.
</event>
<event>
 8    1  0.1088270E+005  0.1043930E+01  0.7957747E-01            NaN
         13   -1    0    0    0    0  0.00000000000E+00  0.00000000000E+00  0.74505805969E-08  0.10566000000E+00  0.10566000000E+00 0.  1.
     999900   -1    0    0    0    0 -0.00000000000E+00 -0.00000000000E+00 -0.74505805969E-08  0.93827000000E+00  0.93827000000E+00 0.  1.
     999902    2    1    2    0    0  0.17117963133E-01  0.16754328453E-01  0.82076712011E-02  0.10186100859E+01  0.10182953447E+01 0.  0.
     999903    2    3    3    0    0  0.69926432161E-01 -0.35340372515E-01 -0.10048811362E+00  0.12882507483E+00  0.18957612783E-01 0.  0.
         14    1    1    2    0    0 -0.17117963133E-01 -0.16754328453E-01 -0.82076712011E-02  0.25319914105E-01  0.00000000000E+00 0. -1.
     999901    1    3    3    0    0 -0.52808469028E-01  0.52094700968E-01  0.10869578482E+00  0.88978501106E+00  0.88000000000E+00 0. -1.
        -11    1    4    4    0    0  0.46020577677E-01 -0.20479494560E-01 -0.49751646515E-01  0.70801064392E-01  0.51100000000E-03 0.  1.
         11    1    4    4    0    0  0.23905854483E-01 -0.14860877955E-01 -0.50736467108E-01  0.58024010442E-01  0.51100000000E-03 0. -1.
</event>
<event>
 8    1  0.1088270E+005  0.1043930E+01  0.7957747E-01            NaN
         13   -1    0    0    0    0  0.00000000000E+00  0.00000000000E+00  0.74505805969E-08  0.10566000000E+00  0.10566000000E+00 0. -1.
     999900   -1    0    0    0    0 -0.00000000000E+00 -0.00000000000E+00 -0.74505805969E-08  0.93827000000E+00  0.93827000000E+00 0.  1.
     999902    2    1    2    0    0  0.62238673503E-02 -0.71277303789E-02 -0.24546587282E-01  0.10176226624E+01  0.10172825601E+01 0.  0.
     999903    2    3    3    0    0  0.10855074354E+00 -0.56346639437E-01  0.33517894299E-01  0.12842933435E+00  0.20308544638E-01 0.  0.
         14    1    1    2    0    0 -0.62238673503E-02  0.71277303789E-02  0.24546587282E-01  0.26307337614E-01  0.00000000000E+00 0. -1.
     999901    1    3    3    0    0 -0.10232687619E+00  0.49218909058E-01 -0.58064481580E-01  0.88919332803E+00  0.88000000000E+00 0.  1.
        -11    1    4    4    0    0  0.65050914828E-01 -0.23419029948E-01  0.23001859199E-01  0.72865761035E-01  0.51100000000E-03 0. -1.
         11    1    4    4    0    0  0.43499828710E-01 -0.32927609489E-01  0.10516035100E-01  0.55563573317E-01  0.51100000000E-03 0.  1.
</event>
<event>
 8    1  0.1088270E+005  0.1043930E+01  0.7957747E-01            NaN
         13   -1    0    0    0    0  0.00000000000E+00  0.00000000000E+00  0.74505805969E-08  0.10566000000E+00  0.10566000000E+00 0. -1.
     999900   -1    0    0    0    0 -0.00000000000E+00 -0.00000000000E+00 -0.74505805969E-08  0.93827000000E+00  0.93827000000E+00 0.  1.
     999902    2    1    2    0    0 -0.47018474781E-02 -0.18450338157E-01  0.13684237838E-01  0.10204825969E+01  0.10202131884E+01 0.  0.
     999903    2    3    3    0    0  0.67210558505E-01  0.19887306567E-01 -0.10581484354E+00  0.12867477028E+00  0.21157770569E-01 0.  0.
         14    1    1    2    0    0  0.47018474781E-02  0.18450338157E-01 -0.13684237838E-01  0.23447403119E-01  0.00000000000E+00 0.  1.
     999901    1    3    3    0    0 -0.71912405983E-01 -0.38337644723E-01  0.11949908138E+00  0.89180782660E+00  0.88000000000E+00 0.  1.
        -11    1    4    4    0    0  0.25704823679E-01  0.11340798789E-01 -0.60060780145E-01  0.66309200795E-01  0.51100000000E-03 0.  1.
         11    1    4    4    0    0  0.41505734826E-01  0.85465077776E-02 -0.45754063398E-01  0.62365569484E-01  0.51100000000E-03 0. -1.
</event>
<event>
 8    1  0.1088270E+005  0.1043930E+01  0.7957747E-01            NaN
         13   -1    0    0    0    0  0.00000000000E+00  0.00000000000E+00  0.74505805969E-08  0.10566000000E+00  0.10566000000E+00 0. -1.
     999900   -1    0    0    0    0 -0.00000000000E+00 -0.00000000000E+00 -0.74505805969E-08  0.93827000000E+00  0.93827000000E+00 0. -1.
     999902    2    1    2    0    0 -0.20036748174E-01 -0.79892092721E-02  0.39233025605E-02  0.10220053325E+01  0.10217701349E+01 0.  0.
     999903    2    3    3    0    0 -0.49311730713E-01 -0.52461912943E-01 -0.11003086939E+00  0.13306191513E+00  0.20366196110E-01 0.  0.
         14    1    1    2    0    0  0.20036748174E-01  0.79892092721E-02 -0.39233025605E-02  0.21924667504E-01  0.00000000000E+00 0.  1.
     999901    1    3    3    0    0  0.29274982539E-01  0.44472703671E-01  0.11395417195E+00  0.88894341737E+00  0.88000000000E+00 0.  1.
        -11    1    4    4    0    0 -0.31396884207E-01 -0.44534459946E-01 -0.72188092723E-01  0.90445919270E-01  0.51100000000E-03 0.  1.
         11    1    4    4    0    0 -0.17914846507E-01 -0.79274529970E-02 -0.37842776665E-01  0.42615995859E-01  0.51100000000E-03 0. -1.
</event>
<event>
 8    1  0.1088270E+005  0.1043930E+01  0.7957747E-01            NaN
         13   -1    0    0    0    0  0.00000000000E+00  0.00000000000E+00  0.74505805969E-08  0.10566000000E+00  0.10566000000E+00 0.  1.
     999900   -1    0    0    0    0 -0.00000000000E+00 -0.00000000000E+00 -0.74505805969E-08  0.93827000000E+00  0.93827000000E+00 0.  1.
     999902    2    1    2    0    0  0.21395983323E-01 -0.94213480470E-02  0.88295176550E-02  0.10189397963E+01  0.10186332991E+01 0.  0.
     999903    2    3    3    0    0 -0.50060775935E-01 -0.36062779422E-01  0.11239207405E+00  0.12959113718E+00  0.18848850859E-01 0.  0.
         14    1    1    2    0    0 -0.21395983323E-01  0.94213480470E-02 -0.88295176550E-02  0.24990203749E-01  0.00000000000E+00 0. -1.
     999901    1    3    3    0    0  0.71456759258E-01  0.26641431375E-01 -0.10356255640E+00  0.88934865907E+00  0.88000000000E+00 0.  1.
        -11    1    4    4    0    0 -0.28823140298E-01 -0.92097503677E-02  0.51622202257E-01  0.59838999034E-01  0.51100000000E-03 0. -1.
         11    1    4    4    0    0 -0.21237635637E-01 -0.26853029054E-01  0.60769871793E-01  0.69752138144E-01  0.51100000000E-03 0.  1.
</event>
<event>
 8    1  0.1088270E+005  0.1043930E+01  0.7957747E-01            NaN
         13   -1    0    0    0    0  0.00000000000E+00  0.00000000000E+00  0.74505805969E-08  0.10566000000E+00  0.10566000000E+00 0. -1.
     999900   -1    0    0    0    0 -0.00000000000E+00 -0.00000000000E+00 -0.74505805969E-08  0.93827000000E+00  0.93827000000E+00 0. -1.
     999902    2    1    2    0    0  0.13205934215E-02  0.23932850002E-01 -0.10643762298E-02  0.10199371225E+01  0.10196548806E+01 0.  0.
     999903    2    3    3    0    0 -0.92367292315E-01 -0.25629677130E-01 -0.84734856740E-01  0.12963682854E+00  0.20907279316E-01 0.  0.
         14    1    1    2    0    0 -0.13205934215E-02 -0.23932850002E-01  0.10643762298E-02  0.23992877547E-01  0.00000000000E+00 0.  1.
     999901    1    3    3    0    0  0.93687885736E-01  0.49562527132E-01  0.83670480510E-01  0.89030029391E+00  0.88000000000E+00 0.  1.
        -11    1    4    4    0    0 -0.86539976880E-01 -0.19574238357E-01 -0.81912462384E-01  0.12075690879E+00  0.51100000000E-03 0. -1.
         11    1    4    4    0    0 -0.58273154349E-02 -0.60554387730E-02 -0.28223943558E-02  0.88799197525E-02  0.51100000000E-03 0.  1.
</event>
<event>
 8    1  0.1088270E+005  0.1043930E+01  0.7957747E-01            NaN
         13   -1    0    0    0    0  0.00000000000E+00  0.00000000000E+00  0.74505805969E-08  0.10566000000E+00  0.10566000000E+00 0.  1.
     999900   -1    0    0    0    0 -0.00000000000E+00 -0.00000000000E+00 -0.74505805969E-08  0.93827000000E+00  0.93827000000E+00 0. -1.
     999902    2    1    2    0    0  0.56569263252E-02 -0.21633419010E-01 -0.11260095732E-01  0.10188941180E+01  0.10185864854E+01 0.  0.
     999903    2    3    3    0    0 -0.80680985538E-01 -0.31040658453E-02  0.98420337556E-01  0.12769976800E+00  0.10080240636E-01 0.  0.
         14    1    1    2    0    0 -0.56569263252E-02  0.21633419010E-01  0.11260095732E-01  0.25035882038E-01  0.00000000000E+00 0.  1.
     999901    1    3    3    0    0  0.86337911863E-01 -0.18529353165E-01 -0.10968043329E+00  0.89119434996E+00  0.88000000000E+00 0. -1.
        -11    1    4    4    0    0 -0.48178175661E-01 -0.37510485921E-02  0.65832473675E-01  0.81666288557E-01  0.51100000000E-03 0. -1.
         11    1    4    4    0    0 -0.32502809876E-01  0.64698274679E-03  0.32587863881E-01  0.46033479445E-01  0.51100000000E-03 0.  1.
</event>
<event>
 8    1  0.1088270E+005  0.1043930E+01  0.7957747E-01            NaN
         13   -1    0    0    0    0  0.00000000000E+00  0.00000000000E+00  0.74505805969E-08  0.10566000000E+00  0.10566000000E+00 0.  1.
     999900   -1    0    0    0    0 -0.00000000000E+00 -0.00000000000E+00 -0.74505805969E-08  0.93827000000E+00  0.93827000000E+00 0.  1.
     999902    2    1    2    0    0  0.61840991917E-02  0.15376558454E-01  0.17836227072E-01  0.10195822562E+01  0.10192915012E+01 0.  0.
     999903    2    3    3    0    0  0.12334079065E+00  0.16160489510E-01  0.38157909891E-01  0.13158491627E+00  0.19607448670E-01 0.  0.
         14    1    1    2    0    0 -0.61840991917E-02 -0.15376558454E-01 -0.17836227072E-01  0.24347743814E-01  0.00000000000E+00 0. -1.
     999901    1    3    3    0    0 -0.11715669146E+00 -0.78393105616E-03 -0.20321682819E-01  0.88799733991E+00  0.88000000000E+00 0.  1.
        -11    1    4    4    0    0  0.10819122689E+00  0.13202493743E-01  0.39843331281E-01  0.11604912574E+00  0.51100000000E-03 0. -1.
         11    1    4    4    0    0  0.15149563761E-01  0.29579957669E-02 -0.16854213903E-02  0.15535790529E-01  0.51100000000E-03 0.  1.
</event>
<event>
 8    1  0.1088270E+005  0.1043930E+01  0.7957747E-01            NaN
         13   -1    0    0    0    0  0.00000000000E+00  0.00000000000E+00  0.74505805969E-08  0.10566000000E+00  0.10566000000E+00 0. -1.
     999900   -1    0    0    0    0 -0.00000000000E+00 -0.00000000000E+00 -0.74505805969E-08  0.93827000000E+00  0.93827000000E+00 0.  1.
     999902    2    1    2    0    0 -0.60687083767E-02 -0.22736027311E-01  0.43429941089E-02  0.10200005671E+01  0.10197198337E+01 0.  0.
     999903    2    3    3    0    0  0.73924528982E-01 -0.25788433332E-01 -0.10187098288E+00  0.13000638507E+00  0.19851542195E-01 0.  0.
         14    1    1    2    0    0  0.60687083767E-02  0.22736027311E-01 -0.43429941089E-02  0.23929432861E-01  0.00000000000E+00 0. -1.
     999901    1    3    3    0    0 -0.79993237358E-01  0.30524060209E-02  0.10621397699E+00  0.88999418207E+00  0.88000000000E+00 0. -1.
        -11    1    4    4    0    0  0.47543993656E-01 -0.19762835670E-01 -0.51502589644E-01  0.72827047637E-01  0.51100000000E-03 0. -1.
         11    1    4    4    0    0  0.26380535326E-01 -0.60255976618E-02 -0.50368393236E-01  0.57179337434E-01  0.51100000000E-03 0.  1.
</event>
<event>
 8    1  0.1088270E+005  0.1043930E+01  0.7957747E-01            NaN
         13   -1    0    0    0    0  0.00000000000E+00  0.00000000000E+00  0.74505805969E-08  0.10566000000E+00  0.10566000000E+00 0. -1.
     999900   -1    0    0    0    0 -0.00000000000E+00 -0.00000000000E+00 -0.74505805969E-08  0.93827000000E+00  0.93827000000E+00 0. -1.
     999902    2    1    2    0    0 -0.99325638348E-02  0.21379513271E-01 -0.39312130727E-02  0.10200303379E+01  0.10197503108E+01 0.  0.
     999903    2    3    3    0    0  0.25706941834E-01  0.17676196833E-01  0.12464175744E+00  0.12996579100E+00  0.19551069985E-01 0.  0.
         14    1    1    2    0    0  0.99325638348E-02 -0.21379513271E-01  0.39312130727E-02  0.23899662095E-01  0.00000000000E+00 0.  1.
     999901    1    3    3    0    0 -0.35639505669E-01  0.37033164375E-02 -0.12857297052E+00  0.89006454691E+00  0.88000000000E+00 0. -1.
        -11    1    4    4    0    0  0.25795903910E-01  0.78483368076E-02  0.92493872007E-01  0.96345225772E-01  0.51100000000E-03 0. -1.
         11    1    4    4    0    0 -0.88962075609E-04  0.98278600256E-02  0.32147885437E-01  0.33620565224E-01  0.51100000000E-03 0.  1.
</event>
<event>
 8    1  0.1088270E+005  0.1043930E+01  0.7957747E-01            NaN
         13   -1    0    0    0    0  0.00000000000E+00  0.00000000000E+00  0.74505805969E-08  0.10566000000E+00  0.10566000000E+00 0.  1.
     999900   -1    0    0    0    0 -0.00000000000E+00 -0.00000000000E+00 -0.74505805969E-08  0.93827000000E+00  0.93827000000E+00 0. -1.
     999902    2    1    2    0    0  0.47819363445E-03  0.22270942191E-01  0.81296633288E-02  0.10202168188E+01  0.10199411956E+01 0.  0.
     999903    2    3    3    0    0  0.10093041388E-01 -0.80148006148E-01  0.99874271228E-01  0.12948725305E+00  0.16325019937E-01 0.  0.
         14    1    1    2    0    0 -0.47819363445E-03 -0.22270942191E-01 -0.81296633288E-02  0.23713181167E-01  0.00000000000E+00 0.  1.
     999901    1    3    3    0    0 -0.96148477532E-02  0.10241894834E+00 -0.91744607899E-01  0.89072956578E+00  0.88000000000E+00 0. -1.
        -11    1    4    4    0    0  0.20931645312E-02 -0.54272863758E-01  0.56694898164E-01  0.78514315109E-01  0.51100000000E-03 0.  1.
         11    1    4    4    0    0  0.79998768565E-02 -0.25875142390E-01  0.43179373064E-01  0.50972937944E-01  0.51100000000E-03 0. -1.
</event>
<event>
 8    1  0.1088270E+005  0.1043930E+01  0.7957747E-01            NaN
         13   -1    0    0    0    0  0.00000000000E+00  0.00000000000E+00  0.74505805969E-08  0.10566000000E+00  0.10566000000E+00 0.  1.
     999900   -1    0    0    0    0 -0.00000000000E+00 -0.00000000000E+00 -0.74505805969E-08  0.93827000000E+00  0.93827000000E+00 0. -1.
     999902    2    1    2    0    0 -0.67968024230E-02  0.24462927178E-02 -0.22427454682E-01  0.10203679204E+01  0.10200958393E+01 0.  0.
     999903    2    3    3    0    0  0.12970971985E-01  0.18250776933E-02 -0.13126348824E+00  0.13344265128E+00  0.20131090697E-01 0.  0.
         14    1    1    2    0    0  0.67968024230E-02 -0.24462927178E-02  0.22427454682E-01  0.23562079593E-01  0.00000000000E+00 0.  1.
     999901    1    3    3    0    0 -0.19767774408E-01  0.62121502451E-03  0.10883603356E+00  0.88692526913E+00  0.88000000000E+00 0.  1.
        -11    1    4    4    0    0 -0.35184948265E-02 -0.23737264045E-02 -0.60873546021E-01  0.61023471788E-01  0.51100000000E-03 0. -1.
         11    1    4    4    0    0  0.16489466811E-01  0.41988040978E-02 -0.70389942221E-01  0.72419179493E-01  0.51100000000E-03 0.  1.
</event>
<event>
 8    1  0.1088270E+005  0.1043930E+01  0.7957747E-01            NaN
         13   -1    0    0    0    0  0.00000000000E+00  0.00000000000E+00  0.74505805969E-08  0.10566000000E+00  0.10566000000E+00 0.  1.
     999900   -1    0    0    0    0 -0.00000000000E+00 -0.00000000000E+00 -0.74505805969E-08  0.93827000000E+00  0.93827000000E+00 0. -1.
     999902    2    1    2    0    0 -0.60308189809E-02 -0.19106250912E-01  0.13602635288E-01  0.10197132436E+01  0.10194256461E+01 0.  0.
     999903    2    3    3    0    0  0.98766489753E-01 -0.50030840121E-01 -0.60065760755E-01  0.12990099451E+00  0.31756389888E-01 0.  0.
         14    1    1    2    0    0  0.60308189809E-02  0.19106250912E-01 -0.13602635288E-01  0.24216756353E-01  0.00000000000E+00 0. -1.
     999901    1    3    3    0    0 -0.10479730873E+00  0.30924589209E-01  0.73668396043E-01  0.88981224914E+00  0.88000000000E+00 0.  1.
        -11    1    4    4    0    0  0.36984297350E-01 -0.35339146286E-01 -0.20718166604E-01  0.55192364138E-01  0.51100000000E-03 0. -1.
         11    1    4    4    0    0  0.61782192403E-01 -0.14691693835E-01 -0.39347594151E-01  0.74708630374E-01  0.51100000000E-03 0.  1.
</event>
<event>
 8    1  0.1088270E+005  0.1043930E+01  0.7957747E-01            NaN
         13   -1    0    0    0    0  0.00000000000E+00  0.00000000000E+00  0.74505805969E-08  0.10566000000E+00  0.10566000000E+00 0.  1.
     999900   -1    0    0    0    0 -0.00000000000E+00 -0.00000000000E+00 -0.74505805969E-08  0.93827000000E+00  0.93827000000E+00 0. -1.
     999902    2    1    2    0    0 -0.83908547312E-02 -0.14636473136E-01 -0.16579955282E-01  0.10202756620E+01  0.10200014210E+01 0.  0.
     999903    2    3    3    0    0  0.34365553279E-01  0.90806045175E-01 -0.84580023060E-01  0.13034856144E+00  0.20254334759E-01 0.  0.
         14    1    1    2    0    0  0.83908547312E-02  0.14636473136E-01  0.16579955282E-01  0.23654337998E-01  0.00000000000E+00 0. -1.
     999901    1    3    3    0    0 -0.42756408010E-01 -0.10544251831E+00  0.68000067778E-01  0.88992710056E+00  0.88000000000E+00 0.  1.
        -11    1    4    4    0    0  0.69318124357E-02  0.16417079596E-01 -0.27015144011E-01  0.32367416533E-01  0.51100000000E-03 0. -1.
         11    1    4    4    0    0  0.27433740843E-01  0.74388965579E-01 -0.57564879049E-01  0.97981144908E-01  0.51100000000E-03 0.  1.
</event>
<event>
 8    1  0.1088270E+005  0.1043930E+01  0.7957747E-01            NaN
         13   -1    0    0    0    0  0.00000000000E+00  0.00000000000E+00  0.74505805969E-08  0.10566000000E+00  0.10566000000E+00 0.  1.
     999900   -1    0    0    0    0 -0.00000000000E+00 -0.00000000000E+00 -0.74505805969E-08  0.93827000000E+00  0.93827000000E+00 0.  1.
     999902    2    1    2    0    0  0.94340095100E-02  0.29322316102E-01  0.88044025831E-02  0.10118938289E+01  0.10113865753E+01 0.  0.
     999903    2    3    3    0    0  0.28198491372E-01  0.12160110854E+00  0.28666112007E-02  0.12684990978E+00  0.22376274011E-01 0.  0.
         14    1    1    2    0    0 -0.94340095100E-02 -0.29322316102E-01 -0.88044025831E-02  0.32036171149E-01  0.00000000000E+00 0. -1.
     999901    1    3    3    0    0 -0.18764481862E-01 -0.92278792437E-01  0.59377913824E-02  0.88504391907E+00  0.88000000000E+00 0.  1.
        -11    1    4    4    0    0  0.23361133106E-01  0.60554476366E-01 -0.50383005304E-02  0.65101710739E-01  0.51100000000E-03 0. -1.
         11    1    4    4    0    0  0.48373582662E-02  0.61046632173E-01  0.79049117311E-02  0.61748199044E-01  0.51100000000E-03 0.  1.
</event>
<event>
 8    1  0.1088270E+005  0.1043930E+01  0.7957747E-01            NaN
         13   -1    0    0    0    0  0.00000000000E+00  0.00000000000E+00  0.74505805969E-08  0.10566000000E+00  0.10566000000E+00 0.  1.
     999900   -1    0    0    0    0 -0.00000000000E+00 -0.00000000000E+00 -0.74505805969E-08  0.93827000000E+00  0.93827000000E+00 0. -1.
     999902    2    1    2    0    0 -0.81029853108E-02 -0.12603599762E-01  0.18979438814E-01  0.10197488463E+01  0.10194621039E+01 0.  0.
     999903    2    3    3    0    0 -0.50801134598E-01 -0.10960070277E+00  0.51332869387E-01  0.13279996702E+00  0.20191543662E-01 0.  0.
         14    1    1    2    0    0  0.81029853108E-02  0.12603599762E-01 -0.18979438814E-01  0.24181153728E-01  0.00000000000E+00 0. -1.
     999901    1    3    3    0    0  0.42698149287E-01  0.96997103009E-01 -0.32353430573E-01  0.88694887926E+00  0.88000000000E+00 0.  1.
        -11    1    4    4    0    0 -0.32741463842E-01 -0.72523064471E-01  0.23243334689E-01  0.82898203016E-01  0.51100000000E-03 0.  1.
         11    1    4    4    0    0 -0.18059670756E-01 -0.37077638300E-01  0.28089534698E-01  0.49901764000E-01  0.51100000000E-03 0. -1.
</event>
<event>
 8    1  0.1088270E+005  0.1043930E+01  0.7957747E-01            NaN
         13   -1    0    0    0    0  0.00000000000E+00  0.00000000000E+00  0.74505805969E-08  0.10566000000E+00  0.10566000000E+00 0. -1.
     999900   -1    0    0    0    0 -0.00000000000E+00 -0.00000000000E+00 -0.74505805969E-08  0.93827000000E+00  0.93827000000E+00 0.  1.
     999902    2    1    2    0    0 -0.16743919267E-02 -0.76100298845E-03 -0.20665786823E-01  0.10231825313E+01  0.10229721574E+01 0.  0.
     999903    2    3    3    0    0  0.35301928343E-01  0.11273304355E+00 -0.62137919895E-01  0.13415604984E+00  0.13481816173E-01 0.  0.
         14    1    1    2    0    0  0.16743919267E-02  0.76100298845E-03  0.20665786823E-01  0.20747468734E-01  0.00000000000E+00 0. -1.
     999901    1    3    3    0    0 -0.36976320270E-01 -0.11349404653E+00  0.41472133073E-01  0.88902648143E+00  0.88000000000E+00 0. -1.
        -11    1    4    4    0    0  0.34830213294E-01  0.10124644712E+00 -0.58895442840E-01  0.12220033192E+00  0.51100000000E-03 0.  1.
         11    1    4    4    0    0  0.47171504933E-03  0.11486596423E-01 -0.32424770557E-02  0.11955717918E-01  0.51100000000E-03 0. -1.
</event>
<event>
 8    1  0.1088270E+005  0.1043930E+01  0.7957747E-01            NaN
         13   -1    0    0    0    0  0.00000000000E+00  0.00000000000E+00  0.74505805969E-08  0.10566000000E+00  0.10566000000E+00 0.  1.
     999900   -1    0    0    0    0 -0.00000000000E+00 -0.00000000000E+00 -0.74505805969E-08  0.93827000000E+00  0.93827000000E+00 0. -1.
     999902    2    1    2    0    0  0.12369902530E-01 -0.30419058422E-02  0.20262116353E-01  0.10199963200E+01  0.10197154857E+01 0.  0.
     999903    2    3    3    0    0  0.39505563719E-01 -0.10997736305E+00 -0.53473125266E-01  0.13004776981E+00  0.19933322789E-01 0.  0.
         14    1    1    2    0    0 -0.12369902530E-01  0.30419058422E-02 -0.20262116353E-01  0.23933680011E-01  0.00000000000E+00 0. -1.
     999901    1    3    3    0    0 -0.27135661190E-01  0.10693545721E+00  0.73735241619E-01  0.88994855018E+00  0.88000000000E+00 0. -1.
        -11    1    4    4    0    0  0.41533781543E-01 -0.10211454983E+00 -0.51500532851E-01  0.12167580820E+00  0.51100000000E-03 0. -1.
         11    1    4    4    0    0 -0.20282178241E-02 -0.78628132226E-02 -0.19725924147E-02  0.83719616071E-02  0.51100000000E-03 0.  1.
</event>
<event>
 8    1  0.1088270E+005  0.1043930E+01  0.7957747E-01            NaN
         13   -1    0    0    0    0  0.00000000000E+00  0.00000000000E+00  0.74505805969E-08  0.10566000000E+00  0.10566000000E+00 0. -1.
     999900   -1    0    0    0    0 -0.00000000000E+00 -0.00000000000E+00 -0.74505805969E-08  0.93827000000E+00  0.93827000000E+00 0.  1.
     999902    2    1    2    0    0  0.14580491307E-01 -0.11790604923E-01  0.24860890534E-02  0.10250146694E+01  0.10248401255E+01 0.  0.
     999903    2    3    3    0    0 -0.85536088392E-01  0.98258934259E-01 -0.11294294289E-01  0.13242062422E+00  0.20890669131E-01 0.  0.
         14    1    1    2    0    0 -0.14580491307E-01  0.11790604923E-01 -0.24860890534E-02  0.18915330554E-01  0.00000000000E+00 0. -1.
     999901    1    3    3    0    0  0.10011657970E+00 -0.11004953918E+00  0.13780383342E-01  0.89259404522E+00  0.88000000000E+00 0.  1.
        -11    1    4    4    0    0 -0.27151857172E-01  0.46682889094E-01 -0.59339670460E-02  0.54332205624E-01  0.51100000000E-03 0. -1.
         11    1    4    4    0    0 -0.58384231219E-01  0.51576045164E-01 -0.53603272429E-02  0.78088418597E-01  0.51100000000E-03 0.  1.
</event>
<event>
 8    1  0.1088270E+005  0.1043930E+01  0.7957747E-01            NaN
         13   -1    0    0    0    0  0.00000000000E+00  0.00000000000E+00  0.74505805969E-08  0.10566000000E+00  0.10566000000E+00 0.  1.
     999900   -1    0    0    0    0 -0.00000000000E+00 -0.00000000000E+00 -0.74505805969E-08  0.93827000000E+00  0.93827000000E+00 0.  1.
     999902    2    1    2    0    0 -0.25887796686E-02  0.95713154732E-02 -0.21517349086E-01  0.10202380568E+01  0.10199629329E+01 0.  0.
     999903    2    3    3    0    0 -0.12780153384E+00 -0.56866696300E-02 -0.21676913452E-01  0.13124364436E+00  0.19734116261E-01 0.  0.
         14    1    1    2    0    0  0.25887796686E-02 -0.95713154732E-02  0.21517349086E-01  0.23691943182E-01  0.00000000000E+00 0.  1.
     999901    1    3    3    0    0  0.12521275417E+00  0.15257985103E-01  0.15956436609E-03  0.88899441246E+00  0.88000000000E+00 0.  1.
        -11    1    4    4    0    0 -0.12317068569E+00 -0.44312173519E-02 -0.16813873997E-01  0.12439301017E+00  0.51100000000E-03 0. -1.
         11    1    4    4    0    0 -0.46308481547E-02 -0.12554522780E-02 -0.48630394550E-02  0.68506341893E-02  0.51100000000E-03 0.  1.
</event>
<event>
 8    1  0.1088270E+005  0.1043930E+01  0.7957747E-01            NaN
         13   -1    0    0    0    0  0.00000000000E+00  0.00000000000E+00  0.74505805969E-08  0.10566000000E+00  0.10566000000E+00 0. -1.
     999900   -1    0    0    0    0 -0.00000000000E+00 -0.00000000000E+00 -0.74505805969E-08  0.93827000000E+00  0.93827000000E+00 0.  1.
     999902    2    1    2    0    0  0.62179404510E-02 -0.21496919749E-02  0.37559078717E-01  0.10057990630E+01  0.10050760105E+01 0.  0.
     999903    2    3    3    0    0  0.72407606983E-01 -0.49233097532E-01 -0.72248338730E-01  0.11526237769E+00  0.19970824221E-01 0.  0.
         14    1    1    2    0    0 -0.62179404510E-02  0.21496919749E-02 -0.37559078717E-01  0.38130936956E-01  0.00000000000E+00 0.  1.
     999901    1    3    3    0    0 -0.66189666532E-01  0.47083405557E-01  0.10980741745E+00  0.89053668535E+00  0.88000000000E+00 0. -1.
        -11    1    4    4    0    0  0.60351450032E-01 -0.43347675375E-01 -0.50990909036E-01  0.90120210867E-01  0.51100000000E-03 0.  1.
         11    1    4    4    0    0  0.12056156951E-01 -0.58854221571E-02 -0.21257429694E-01  0.25142166824E-01  0.51100000000E-03 0. -1.
</event>
<event>
 8    1  0.1088270E+005  0.1043930E+01  0.7957747E-01            NaN
         13   -1    0    0    0    0  0.00000000000E+00  0.00000000000E+00  0.74505805969E-08  0.10566000000E+00  0.10566000000E+00 0. -1.
     999900   -1    0    0    0    0 -0.00000000000E+00 -0.00000000000E+00 -0.74505805969E-08  0.93827000000E+00  0.93827000000E+00 0. -1.
     999902    2    1    2    0    0 -0.24485789733E-01 -0.97083589833E-02  0.79587496742E-02  0.10164136807E+01  0.10160411519E+01 0.  0.
     999903    2    3    3    0    0  0.27362276258E-01 -0.82874954892E-01  0.91469435006E-01  0.12792304636E+00  0.19511430960E-01 0.  0.
         14    1    1    2    0    0  0.24485789733E-01  0.97083589833E-02 -0.79587496742E-02  0.27516319328E-01  0.00000000000E+00 0. -1.
     999901    1    3    3    0    0 -0.51848065991E-01  0.73166595908E-01 -0.83510685332E-01  0.88849063432E+00  0.88000000000E+00 0.  1.
        -11    1    4    4    0    0  0.22628095499E-01 -0.44747479725E-01  0.42900140854E-01  0.65992809108E-01  0.51100000000E-03 0. -1.
         11    1    4    4    0    0  0.47341807587E-02 -0.38127475166E-01  0.48569294152E-01  0.61930237247E-01  0.51100000000E-03 0.  1.
</event>
<event>
 8    1  0.1088270E+005  0.1043930E+01  0.7957747E-01            NaN
         13   -1    0    0    0    0  0.00000000000E+00  0.00000000000E+00  0.74505805969E-08  0.10566000000E+00  0.10566000000E+00 0.  1.
     999900   -1    0    0    0    0 -0.00000000000E+00 -0.00000000000E+00 -0.74505805969E-08  0.93827000000E+00  0.93827000000E+00 0. -1.
     999902    2    1    2    0    0  0.60265762728E-02  0.16493440418E-01 -0.15701512682E-01  0.10203738819E+01  0.10201019401E+01 0.  0.
     999903    2    3    3    0    0  0.83932240863E-01 -0.91661684500E-01  0.28780837561E-01  0.12922546381E+00  0.20600932611E-01 0.  0.
         14    1    1    2    0    0 -0.60265762728E-02 -0.16493440418E-01  0.15701512682E-01  0.23556118078E-01  0.00000000000E+00 0.  1.
     999901    1    3    3    0    0 -0.77905664590E-01  0.10815512492E+00 -0.44482350243E-01  0.89114841811E+00  0.88000000000E+00 0. -1.
        -11    1    4    4    0    0  0.33870444276E-01 -0.42653767249E-01  0.29218317686E-02  0.54546760471E-01  0.51100000000E-03 0. -1.
         11    1    4    4    0    0  0.50061796587E-01 -0.49007917251E-01  0.25859005793E-01  0.74678703339E-01  0.51100000000E-03 0.  1.
</event>
<event>
 8    1  0.1088270E+005  0.1043930E+01  0.7957747E-01            NaN
         13   -1    0    0    0    0  0.00000000000E+00  0.00000000000E+00  0.74505805969E-08  0.10566000000E+00  0.10566000000E+00 0. -1.
     999900   -1    0    0    0    0 -0.00000000000E+00 -0.00000000000E+00 -0.74505805969E-08  0.93827000000E+00  0.93827000000E+00 0.  1.
     999902    2    1    2    0    0 -0.16378513143E-01  0.16157743356E-01 -0.38853325675E-02  0.10205971011E+01  0.10203303478E+01 0.  0.
     999903    2    3    3    0    0 -0.14515240185E-01 -0.38515303159E-01  0.12168932033E+00  0.13000089220E+00  0.19945438492E-01 0.  0.
         14    1    1    2    0    0  0.16378513143E-01 -0.16157743356E-01  0.38853325675E-02  0.23332898926E-01  0.00000000000E+00 0. -1.
     999901    1    3    3    0    0 -0.18632729583E-02  0.54673046516E-01 -0.12557465290E+00  0.89059620887E+00  0.88000000000E+00 0.  1.
        -11    1    4    4    0    0  0.78529287156E-03 -0.15885656501E-01  0.25961415848E-01  0.30450402316E-01  0.51100000000E-03 0.  1.
         11    1    4    4    0    0 -0.15300533056E-01 -0.22629646659E-01  0.95727904482E-01  0.99550489889E-01  0.51100000000E-03 0. -1.
</event>
<event>
 8    1  0.1088270E+005  0.1043930E+01  0.7957747E-01            NaN
         13   -1    0    0    0    0  0.00000000000E+00  0.00000000000E+00  0.74505805969E-08  0.10566000000E+00  0.10566000000E+00 0. -1.
     999900   -1    0    0    0    0 -0.00000000000E+00 -0.00000000000E+00 -0.74505805969E-08  0.93827000000E+00  0.93827000000E+00 0. -1.
     999902    2    1    2    0    0 -0.18106939122E-01  0.17592850081E-01  0.38491322981E-03  0.10186808856E+01  0.10183679242E+01 0.  0.
     999903    2    3    3    0    0  0.79068429889E-01 -0.54987644784E-01  0.79301289904E-01  0.12686320522E+00  0.23024347441E-01 0.  0.
         14    1    1    2    0    0  0.18106939122E-01 -0.17592850081E-01 -0.38491322981E-03  0.25249114371E-01  0.00000000000E+00 0. -1.
     999901    1    3    3    0    0 -0.97175369011E-01  0.72580494865E-01 -0.78916376674E-01  0.89181768041E+00  0.88000000000E+00 0. -1.
        -11    1    4    4    0    0  0.30386747106E-01 -0.32237726060E-01  0.44777261638E-01  0.62991187177E-01  0.51100000000E-03 0.  1.
         11    1    4    4    0    0  0.48681682783E-01 -0.22749918723E-01  0.34524028266E-01  0.63872018045E-01  0.51100000000E-03 0. -1.
</event>
<event>
 8    1  0.1088270E+005  0.1043930E+01  0.7957747E-01            NaN
         13   -1    0    0    0    0  0.00000000000E+00  0.00000000000E+00  0.74505805969E-08  0.10566000000E+00  0.10566000000E+00 0.  1.
     999900   -1    0    0    0    0 -0.00000000000E+00 -0.00000000000E+00 -0.74505805969E-08  0.93827000000E+00  0.93827000000E+00 0. -1.
     999902    2    1    2    0    0 -0.14559196428E-01 -0.23878594276E-02  0.18869944910E-01  0.10199769857E+01  0.10196956921E+01 0.  0.
     999903    2    3    3    0    0  0.75747956009E-01  0.61079696716E-01  0.84498017632E-01  0.13065670796E+00  0.21512279311E-01 0.  0.
         14    1    1    2    0    0  0.14559196428E-01  0.23878594276E-02 -0.18869944910E-01  0.23953014302E-01  0.00000000000E+00 0. -1.
     999901    1    3    3    0    0 -0.90307152437E-01 -0.63467556143E-01 -0.65628072722E-01  0.88932027774E+00  0.88000000000E+00 0. -1.
        -11    1    4    4    0    0  0.28795686390E-01  0.16529196933E-01  0.17643384841E-01  0.37602607032E-01  0.51100000000E-03 0.  1.
         11    1    4    4    0    0  0.46952269618E-01  0.44550499783E-01  0.66854632790E-01  0.93054100929E-01  0.51100000000E-03 0. -1.
</event>
<event>
 8    1  0.1088270E+005  0.1043930E+01  0.7957747E-01            NaN
         13   -1    0    0    0    0  0.00000000000E+00  0.00000000000E+00  0.74505805969E-08  0.10566000000E+00  0.10566000000E+00 0. -1.
     999900   -1    0    0    0    0 -0.00000000000E+00 -0.00000000000E+00 -0.74505805969E-08  0.93827000000E+00  0.93827000000E+00 0. -1.
     999902    2    1    2    0    0  0.63415070246E-03  0.29796888269E-02  0.23809449036E-01  0.10199264470E+01  0.10196439510E+01 0.  0.
     999903    2    3    3    0    0 -0.77885858271E-01  0.83000378578E-01  0.63885714939E-01  0.13190909939E+00  0.19061903493E-01 0.  0.
         14    1    1    2    0    0 -0.63415070246E-03 -0.29796888269E-02 -0.23809449036E-01  0.24003552987E-01  0.00000000000E+00 0.  1.
     999901    1    3    3    0    0  0.78520008974E-01 -0.80020689751E-01 -0.40076265903E-01  0.88801734763E+00  0.88000000000E+00 0.  1.
        -11    1    4    4    0    0 -0.44770868579E-01  0.60237791033E-01  0.44931789211E-01  0.87476562259E-01  0.51100000000E-03 0.  1.
         11    1    4    4    0    0 -0.33114989693E-01  0.22762587545E-01  0.18953925727E-01  0.44432537127E-01  0.51100000000E-03 0. -1.
</event>
<event>
 8    1  0.1088270E+005  0.1043930E+01  0.7957747E-01            NaN
         13   -1    0    0    0    0  0.00000000000E+00  0.00000000000E+00  0.74505805969E-08  0.10566000000E+00  0.10566000000E+00 0.  1.
     999900   -1    0    0    0    0 -0.00000000000E+00 -0.00000000000E+00 -0.74505805969E-08  0.93827000000E+00  0.93827000000E+00 0. -1.
     999902    2    1    2    0    0 -0.80400144920E-02 -0.17132537959E-01  0.13185813556E-01  0.10208641948E+01  0.10206035826E+01 0.  0.
     999903    2    3    3    0    0 -0.92175105434E-01  0.16709650124E-01 -0.88576309030E-01  0.13037021009E+00  0.19369220154E-01 0.  0.
         14    1    1    2    0    0  0.80400144920E-02  0.17132537959E-01 -0.13185813556E-01  0.23065805191E-01  0.00000000000E+00 0. -1.
     999901    1    3    3    0    0  0.84135090942E-01 -0.33842188083E-01  0.10176212259E+00  0.89049398472E+00  0.88000000000E+00 0.  1.
        -11    1    4    4    0    0 -0.24618069758E-01  0.10108712107E-01 -0.16282775401E-01  0.31202969648E-01  0.51100000000E-03 0. -1.
         11    1    4    4    0    0 -0.67557035676E-01  0.66009380166E-02 -0.72293533629E-01  0.99167240446E-01  0.51100000000E-03 0.  1.
</event>
<event>
 8    1  0.1088270E+005  0.1043930E+01  0.7957747E-01            NaN
         13   -1    0    0    0    0  0.00000000000E+00  0.00000000000E+00  0.74505805969E-08  0.10566000000E+00  0.10566000000E+00 0. -1.
     999900   -1    0    0    0    0 -0.00000000000E+00 -0.00000000000E+00 -0.74505805969E-08  0.93827000000E+00  0.93827000000E+00 0.  1.
     999902    2    1    2    0    0  0.24194724307E-02  0.28678742954E-02 -0.22830423877E-01  0.10207933018E+01  0.10205310667E+01 0.  0.
     999903    2    3    3    0    0 -0.44208881176E-02  0.28290952246E-01 -0.12934800940E+00  0.13397927424E+00  0.19990401680E-01 0.  0.
         14    1    1    2    0    0 -0.24194724307E-02 -0.28678742954E-02  0.22830423877E-01  0.23136698214E-01  0.00000000000E+00 0. -1.
     999901    1    3    3    0    0  0.68403605483E-02 -0.25423077951E-01  0.10651758552E+00  0.88681402755E+00  0.88000000000E+00 0.  1.
        -11    1    4    4    0    0 -0.61453067471E-02 -0.39022757073E-03 -0.21993348461E-01  0.22844814950E-01  0.51100000000E-03 0. -1.
         11    1    4    4    0    0  0.17244186295E-02  0.28681179817E-01 -0.10735466094E+00  0.11113445929E+00  0.51100000000E-03 0.  1.
</event>
<event>
 8    1  0.1088270E+005  0.1043930E+01  0.7957747E-01            NaN
         13   -1    0    0    0    0  0.00000000000E+00  0.00000000000E+00  0.74505805969E-08  0.10566000000E+00  0.10566000000E+00 0.  1.
     999900   -1    0    0    0    0 -0.00000000000E+00 -0.00000000000E+00 -0.74505805969E-08  0.93827000000E+00  0.93827000000E+00 0. -1.
     999902    2    1    2    0    0  0.82969466848E-02  0.13528041775E-01 -0.19044125509E-01  0.10191403660E+01  0.10188388291E+01 0.  0.
     999903    2    3    3    0    0  0.62181403019E-03 -0.68581942895E-01 -0.10931809862E+00  0.13068645751E+00  0.20606648126E-01 0.  0.
         14    1    1    2    0    0 -0.82969466848E-02 -0.13528041775E-01  0.19044125509E-01  0.24789634022E-01  0.00000000000E+00 0.  1.
     999901    1    3    3    0    0  0.76751326546E-02  0.82109984670E-01  0.90273973113E-01  0.88845390846E+00  0.88000000000E+00 0.  1.
        -11    1    4    4    0    0  0.16021790679E-02 -0.23788463868E-01 -0.57096746699E-01  0.61876955287E-01  0.51100000000E-03 0.  1.
         11    1    4    4    0    0 -0.98036503768E-03 -0.44793479026E-01 -0.52221351924E-01  0.68809502226E-01  0.51100000000E-03 0. -1.
</event>
<event>
 8    1  0.1088270E+005  0.1043930E+01  0.7957747E-01            NaN
         13   -1    0    0    0    0  0.00000000000E+00  0.00000000000E+00  0.74505805969E-08  0.10566000000E+00  0.10566000000E+00 0. -1.
     999900   -1    0    0    0    0 -0.00000000000E+00 -0.00000000000E+00 -0.74505805969E-08  0.93827000000E+00  0.93827000000E+00 0. -1.
     999902    2    1    2    0    0 -0.16874828135E-01  0.17496414252E-01 -0.40137758580E-02  0.10192927369E+01  0.10189949405E+01 0.  0.
     999903    2    3    3    0    0  0.11184263561E+00  0.20018058834E-01  0.55302282068E-01  0.12794940300E+00  0.20080077389E-01 0.  0.
         14    1    1    2    0    0  0.16874828135E-01 -0.17496414252E-01  0.40137758580E-02  0.24637263097E-01  0.00000000000E+00 0.  1.
     999901    1    3    3    0    0 -0.12871746374E+00 -0.25216445823E-02 -0.59316057926E-01  0.89134333390E+00  0.88000000000E+00 0. -1.
        -11    1    4    4    0    0  0.10910862927E-01  0.40968815406E-02 -0.19991863277E-03  0.11667581439E-01  0.51100000000E-03 0.  1.
         11    1    4    4    0    0  0.10093177268E+00  0.15921177294E-01  0.55502200700E-01  0.11628182156E+00  0.51100000000E-03 0. -1.
</event>
<event>
 8    1  0.1088270E+005  0.1043930E+01  0.7957747E-01            NaN
         13   -1    0    0    0    0  0.00000000000E+00  0.00000000000E+00  0.74505805969E-08  0.10566000000E+00  0.10566000000E+00 0. -1.
     999900   -1    0    0    0    0 -0.00000000000E+00 -0.00000000000E+00 -0.74505805969E-08  0.93827000000E+00  0.93827000000E+00 0.  1.
     999902    2    1    2    0    0  0.21602507295E-01 -0.30698333144E-02 -0.96384500697E-02  0.10200764485E+01  0.10197975137E+01 0.  0.
     999903    2    3    3    0    0  0.17670153548E-01  0.11939419388E+00 -0.46410343618E-01  0.13082672347E+00  0.19862117734E-01 0.  0.
         14    1    1    2    0    0 -0.21602507295E-01  0.30698333144E-02  0.96384500697E-02  0.23853551470E-01  0.00000000000E+00 0. -1.
     999901    1    3    3    0    0  0.39323537468E-02 -0.12246402719E+00  0.36771893549E-01  0.88924972506E+00  0.88000000000E+00 0. -1.
        -11    1    4    4    0    0  0.37374409101E-03  0.46592401068E-01 -0.25557858019E-01  0.53145618347E-01  0.51100000000E-03 0.  1.
         11    1    4    4    0    0  0.17296409457E-01  0.72801792811E-01 -0.20852485599E-01  0.77681105124E-01  0.51100000000E-03 0. -1.
</event>
<event>
 8    1  0.1088270E+005  0.1043930E+01  0.7957747E-01            NaN
         13   -1    0    0    0    0  0.00000000000E+00  0.00000000000E+00  0.74505805969E-08  0.10566000000E+00  0.10566000000E+00 0. -1.
     999900   -1    0    0    0    0 -0.00000000000E+00 -0.00000000000E+00 -0.74505805969E-08  0.93827000000E+00  0.93827000000E+00 0.  1.
     999902    2    1    2    0    0 -0.19805343789E-01 -0.80781358263E-02  0.87321582666E-02  0.10208267857E+01  0.10205653178E+01 0.  0.
     999903    2    3    3    0    0 -0.12088555213E+00  0.23377839750E-02 -0.51640273789E-01  0.13292446541E+00  0.19580951958E-01 0.  0.
         14    1    1    2    0    0  0.19805343789E-01  0.80781358263E-02 -0.87321582666E-02  0.23103214257E-01  0.00000000000E+00 0.  1.
     999901    1    3    3    0    0  0.10108020834E+00 -0.10415919801E-01  0.60372432055E-01  0.88790232033E+00  0.88000000000E+00 0. -1.
        -11    1    4    4    0    0 -0.56341606949E-01 -0.70105298091E-02 -0.29946314912E-01  0.64191643534E-01  0.51100000000E-03 0.  1.
         11    1    4    4    0    0 -0.64543945180E-01  0.93483137841E-02 -0.21693958877E-01  0.68732821874E-01  0.51100000000E-03 0. -1.
</event>
<event>
 8    1  0.1088270E+005  0.1043930E+01  0.7957747E-01            NaN
         13   -1    0    0    0    0  0.00000000000E+00  0.00000000000E+00  0.74505805969E-08  0.10566000000E+00  0.10566000000E+00 0. -1.
     999900   -1    0    0    0    0 -0.00000000000E+00 -0.00000000000E+00 -0.74505805969E-08  0.93827000000E+00  0.93827000000E+00 0.  1.
     999902    2    1    2    0    0  0.60768964457E-02 -0.25686266236E-01 -0.55850714391E-02  0.10169502675E+01  0.10165923178E+01 0.  0.
     999903    2    3    3    0    0  0.98474731446E-01  0.50960522545E-01 -0.59032628768E-01  0.12719258613E+00  0.19971357399E-01 0.  0.
         14    1    1    2    0    0 -0.60768964457E-02  0.25686266236E-01  0.55850714391E-02  0.26979732514E-01  0.00000000000E+00 0.  1.
     999901    1    3    3    0    0 -0.92397835000E-01 -0.76646788781E-01  0.53447557329E-01  0.88975768135E+00  0.88000000000E+00 0. -1.
        -11    1    4    4    0    0  0.36379532092E-01  0.84195274222E-02 -0.21322507648E-01  0.43003130707E-01  0.51100000000E-03 0. -1.
         11    1    4    4    0    0  0.62095199354E-01  0.42540995123E-01 -0.37710121120E-01  0.84189455425E-01  0.51100000000E-03 0.  1.
</event>
<event>
 8    1  0.1088270E+005  0.1043930E+01  0.7957747E-01            NaN
         13   -1    0    0    0    0  0.00000000000E+00  0.00000000000E+00  0.74505805969E-08  0.10566000000E+00  0.10566000000E+00 0.  1.
     999900   -1    0    0    0    0 -0.00000000000E+00 -0.00000000000E+00 -0.74505805969E-08  0.93827000000E+00  0.93827000000E+00 0. -1.
     999902    2    1    2    0    0  0.19015124122E-01  0.12825101425E-01  0.88599034298E-02  0.10193422783E+01  0.10190456929E+01 0.  0.
     999903    2    3    3    0    0 -0.21946795814E-01  0.28332543529E-01 -0.12191698910E+00  0.12860047769E+00  0.19746791187E-01 0.  0.
         14    1    1    2    0    0 -0.19015124122E-01 -0.12825101425E-01 -0.88599034298E-02  0.24587721748E-01  0.00000000000E+00 0. -1.
     999901    1    3    3    0    0  0.40961919936E-01 -0.15507442104E-01  0.13077689253E+00  0.89074180056E+00  0.88000000000E+00 0.  1.
        -11    1    4    4    0    0 -0.78673233756E-02  0.26453772101E-02 -0.53963371478E-01  0.54600360621E-01  0.51100000000E-03 0.  1.
         11    1    4    4    0    0 -0.14079472438E-01  0.25687166319E-01 -0.67953617622E-01  0.74000117071E-01  0.51100000000E-03 0. -1.
</event>
<event>
 8    1  0.1088270E+005  0.1043930E+01  0.7957747E-01            NaN
         13   -1    0    0    0    0  0.00000000000E+00  0.00000000000E+00  0.74505805969E-08  0.10566000000E+00  0.10566000000E+00 0. -1.
     999900   -1    0    0    0    0 -0.00000000000E+00 -0.00000000000E+00 -0.74505805969E-08  0.93827000000E+00  0.93827000000E+00 0.  1.
     999902    2    1    2    0    0 -0.16351521478E-01 -0.14779971918E-01  0.10989332877E-01  0.10193010483E+01  0.10190034553E+01 0.  0.
     999903    2    3    3    0    0 -0.35070937745E-01 -0.81944994070E-01  0.95874128081E-01  0.13247130974E+00  0.20294007524E-01 0.  0.
         14    1    1    2    0    0  0.16351521478E-01  0.14779971918E-01 -0.10989332877E-01  0.24628951696E-01  0.00000000000E+00 0.  1.
     999901    1    3    3    0    0  0.18719416267E-01  0.67165022151E-01 -0.84884795204E-01  0.88682973856E+00  0.88000000000E+00 0.  1.
        -11    1    4    4    0    0 -0.22085409751E-01 -0.27023166385E-01  0.34076394409E-01  0.48779899777E-01  0.51100000000E-03 0.  1.
         11    1    4    4    0    0 -0.12985527994E-01 -0.54921827685E-01  0.61797733672E-01  0.83691409963E-01  0.51100000000E-03 0. -1.
</event>
<event>
 8    1  0.1088270E+005  0.1043930E+01  0.7957747E-01            NaN
         13   -1    0    0    0    0  0.00000000000E+00  0.00000000000E+00  0.74505805969E-08  0.10566000000E+00  0.10566000000E+00 0. -1.
     999900   -1    0    0    0    0 -0.00000000000E+00 -0.00000000000E+00 -0.74505805969E-08  0.93827000000E+00  0.93827000000E+00 0. -1.
     999902    2    1    2    0    0  0.19959783287E-01  0.11194075050E-01 -0.46135953217E-02  0.10205850749E+01  0.10203180434E+01 0.  0.
     999903    2    3    3    0    0 -0.22083553019E-01 -0.11054131633E+00 -0.60478286235E-01  0.12945769271E+00  0.19864671264E-01 0.  0.
         14    1    1    2    0    0 -0.19959783287E-01 -0.11194075050E-01  0.46135953217E-02  0.23344925077E-01  0.00000000000E+00 0. -1.
     999901    1    3    3    0    0  0.42043336305E-01  0.12173539138E+00  0.55864690913E-01  0.89112738222E+00  0.88000000000E+00 0.  1.
        -11    1    4    4    0    0 -0.18041736078E-01 -0.42433222720E-01 -0.21489955814E-01  0.50873981100E-01  0.51100000000E-03 0. -1.
         11    1    4    4    0    0 -0.40418169406E-02 -0.68108093614E-01 -0.38988330421E-01  0.78583711607E-01  0.51100000000E-03 0.  1.
</event>
<event>
 8    1  0.1088270E+005  0.1043930E+01  0.7957747E-01            NaN
         13   -1    0    0    0    0  0.00000000000E+00  0.00000000000E+00  0.74505805969E-08  0.10566000000E+00  0.10566000000E+00 0.  1.
     999900   -1    0    0    0    0 -0.00000000000E+00 -0.00000000000E+00 -0.74505805969E-08  0.93827000000E+00  0.93827000000E+00 0. -1.
     999902    2    1    2    0    0  0.52760931779E-02  0.24260260280E-02 -0.25191086163E-01  0.10180782383E+01  0.10177499623E+01 0.  0.
     999903    2    3    3    0    0 -0.74861383088E-01  0.84269599121E-02 -0.10511793413E+00  0.13080921069E+00  0.19647625650E-01 0.  0.
         14    1    1    2    0    0 -0.52760931779E-02 -0.24260260280E-02  0.25191086163E-01  0.25851761711E-01  0.00000000000E+00 0.  1.
     999901    1    3    3    0    0  0.80137476266E-01 -0.60009338841E-02  0.79926847971E-01  0.88726902760E+00  0.88000000000E+00 0.  1.
        -11    1    4    4    0    0 -0.44704236220E-01 -0.29288190242E-02 -0.51599168602E-01  0.68335803488E-01  0.51100000000E-03 0. -1.
         11    1    4    4    0    0 -0.30157146868E-01  0.11355778936E-01 -0.53518765531E-01  0.62473407202E-01  0.51100000000E-03 0.  1.
</event>
<event>
 8    1  0.1088270E+005  0.1043930E+01  0.7957747E-01            NaN
         13   -1    0    0    0    0  0.00000000000E+00  0.00000000000E+00  0.74505805969E-08  0.10566000000E+00  0.10566000000E+00 0. -1.
     999900   -1    0    0    0    0 -0.00000000000E+00 -0.00000000000E+00 -0.74505805969E-08  0.93827000000E+00  0.93827000000E+00 0.  1.
     999902    2    1    2    0    0 -0.60373645316E-03  0.10372993076E-01  0.21695397273E-01  0.10198747772E+01  0.10195910491E+01 0.  0.
     999903    2    3    3    0    0 -0.76177214192E-01 -0.37001065232E-01  0.99265739543E-01  0.13197117319E+00  0.19765037731E-01 0.  0.
         14    1    1    2    0    0  0.60373645316E-03 -0.10372993076E-01 -0.21695397273E-01  0.24055222840E-01  0.00000000000E+00 0.  1.
     999901    1    3    3    0    0  0.75573477739E-01  0.47374058308E-01 -0.77570342271E-01  0.88790360397E+00  0.88000000000E+00 0.  1.
        -11    1    4    4    0    0 -0.34144371782E-01 -0.18261921012E-01  0.30825873779E-01  0.49495772534E-01  0.51100000000E-03 0.  1.
         11    1    4    4    0    0 -0.42032842410E-01 -0.18739144220E-01  0.68439865764E-01  0.82475400659E-01  0.51100000000E-03 0. -1.
</event>
<event>
 8    1  0.1088270E+005  0.1043930E+01  0.7957747E-01            NaN
         13   -1    0    0    0    0  0.00000000000E+00  0.00000000000E+00  0.74505805969E-08  0.10566000000E+00  0.10566000000E+00 0. -1.
     999900   -1    0    0    0    0 -0.00000000000E+00 -0.00000000000E+00 -0.74505805969E-08  0.93827000000E+00  0.93827000000E+00 0. -1.
     999902    2    1    2    0    0 -0.12974458784E-02 -0.18649247715E-01 -0.13956072105E-01  0.10206008390E+01  0.10203341721E+01 0.  0.
     999903    2    3    3    0    0  0.44621800537E-01 -0.12194010616E+00  0.19333225608E-01  0.13274625854E+00  0.19679963718E-01 0.  0.
         14    1    1    2    0    0  0.12974458784E-02  0.18649247715E-01  0.13956072105E-01  0.23329161038E-01  0.00000000000E+00 0.  1.
     999901    1    3    3    0    0 -0.45919246415E-01  0.10329085844E+00 -0.33289297713E-01  0.88785458042E+00  0.88000000000E+00 0. -1.
        -11    1    4    4    0    0  0.25331959660E-01 -0.93885925052E-01  0.12950146974E-01  0.98103223855E-01  0.51100000000E-03 0.  1.
         11    1    4    4    0    0  0.19289840877E-01 -0.28054181105E-01  0.63830786335E-02  0.34643034688E-01  0.51100000000E-03 0. -1.
</event>
<event>
 7    1  0.1088270E+005  0.1043930E+01  0.7957747E-01            NaN
         13   -1    0    0    0    0  0.00000000000E+00  0.00000000000E+00  0.74505805969E-08  0.10566000000E+00  0.10566000000E+00 0.  1.
     999900   -1    0    0    0    0 -0.00000000000E+00 -0.00000000000E+00 -0.74505805969E-08  0.93827000000E+00  0.93827000000E+00 0.  1.
     999903    2    1    2    0    0 -0.22508856857E-01 -0.58632526519E-01 -0.80086862549E-01  0.10368113080E+00  0.19785083496E-01 0.  0.
         14    1    1    2    0    0  0.53350806329E-01 -0.71360345684E-02  0.57517681624E-02  0.54132378133E-01  0.00000000000E+00 0.  1.
     999901    1    1    2    0    0 -0.30841949472E-01  0.65768561088E-01  0.74335094387E-01  0.88611649106E+00  0.88000000000E+00 0. -1.
        -11    1    3    3    0    0 -0.35636749747E-02 -0.28477369562E-01 -0.46975919921E-01  0.55051417147E-01  0.51100000000E-03 0.  1.
         11    1    3    3    0    0 -0.18945181883E-01 -0.30155156958E-01 -0.33110942628E-01  0.48629713658E-01  0.51100000000E-03 0. -1.
</event>
<event>
 8    1  0.1088270E+005  0.1043930E+01  0.7957747E-01            NaN
         13   -1    0    0    0    0  0.00000000000E+00  0.00000000000E+00  0.74505805969E-08  0.10566000000E+00  0.10566000000E+00 0. -1.
     999900   -1    0    0    0    0 -0.00000000000E+00 -0.00000000000E+00 -0.74505805969E-08  0.93827000000E+00  0.93827000000E+00 0. -1.
     999902    2    1    2    0    0 -0.15881744334E-01 -0.59787353991E-02  0.13435472197E-01  0.10222854396E+01  0.10220562769E+01 0.  0.
     999903    2    3    3    0    0  0.12604532480E-01 -0.51003352282E-01  0.12167607083E+00  0.13405421339E+00  0.20130815515E-01 0.  0.
         14    1    1    2    0    0  0.15881744334E-01  0.59787353991E-02 -0.13435472197E-01  0.21644560360E-01  0.00000000000E+00 0.  1.
     999901    1    3    3    0    0 -0.28486276813E-01  0.45024616883E-01 -0.10824059863E+00  0.88823122625E+00  0.88000000000E+00 0. -1.
        -11    1    4    4    0    0  0.73894991165E-02 -0.40592179931E-01  0.71591470659E-01  0.82631286816E-01  0.51100000000E-03 0.  1.
         11    1    4    4    0    0  0.52150333632E-02 -0.10411172351E-01  0.50084600166E-01  0.51422926575E-01  0.51100000000E-03 0. -1.
</event>
<event>
 8    1  0.1088270E+005  0.1043930E+01  0.7957747E-01            NaN
         13   -1    0    0    0    0  0.00000000000E+00  0.00000000000E+00  0.74505805969E-08  0.10566000000E+00  0.10566000000E+00 0. -1.
     999900   -1    0    0    0    0 -0.00000000000E+00 -0.00000000000E+00 -0.74505805969E-08  0.93827000000E+00  0.93827000000E+00 0. -1.
     999902    2    1    2    0    0 -0.11531713047E-01  0.15864298819E-01  0.12719813293E-01  0.10205537293E+01  0.10202859718E+01 0.  0.
     999903    2    3    3    0    0 -0.82588380413E-01 -0.33316750667E-01  0.95904393250E-01  0.13241663403E+00  0.20141148659E-01 0.  0.
         14    1    1    2    0    0  0.11531713047E-01 -0.15864298819E-01 -0.12719813293E-01  0.23376270725E-01  0.00000000000E+00 0.  1.
     999901    1    3    3    0    0  0.71056667366E-01  0.49181049486E-01 -0.83184579957E-01  0.88813709524E+00  0.88000000000E+00 0.  1.
        -11    1    4    4    0    0 -0.62427910493E-01 -0.19816387304E-01  0.58450832347E-01  0.87787778975E-01  0.51100000000E-03 0.  1.
         11    1    4    4    0    0 -0.20160469920E-01 -0.13500363363E-01  0.37453560903E-01  0.44628855056E-01  0.51100000000E-03 0. -1.
</event>
<event>
 8    1  0.1088270E+005  0.1043930E+01  0.7957747E-01            NaN
         13   -1    0    0    0    0  0.00000000000E+00  0.00000000000E+00  0.74505805969E-08  0.10566000000E+00  0.10566000000E+00 0. -1.
     999900   -1    0    0    0    0 -0.00000000000E+00 -0.00000000000E+00 -0.74505805969E-08  0.93827000000E+00  0.93827000000E+00 0. -1.
     999902    2    1    2    0    0 -0.98242100238E-02  0.12818325752E-01  0.14006019523E-01  0.10225526016E+01  0.10223291202E+01 0.  0.
     999903    2    3    3    0    0 -0.26410039136E-01 -0.12684036360E+00 -0.49272749573E-02  0.13118392995E+00  0.19974419453E-01 0.  0.
         14    1    1    2    0    0  0.98242100238E-02 -0.12818325752E-01 -0.14006019523E-01  0.21377398358E-01  0.00000000000E+00 0.  1.
     999901    1    3    3    0    0  0.16585829112E-01  0.13965868935E+00  0.18933294480E-01  0.89136867169E+00  0.88000000000E+00 0.  1.
        -11    1    4    4    0    0  0.15506931100E-02 -0.35903909752E-01 -0.21081237907E-02  0.36002787274E-01  0.51100000000E-03 0. -1.
         11    1    4    4    0    0 -0.27960732246E-01 -0.90936453849E-01 -0.28191511666E-02  0.95181142674E-01  0.51100000000E-03 0.  1.
</event>
<event>
 8    1  0.1088270E+005  0.1043930E+01  0.7957747E-01            NaN
         13   -1    0    0    0    0  0.00000000000E+00  0.00000000000E+00  0.74505805969E-08  0.10566000000E+00  0.10566000000E+00 0.  1.
     999900   -1    0    0    0    0 -0.00000000000E+00 -0.00000000000E+00 -0.74505805969E-08  0.93827000000E+00  0.93827000000E+00 0.  1.
     999902    2    1    2    0    0  0.85229911462E-02 -0.95051429759E-02 -0.19672585991E-01  0.10204779263E+01  0.10202084093E+01 0.  0.
     999903    2    3    3    0    0  0.11695756250E+00  0.36015203925E-01 -0.46024921001E-01  0.13226364821E+00  0.19980313951E-01 0.  0.
         14    1    1    2    0    0 -0.85229911462E-02  0.95051429759E-02  0.19672585991E-01  0.23452073696E-01  0.00000000000E+00 0.  1.
     999901    1    3    3    0    0 -0.10843457135E+00 -0.45520346900E-01  0.26352335010E-01  0.88821427809E+00  0.88000000000E+00 0. -1.
        -11    1    4    4    0    0  0.72256817588E-01  0.32168920248E-01 -0.30825992694E-01  0.84890459208E-01  0.51100000000E-03 0. -1.
         11    1    4    4    0    0  0.44700744911E-01  0.38462836765E-02 -0.15198928307E-01  0.47373189004E-01  0.51100000000E-03 0.  1.
</event>
<event>
 8    1  0.1088270E+005  0.1043930E+01  0.7957747E-01            NaN
         13   -1    0    0    0    0  0.00000000000E+00  0.00000000000E+00  0.74505805969E-08  0.10566000000E+00  0.10566000000E+00 0.  1.
     999900   -1    0    0    0    0 -0.00000000000E+00 -0.00000000000E+00 -0.74505805969E-08  0.93827000000E+00  0.93827000000E+00 0.  1.
     999902    2    1    2    0    0  0.11929131037E-02 -0.23201395994E-01 -0.87326867260E-02  0.10191109018E+01  0.10188086388E+01 0.  0.
     999903    2    3    3    0    0 -0.92973222298E-01  0.62774039696E-01  0.56905527907E-01  0.12750145153E+00  0.20827407708E-01 0.  0.
         14    1    1    2    0    0 -0.11929131037E-02  0.23201395994E-01  0.87326867260E-02  0.24819098194E-01  0.00000000000E+00 0. -1.
     999901    1    3    3    0    0  0.94166135402E-01 -0.85975435690E-01 -0.65638214633E-01  0.89160945027E+00  0.88000000000E+00 0. -1.
        -11    1    4    4    0    0 -0.93544239623E-02  0.11554493794E-02  0.86980475661E-03  0.94793455602E-02  0.51100000000E-03 0. -1.
         11    1    4    4    0    0 -0.83618798336E-01  0.61618590317E-01  0.56035723151E-01  0.11802210597E+00  0.51100000000E-03 0.  1.
</event>
<event>
 8    1  0.1088270E+005  0.1043930E+01  0.7957747E-01            NaN
         13   -1    0    0    0    0  0.00000000000E+00  0.00000000000E+00  0.74505805969E-08  0.10566000000E+00  0.10566000000E+00 0. -1.
     999900   -1    0    0    0    0 -0.00000000000E+00 -0.00000000000E+00 -0.74505805969E-08  0.93827000000E+00  0.93827000000E+00 0. -1.
     999902    2    1    2    0    0 -0.23740129435E-01  0.14992966251E-02 -0.38536871589E-02  0.10198324370E+01  0.10195476973E+01 0.  0.
     999903    2    3    3    0    0  0.80557840718E-01 -0.69657967823E-01  0.67970516019E-01  0.12792429209E+00  0.20070756754E-01 0.  0.
         14    1    1    2    0    0  0.23740129435E-01 -0.14992966251E-02  0.38536871589E-02  0.24097562962E-01  0.00000000000E+00 0.  1.
     999901    1    3    3    0    0 -0.10429797015E+00  0.71157264448E-01 -0.71824203178E-01  0.89190814495E+00  0.88000000000E+00 0. -1.
        -11    1    4    4    0    0  0.21715939541E-01 -0.18407377135E-01  0.81988720996E-02  0.29629312983E-01  0.51100000000E-03 0.  1.
         11    1    4    4    0    0  0.58841901177E-01 -0.51250590688E-01  0.59771643919E-01  0.98294979108E-01  0.51100000000E-03 0. -1.
</event>
<event>
 8    1  0.1088270E+005  0.1043930E+01  0.7957747E-01            NaN
         13   -1    0    0    0    0  0.00000000000E+00  0.00000000000E+00  0.74505805969E-08  0.10566000000E+00  0.10566000000E+00 0.  1.
     999900   -1    0    0    0    0 -0.00000000000E+00 -0.00000000000E+00 -0.74505805969E-08  0.93827000000E+00  0.93827000000E+00 0.  1.
     999902    2    1    2    0    0  0.12694163065E-01  0.36389192980E-02 -0.18841385857E-01  0.10209217117E+01  0.10206624124E+01 0.  0.
     999903    2    3    3    0    0  0.86712884979E-02 -0.12757741391E+00  0.16616771362E-01  0.13047733357E+00  0.19925604155E-01 0.  0.
         14    1    1    2    0    0 -0.12694163065E-01 -0.36389192980E-02  0.18841385857E-01  0.23008288302E-01  0.00000000000E+00 0.  1.
     999901    1    3    3    0    0  0.40228745675E-02  0.13121633321E+00 -0.35458157219E-01  0.89044437812E+00  0.88000000000E+00 0. -1.
        -11    1    4    4    0    0 -0.39363863775E-02 -0.27075281410E-01  0.93812661723E-02  0.28928105315E-01  0.51100000000E-03 0. -1.
         11    1    4    4    0    0  0.12607674875E-01 -0.10050213250E+00  0.72355051898E-02  0.10154922826E+00  0.51100000000E-03 0.  1.
</event>
<event>
 8    1  0.1088270E+005  0.1043930E+01  0.7957747E-01            NaN
         13   -1    0    0    0    0  0.00000000000E+00  0.00000000000E+00  0.74505805969E-08  0.10566000000E+00  0.10566000000E+00 0.  1.
     999900   -1    0    0    0    0 -0.00000000000E+00 -0.00000000000E+00 -0.74505805969E-08  0.93827000000E+00  0.93827000000E+00 0.  1.
     999902    2    1    2    0    0  0.21115480481E-01 -0.11495289674E-01  0.54154164022E-02  0.10192858945E+01  0.10189879306E+01 0.  0.
     999903    2    3    3    0    0  0.12972601349E+00 -0.65785519215E-02  0.13004708384E-01  0.13256270233E+00  0.23057139668E-01 0.  0.
         14    1    1    2    0    0 -0.21115480481E-01  0.11495289674E-01 -0.54154164022E-02  0.24644105491E-01  0.00000000000E+00 0. -1.
     999901    1    3    3    0    0 -0.10861053300E+00 -0.49167377522E-02 -0.75892919818E-02  0.88672319218E+00  0.88000000000E+00 0. -1.
        -11    1    4    4    0    0  0.73651644815E-01 -0.14995762021E-01  0.92875044100E-02  0.75736097878E-01  0.51100000000E-03 0.  1.
         11    1    4    4    0    0  0.56074368670E-01  0.84172100994E-02  0.37172039739E-02  0.56826604456E-01  0.51100000000E-03 0. -1.
</event>
<event>
 8    1  0.1088270E+005  0.1043930E+01  0.7957747E-01            NaN
         13   -1    0    0    0    0  0.00000000000E+00  0.00000000000E+00  0.74505805969E-08  0.10566000000E+00  0.10566000000E+00 0. -1.
     999900   -1    0    0    0    0 -0.00000000000E+00 -0.00000000000E+00 -0.74505805969E-08  0.93827000000E+00  0.93827000000E+00 0.  1.
     999902    2    1    2    0    0 -0.19995743378E-01 -0.14899428979E-01  0.48894988503E-02  0.10185187833E+01  0.10182017393E+01 0.  0.
     999903    2    3    3    0    0  0.13798939735E-01  0.95464505424E-01 -0.80022145080E-01  0.12692904246E+00  0.20088692927E-01 0.  0.
         14    1    1    2    0    0  0.19995743378E-01  0.14899428979E-01 -0.48894988503E-02  0.25411216738E-01  0.00000000000E+00 0.  1.
     999901    1    3    3    0    0 -0.33794683113E-01 -0.11036393440E+00  0.84911643931E-01  0.89158974080E+00  0.88000000000E+00 0. -1.
        -11    1    4    4    0    0 -0.35079972379E-03  0.55417393168E-01 -0.38136223175E-01  0.67274387140E-01  0.51100000000E-03 0.  1.
         11    1    4    4    0    0  0.14149739459E-01  0.40047112256E-01 -0.41885921905E-01  0.59654655322E-01  0.51100000000E-03 0. -1.
</event>
<event>
 8    1  0.1088270E+005  0.1043930E+01  0.7957747E-01            NaN
         13   -1    0    0    0    0  0.00000000000E+00  0.00000000000E+00  0.74505805969E-08  0.10566000000E+00  0.10566000000E+00 0. -1.
     999900   -1    0    0    0    0 -0.00000000000E+00 -0.00000000000E+00 -0.74505805969E-08  0.93827000000E+00  0.93827000000E+00 0. -1.
     999902    2    1    2    0    0  0.17726739720E-01 -0.96106297025E-02 -0.12818962386E-01  0.10200359149E+01  0.10197560201E+01 0.  0.
     999903    2    3    3    0    0 -0.31961136644E-01 -0.11574272990E+00  0.46396337264E-01  0.13029473939E+00  0.20154533501E-01 0.  0.
         14    1    1    2    0    0 -0.17726739720E-01  0.96106297025E-02  0.12818962386E-01  0.23894085064E-01  0.00000000000E+00 0. -1.
     999901    1    3    3    0    0  0.49687876365E-01  0.10613210020E+00 -0.59215299650E-01  0.88974117555E+00  0.88000000000E+00 0. -1.
        -11    1    4    4    0    0 -0.90235691037E-02 -0.54473553659E-01  0.12517669384E-01  0.56619307797E-01  0.51100000000E-03 0. -1.
         11    1    4    4    0    0 -0.22937567541E-01 -0.61269176241E-01  0.33878667881E-01  0.73675431593E-01  0.51100000000E-03 0.  1.
</event>
<event>
 8    1  0.1088270E+005  0.1043930E+01  0.7957747E-01            NaN
         13   -1    0    0    0    0  0.00000000000E+00  0.00000000000E+00  0.74505805969E-08  0.10566000000E+00  0.10566000000E+00 0. -1.
     999900   -1    0    0    0    0 -0.00000000000E+00 -0.00000000000E+00 -0.74505805969E-08  0.93827000000E+00  0.93827000000E+00 0.  1.
     999902    2    1    2    0    0  0.26124400554E-02  0.22903054936E-01  0.69417658271E-02  0.10198558877E+01  0.10195717085E+01 0.  0.
     999903    2    3    3    0    0 -0.51551237221E-01 -0.42204674809E-01  0.10963298757E+00  0.12984565890E+00  0.20043416337E-01 0.  0.
         14    1    1    2    0    0 -0.26124400554E-02 -0.22903054936E-01 -0.69417658271E-02  0.24074112263E-01  0.00000000000E+00 0. -1.
     999901    1    3    3    0    0  0.54163677276E-01  0.65107729746E-01 -0.10269122174E+00  0.89001022883E+00  0.88000000000E+00 0.  1.
        -11    1    4    4    0    0 -0.16035904634E-01 -0.25806432525E-02  0.22646837065E-01  0.27873828354E-01  0.51100000000E-03 0.  1.
         11    1    4    4    0    0 -0.35515332586E-01 -0.39624031557E-01  0.86986150500E-01  0.10197183055E+00  0.51100000000E-03 0. -1.
</event>
<event>
 8    1  0.1088270E+005  0.1043930E+01  0.7957747E-01            NaN
         13   -1    0    0    0    0  0.00000000000E+00  0.00000000000E+00  0.74505805969E-08  0.10566000000E+00  0.10566000000E+00 0.  1.
     999900   -1    0    0    0    0 -0.00000000000E+00 -0.00000000000E+00 -0.74505805969E-08  0.93827000000E+00  0.93827000000E+00 0.  1.
     999902    2    1    2    0    0 -0.14988140402E-01  0.15959486801E-01 -0.10815397980E-01  0.10195102865E+01  0.10192177893E+01 0.  0.
     999903    2    3    3    0    0 -0.12939687344E+00 -0.12515332700E-01  0.23761035223E-02  0.13154959527E+00  0.19986639039E-01 0.  0.
         14    1    1    2    0    0  0.14988140402E-01 -0.15959486801E-01  0.10815397980E-01  0.24419713453E-01  0.00000000000E+00 0.  1.
     999901    1    3    3    0    0  0.11440873304E+00  0.28474819501E-01 -0.13191501502E-01  0.88796069128E+00  0.88000000000E+00 0.  1.
        -11    1    4    4    0    0 -0.76777437461E-01  0.32372561845E-04 -0.50499588645E-02  0.76945039844E-01  0.51100000000E-03 0.  1.
         11    1    4    4    0    0 -0.52619435976E-01 -0.12547705262E-01  0.74260623868E-02  0.54604555426E-01  0.51100000000E-03 0. -1.
</event>
<event>
 8    1  0.1088270E+005  0.1043930E+01  0.7957747E-01            NaN
         13   -1    0    0    0    0  0.00000000000E+00  0.00000000000E+00  0.74505805969E-08  0.10566000000E+00  0.10566000000E+00 0.  1.
     999900   -1    0    0    0    0 -0.00000000000E+00 -0.00000000000E+00 -0.74505805969E-08  0.93827000000E+00  0.93827000000E+00 0. -1.
     999902    2    1    2    0    0  0.21765568898E-02 -0.23700368661E-01  0.11404284525E-02  0.10201025903E+01  0.10198242738E+01 0.  0.
     999903    2    3    3    0    0  0.10348435073E+00 -0.77451478716E-01 -0.20550243608E-01  0.13239603060E+00  0.19966321817E-01 0.  0.
         14    1    1    2    0    0 -0.21765568898E-02  0.23700368661E-01 -0.11404284525E-02  0.23827409671E-01  0.00000000000E+00 0. -1.
     999901    1    3    3    0    0 -0.10130779384E+00  0.53751110055E-01  0.21690672061E-01  0.88770655972E+00  0.88000000000E+00 0. -1.
        -11    1    4    4    0    0  0.79534790098E-01 -0.63945614222E-01 -0.86137691919E-02  0.10241719853E+00  0.51100000000E-03 0. -1.
         11    1    4    4    0    0  0.23949560628E-01 -0.13505864494E-01 -0.11936474416E-01  0.29978832074E-01  0.51100000000E-03 0.  1.
</event>
<event>
 8    1  0.1088270E+005  0.1043930E+01  0.7957747E-01            NaN
         13   -1    0    0    0    0  0.00000000000E+00  0.00000000000E+00  0.74505805969E-08  0.10566000000E+00  0.10566000000E+00 0. -1.
     999900   -1    0    0    0    0 -0.00000000000E+00 -0.00000000000E+00 -0.74505805969E-08  0.93827000000E+00  0.93827000000E+00 0.  1.
     999902    2    1    2    0    0  0.19610457729E-01 -0.14441090639E-01 -0.52336881358E-02  0.10190200293E+01  0.10187155213E+01 0.  0.
     999903    2    3    3    0    0  0.56970135595E-01 -0.42505592967E-01 -0.10902992597E+00  0.13168862509E+00  0.20051120616E-01 0.  0.
         14    1    1    2    0    0 -0.19610457729E-01  0.14441090639E-01  0.52336881358E-02  0.24909970749E-01  0.00000000000E+00 0.  1.
     999901    1    3    3    0    0 -0.37359677865E-01  0.28064502328E-01  0.10379623783E+00  0.88733140416E+00  0.88000000000E+00 0. -1.
        -11    1    4    4    0    0  0.29789451030E-01 -0.30852492367E-01 -0.51668655707E-01  0.67150567991E-01  0.51100000000E-03 0. -1.
         11    1    4    4    0    0  0.27180684565E-01 -0.11653100601E-01 -0.57361270263E-01  0.64538057099E-01  0.51100000000E-03 0.  1.
</event>
<event>
 8    1  0.1088270E+005  0.1043930E+01  0.7957747E-01            NaN
         13   -1    0    0    0    0  0.00000000000E+00  0.00000000000E+00  0.74505805969E-08  0.10566000000E+00  0.10566000000E+00 0. -1.
     999900   -1    0    0    0    0 -0.00000000000E+00 -0.00000000000E+00 -0.74505805969E-08  0.93827000000E+00  0.93827000000E+00 0. -1.
     999902    2    1    2    0    0 -0.17086754940E-01  0.15568744495E-02  0.15608587928E-01  0.10207349775E+01  0.10204714034E+01 0.  0.
     999903    2    3    3    0    0  0.20920728644E-01  0.12531813964E+00 -0.21360991095E-01  0.13049446541E+00  0.20741276540E-01 0.  0.
         14    1    1    2    0    0  0.17086754940E-01 -0.15568744495E-02 -0.15608587928E-01  0.23195022516E-01  0.00000000000E+00 0.  1.
     999901    1    3    3    0    0 -0.38007483584E-01 -0.12376126519E+00  0.36969579023E-01  0.89024051208E+00  0.88000000000E+00 0.  1.
        -11    1    4    4    0    0  0.14326441292E-01  0.58258971107E-01 -0.19493046323E-01  0.63084028172E-01  0.51100000000E-03 0. -1.
         11    1    4    4    0    0  0.65942873520E-02  0.67059168529E-01 -0.18679447726E-02  0.67410437235E-01  0.51100000000E-03 0.  1.
</event>
<event>
 8    1  0.1088270E+005  0.1043930E+01  0.7957747E-01            NaN
         13   -1    0    0    0    0  0.00000000000E+00  0.00000000000E+00  0.74505805969E-08  0.10566000000E+00  0.10566000000E+00 0. -1.
     999900   -1    0    0    0    0 -0.00000000000E+00 -0.00000000000E+00 -0.74505805969E-08  0.93827000000E+00  0.93827000000E+00 0. -1.
     999902    2    1    2    0    0 -0.22979452420E-01  0.43834767158E-02  0.10588188207E-02  0.10205122461E+01  0.10202435264E+01 0.  0.
     999903    2    3    3    0    0 -0.30089203255E-01 -0.78536681091E-02  0.12618568621E+00  0.13154822587E+00  0.20373219457E-01 0.  0.
         14    1    1    2    0    0  0.22979452420E-01 -0.43834767158E-02 -0.10588188207E-02  0.23417753926E-01  0.00000000000E+00 0. -1.
     999901    1    3    3    0    0  0.71097508359E-02  0.12237144825E-01 -0.12512686739E+00  0.88896402020E+00  0.88000000000E+00 0. -1.
        -11    1    4    4    0    0 -0.12017215086E-01  0.56124687693E-02  0.65010001822E-01  0.66351147104E-01  0.51100000000E-03 0.  1.
         11    1    4    4    0    0 -0.18071988169E-01 -0.13466136878E-01  0.61175684387E-01  0.65197078769E-01  0.51100000000E-03 0. -1.
</event>
<event>
 8    1  0.1088270E+005  0.1043930E+01  0.7957747E-01            NaN
         13   -1    0    0    0    0  0.00000000000E+00  0.00000000000E+00  0.74505805969E-08  0.10566000000E+00  0.10566000000E+00 0. -1.
     999900   -1    0    0    0    0 -0.00000000000E+00 -0.00000000000E+00 -0.74505805969E-08  0.93827000000E+00  0.93827000000E+00 0.  1.
     999902    2    1    2    0    0 -0.99660501185E-02 -0.19389113554E-01  0.80719014099E-02  0.10206831621E+01  0.10204183955E+01 0.  0.
     999903    2    3    3    0    0 -0.85225414879E-01  0.81751006224E-01  0.51729233957E-01  0.13062740066E+00  0.21000138025E-01 0.  0.
         14    1    1    2    0    0  0.99660501185E-02  0.19389113554E-01 -0.80719014099E-02  0.23246837887E-01  0.00000000000E+00 0.  1.
     999901    1    3    3    0    0  0.75259364760E-01 -0.10114011978E+00 -0.43657332547E-01  0.89005576145E+00  0.88000000000E+00 0.  1.
        -11    1    4    4    0    0 -0.59114840900E-01  0.49542204580E-01  0.42801312056E-01  0.88211155100E-01  0.51100000000E-03 0.  1.
         11    1    4    4    0    0 -0.26110573979E-01  0.32208801643E-01  0.89279219009E-02  0.42416245559E-01  0.51100000000E-03 0. -1.
</event>
<event>
 8    1  0.1088270E+005  0.1043930E+01  0.7957747E-01            NaN
         13   -1    0    0    0    0  0.00000000000E+00  0.00000000000E+00  0.74505805969E-08  0.10566000000E+00  0.10566000000E+00 0.  1.
     999900   -1    0    0    0    0 -0.00000000000E+00 -0.00000000000E+00 -0.74505805969E-08  0.93827000000E+00  0.93827000000E+00 0.  1.
     999902    2    1    2    0    0  0.16529501506E-01  0.12146776388E-01 -0.10374612518E-01  0.10209430215E+01  0.10206842077E+01 0.  0.
     999903    2    3    3    0    0 -0.71710378709E-01 -0.79909706810E-01 -0.68351782791E-01  0.12986388648E+00  0.25782225342E-01 0.  0.
         14    1    1    2    0    0 -0.16529501506E-01 -0.12146776388E-01  0.10374612518E-01  0.22986978522E-01  0.00000000000E+00 0.  1.
     999901    1    3    3    0    0  0.88239880215E-01  0.92056483198E-01  0.57977170273E-01  0.89107913500E+00  0.88000000000E+00 0. -1.
        -11    1    4    4    0    0 -0.42719303709E-01 -0.55393233919E-01 -0.56988029575E-01  0.90228852975E-01  0.51100000000E-03 0.  1.
         11    1    4    4    0    0 -0.28991075000E-01 -0.24516472891E-01 -0.11363753216E-01  0.39635033504E-01  0.51100000000E-03 0. -1.
</event>
<event>
 8    1  0.1088270E+005  0.1043930E+01  0.7957747E-01            NaN
         13   -1    0    0    0    0  0.00000000000E+00  0.00000000000E+00  0.74505805969E-08  0.10566000000E+00  0.10566000000E+00 0. -1.
     999900   -1    0    0    0    0 -0.00000000000E+00 -0.00000000000E+00 -0.74505805969E-08  0.93827000000E+00  0.93827000000E+00 0. -1.
     999902    2    1    2    0    0  0.17597489854E-01 -0.15422615494E-01  0.35337178935E-02  0.10202653453E+01  0.10199908622E+01 0.  0.
     999903    2    3    3    0    0 -0.40920670739E-01 -0.99925058276E-01  0.72750835222E-01  0.13158314833E+00  0.19024256469E-01 0.  0.
         14    1    1    2    0    0 -0.17597489854E-01  0.15422615494E-01 -0.35337178935E-02  0.23664654656E-01  0.00000000000E+00 0.  1.
     999901    1    3    3    0    0  0.58518160594E-01  0.84502442782E-01 -0.69217117329E-01  0.88868219701E+00  0.88000000000E+00 0. -1.
        -11    1    4    4    0    0 -0.11784968380E-01 -0.51412354078E-01  0.30224700505E-01  0.60793990436E-01  0.51100000000E-03 0. -1.
         11    1    4    4    0    0 -0.29135702359E-01 -0.48512704198E-01  0.42526134718E-01  0.70789157896E-01  0.51100000000E-03 0.  1.
</event>
<event>
 8    1  0.1088270E+005  0.1043930E+01  0.7957747E-01            NaN
         13   -1    0    0    0    0  0.00000000000E+00  0.00000000000E+00  0.74505805969E-08  0.10566000000E+00  0.10566000000E+00 0. -1.
     999900   -1    0    0    0    0 -0.00000000000E+00 -0.00000000000E+00 -0.74505805969E-08  0.93827000000E+00  0.93827000000E+00 0.  1.
     999902    2    1    2    0    0 -0.37556982679E-02  0.54023680909E-02 -0.22514452835E-01  0.10204738401E+01  0.10202042280E+01 0.  0.
     999903    2    3    3    0    0 -0.89167840782E-01 -0.56966672456E-01 -0.77068833053E-01  0.13246409258E+00  0.20273756280E-01 0.  0.
         14    1    1    2    0    0  0.37556982679E-02 -0.54023680909E-02  0.22514452835E-01  0.23456159893E-01  0.00000000000E+00 0.  1.
     999901    1    3    3    0    0  0.85412142514E-01  0.62369040547E-01  0.54554380219E-01  0.88800974753E+00  0.88000000000E+00 0.  1.
        -11    1    4    4    0    0 -0.65721289339E-02 -0.11309945400E-01 -0.64608616414E-02  0.14598342297E-01  0.51100000000E-03 0. -1.
         11    1    4    4    0    0 -0.82595711848E-01 -0.45656727056E-01 -0.70607971412E-01  0.11786575028E+00  0.51100000000E-03 0.  1.
</event>
<event>
 8    1  0.1088270E+005  0.1043930E+01  0.7957747E-01            NaN
         13   -1    0    0    0    0  0.00000000000E+00  0.00000000000E+00  0.74505805969E-08  0.10566000000E+00  0.10566000000E+00 0.  1.
     999900   -1    0    0    0    0 -0.00000000000E+00 -0.00000000000E+00 -0.74505805969E-08  0.93827000000E+00  0.93827000000E+00 0. -1.
     999902    2    1    2    0    0  0.21858029053E-01 -0.45286405782E-02 -0.19799291114E-01  0.10140922060E+01  0.10136531500E+01 0.  0.
     999903    2    3    3    0    0  0.17918111800E-01  0.12125201607E+00 -0.15242153712E-01  0.12512816626E+00  0.20040574068E-01 0.  0.
         14    1    1    2    0    0 -0.21858029053E-01  0.45286405782E-02  0.19799291114E-01  0.29837793957E-01  0.00000000000E+00 0.  1.
     999901    1    3    3    0    0  0.39399172534E-02 -0.12578065665E+00 -0.45571374020E-02  0.88896403979E+00  0.88000000000E+00 0. -1.
        -11    1    4    4    0    0  0.34514072648E-02  0.85888385591E-01 -0.11719470108E-01  0.86754447103E-01  0.51100000000E-03 0.  1.
         11    1    4    4    0    0  0.14466704535E-01  0.35363630480E-01 -0.35226836035E-02  0.38373719152E-01  0.51100000000E-03 0. -1.
</event>
<event>
 8    1  0.1088270E+005  0.1043930E+01  0.7957747E-01            NaN
         13   -1    0    0    0    0  0.00000000000E+00  0.00000000000E+00  0.74505805969E-08  0.10566000000E+00  0.10566000000E+00 0.  1.
     999900   -1    0    0    0    0 -0.00000000000E+00 -0.00000000000E+00 -0.74505805969E-08  0.93827000000E+00  0.93827000000E+00 0. -1.
     999902    2    1    2    0    0 -0.10114191952E-01  0.19790188857E-01  0.17759906796E-01  0.10154806987E+01  0.10150821084E+01 0.  0.
     999903    2    3    3    0    0 -0.20614757270E-01 -0.75347732526E-01 -0.93305252495E-01  0.12335012780E+00  0.20177583404E-01 0.  0.
         14    1    1    2    0    0  0.10114191952E-01 -0.19790188857E-01 -0.17759906796E-01  0.28449301279E-01  0.00000000000E+00 0. -1.
     999901    1    3    3    0    0  0.10500565318E-01  0.95137921382E-01  0.11106515929E+00  0.89213057092E+00  0.88000000000E+00 0.  1.
        -11    1    4    4    0    0 -0.51677947677E-03 -0.33986397309E-01 -0.47782232071E-01  0.58640814164E-01  0.51100000000E-03 0. -1.
         11    1    4    4    0    0 -0.20097977793E-01 -0.41361335217E-01 -0.45523020424E-01  0.64709313640E-01  0.51100000000E-03 0.  1.
</event>
<event>
 8    1  0.1088270E+005  0.1043930E+01  0.7957747E-01            NaN
         13   -1    0    0    0    0  0.00000000000E+00  0.00000000000E+00  0.74505805969E-08  0.10566000000E+00  0.10566000000E+00 0.  1.
     999900   -1    0    0    0    0 -0.00000000000E+00 -0.00000000000E+00 -0.74505805969E-08  0.93827000000E+00  0.93827000000E+00 0.  1.
     999902    2    1    2    0    0 -0.12067549073E-01 -0.62913141329E-02 -0.12961592469E-01  0.10251361379E+01  0.10249638491E+01 0.  0.
     999903    2    3    3    0    0  0.64204616068E-02 -0.39205941035E-01 -0.12926199991E+00  0.13668188246E+00  0.19873203826E-01 0.  0.
         14    1    1    2    0    0  0.12067549073E-01  0.62913141329E-02  0.12961592469E-01  0.18793862123E-01  0.00000000000E+00 0.  1.
     999901    1    3    3    0    0 -0.18488010680E-01  0.32914626902E-01  0.11630040745E+00  0.88845425542E+00  0.88000000000E+00 0. -1.
        -11    1    4    4    0    0  0.13491518065E-02 -0.31004501241E-01 -0.69111102149E-01  0.75760839944E-01  0.51100000000E-03 0. -1.
         11    1    4    4    0    0  0.50713098003E-02 -0.82014397933E-02 -0.60150897766E-01  0.60921042513E-01  0.51100000000E-03 0.  1.
</event>
<event>
 8    1  0.1088270E+005  0.1043930E+01  0.7957747E-01            NaN
         13   -1    0    0    0    0  0.00000000000E+00  0.00000000000E+00  0.74505805969E-08  0.10566000000E+00  0.10566000000E+00 0. -1.
     999900   -1    0    0    0    0 -0.00000000000E+00 -0.00000000000E+00 -0.74505805969E-08  0.93827000000E+00  0.93827000000E+00 0.  1.
     999902    2    1    2    0    0  0.30712157714E-02  0.10980264169E-02  0.18598527582E-01  0.10250476470E+01  0.10248737167E+01 0.  0.
     999903    2    3    3    0    0 -0.10312903558E-01  0.72717012597E-01  0.11280286414E+00  0.13702576048E+00  0.25640845836E-01 0.  0.
         14    1    1    2    0    0 -0.30712157714E-02 -0.10980264169E-02 -0.18598527582E-01  0.18882353046E-01  0.00000000000E+00 0.  1.
     999901    1    3    3    0    0  0.13384119329E-01 -0.71618986180E-01 -0.94204336560E-01  0.88802188647E+00  0.88000000000E+00 0.  1.
        -11    1    4    4    0    0  0.59863783077E-02  0.14334107685E-01  0.13028561844E-01  0.20280727628E-01  0.51100000000E-03 0.  1.
         11    1    4    4    0    0 -0.16299281866E-01  0.58382904912E-01  0.99774302299E-01  0.11674503285E+00  0.51100000000E-03 0. -1.
</event>
<event>
 8    1  0.1088270E+005  0.1043930E+01  0.7957747E-01            NaN
         13   -1    0    0    0    0  0.00000000000E+00  0.00000000000E+00  0.74505805969E-08  0.10566000000E+00  0.10566000000E+00 0. -1.
     999900   -1    0    0    0    0 -0.00000000000E+00 -0.00000000000E+00 -0.74505805969E-08  0.93827000000E+00  0.93827000000E+00 0. -1.
     999902    2    1    2    0    0 -0.10944924238E-01 -0.63348919126E-03 -0.22902749546E-01  0.10185384933E+01  0.10182219472E+01 0.  0.
     999903    2    3    3    0    0  0.45037513029E-01 -0.11767789387E+00  0.13063492913E-01  0.12829863993E+00  0.20332778351E-01 0.  0.
         14    1    1    2    0    0  0.10944924238E-01  0.63348919126E-03  0.22902749546E-01  0.25391506688E-01  0.00000000000E+00 0. -1.
     999901    1    3    3    0    0 -0.55982437267E-01  0.11704440468E+00 -0.35966242459E-01  0.89023985338E+00  0.88000000000E+00 0. -1.
        -11    1    4    4    0    0  0.17721010109E-01 -0.72426058188E-01  0.40369535265E-02  0.74673463953E-01  0.51100000000E-03 0.  1.
         11    1    4    4    0    0  0.27316502920E-01 -0.45251835683E-01  0.90265393869E-02  0.53625175979E-01  0.51100000000E-03 0. -1.
</event>
<event>
 8    1  0.1088270E+005  0.1043930E+01  0.7957747E-01            NaN
         13   -1    0    0    0    0  0.00000000000E+00  0.00000000000E+00  0.74505805969E-08  0.10566000000E+00  0.10566000000E+00 0.  1.
     999900   -1    0    0    0    0 -0.00000000000E+00 -0.00000000000E+00 -0.74505805969E-08  0.93827000000E+00  0.93827000000E+00 0.  1.
     999902    2    1    2    0    0  0.49380066398E-02  0.14963621986E-01 -0.22201196995E-01  0.10167052495E+01  0.10163406797E+01 0.  0.
     999903    2    3    3    0    0 -0.31871406790E-03 -0.11854014270E+00 -0.39080303453E-01  0.12646045589E+00  0.20325102061E-01 0.  0.
         14    1    1    2    0    0 -0.49380066398E-02 -0.14963621986E-01  0.22201196995E-01  0.27224750514E-01  0.00000000000E+00 0.  1.
     999901    1    3    3    0    0  0.52567207077E-02  0.13350376469E+00  0.16879106457E-01  0.89024479360E+00  0.88000000000E+00 0. -1.
        -11    1    4    4    0    0 -0.90582247578E-02 -0.75748914765E-01 -0.20511040501E-01  0.78999452069E-01  0.51100000000E-03 0. -1.
         11    1    4    4    0    0  0.87395106899E-02 -0.42791227939E-01 -0.18569262952E-01  0.47461003816E-01  0.51100000000E-03 0.  1.
</event>
<event>
 8    1  0.1088270E+005  0.1043930E+01  0.7957747E-01            NaN
         13   -1    0    0    0    0  0.00000000000E+00  0.00000000000E+00  0.74505805969E-08  0.10566000000E+00  0.10566000000E+00 0. -1.
     999900   -1    0    0    0    0 -0.00000000000E+00 -0.00000000000E+00 -0.74505805969E-08  0.93827000000E+00  0.93827000000E+00 0. -1.
     999902    2    1    2    0    0  0.10695408600E-01  0.22037330467E-01 -0.61424768957E-03  0.10194266737E+01  0.10191321455E+01 0.  0.
     999903    2    3    3    0    0 -0.89973221009E-01 -0.32562397510E-03  0.90114714476E-01  0.12877184758E+00  0.19137409313E-01 0.  0.
         14    1    1    2    0    0 -0.10695408600E-01 -0.22037330467E-01  0.61424768957E-03  0.24503326294E-01  0.00000000000E+00 0. -1.
     999901    1    3    3    0    0  0.10066862961E+00  0.22362954443E-01 -0.90728962166E-01  0.89065482612E+00  0.88000000000E+00 0. -1.
        -11    1    4    4    0    0 -0.10783044630E-01  0.38994218287E-02  0.52543930034E-02  0.12623363614E-01  0.51100000000E-03 0. -1.
         11    1    4    4    0    0 -0.79190176379E-01 -0.42250458038E-02  0.84860321473E-01  0.11614848397E+00  0.51100000000E-03 0.  1.
</event>
<event>
 8    1  0.1088270E+005  0.1043930E+01  0.7957747E-01            NaN
         13   -1    0    0    0    0  0.00000000000E+00  0.00000000000E+00  0.74505805969E-08  0.10566000000E+00  0.10566000000E+00 0.  1.
     999900   -1    0    0    0    0 -0.00000000000E+00 -0.00000000000E+00 -0.74505805969E-08  0.93827000000E+00  0.93827000000E+00 0. -1.
     999902    2    1    2    0    0 -0.19825086442E-01 -0.11432078260E-01 -0.85773532032E-02  0.10194903303E+01  0.10191973490E+01 0.  0.
     999903    2    3    3    0    0 -0.48498323786E-01  0.99617116365E-01  0.63417382058E-01  0.12913235733E+00  0.19435639445E-01 0.  0.
         14    1    1    2    0    0  0.19825086442E-01  0.11432078260E-01  0.85773532032E-02  0.24439669673E-01  0.00000000000E+00 0.  1.
     999901    1    3    3    0    0  0.28673237344E-01 -0.11104919463E+00 -0.71994735261E-01  0.89035797299E+00  0.88000000000E+00 0. -1.
        -11    1    4    4    0    0 -0.21623487946E-01  0.51431563188E-01  0.42448359605E-01  0.70106385423E-01  0.51100000000E-03 0.  1.
         11    1    4    4    0    0 -0.26874835840E-01  0.48185553177E-01  0.20969022452E-01  0.59025971911E-01  0.51100000000E-03 0. -1.
</event>
<event>
 8    1  0.1088270E+005  0.1043930E+01  0.7957747E-01            NaN
         13   -1    0    0    0    0  0.00000000000E+00  0.00000000000E+00  0.74505805969E-08  0.10566000000E+00  0.10566000000E+00 0.  1.
     999900   -1    0    0    0    0 -0.00000000000E+00 -0.00000000000E+00 -0.74505805969E-08  0.93827000000E+00  0.93827000000E+00 0. -1.
     999902    2    1    2    0    0 -0.73209798962E-02  0.12042130818E-01 -0.19632457034E-01  0.10197630178E+01  0.10194766154E+01 0.  0.
     999903    2    3    3    0    0  0.10108418805E+00  0.11449511464E-01  0.75164295167E-01  0.12805765394E+00  0.19999676995E-01 0.  0.
         14    1    1    2    0    0  0.73209798962E-02 -0.12042130818E-01  0.19632457034E-01  0.24166982238E-01  0.00000000000E+00 0.  1.
     999901    1    3    3    0    0 -0.10840516794E+00  0.59261935380E-03 -0.94796752201E-01  0.89170536382E+00  0.88000000000E+00 0. -1.
        -11    1    4    4    0    0  0.76329059452E-01  0.16582068973E-01  0.60724478609E-01  0.98938434148E-01  0.51100000000E-03 0. -1.
         11    1    4    4    0    0  0.24755128594E-01 -0.51325575091E-02  0.14439816557E-01  0.29119219796E-01  0.51100000000E-03 0.  1.
</event>
<event>
 8    1  0.1088270E+005  0.1043930E+01  0.7957747E-01            NaN
         13   -1    0    0    0    0  0.00000000000E+00  0.00000000000E+00  0.74505805969E-08  0.10566000000E+00  0.10566000000E+00 0.  1.
     999900   -1    0    0    0    0 -0.00000000000E+00 -0.00000000000E+00 -0.74505805969E-08  0.93827000000E+00  0.93827000000E+00 0.  1.
     999902    2    1    2    0    0  0.54625122541E-02 -0.96363562206E-02  0.20558418986E-01  0.10205773344E+01  0.10203101236E+01 0.  0.
     999903    2    3    3    0    0  0.90489480549E-01  0.11915310439E-01 -0.89509042706E-01  0.12939334337E+00  0.20011193598E-01 0.  0.
         14    1    1    2    0    0 -0.54625122541E-02  0.96363562206E-02 -0.20558418986E-01  0.23352665641E-01  0.00000000000E+00 0. -1.
     999901    1    3    3    0    0 -0.85026968295E-01 -0.21551666660E-01  0.11006746169E+00  0.89118399099E+00  0.88000000000E+00 0.  1.
        -11    1    4    4    0    0  0.22327196767E-01  0.88137292517E-02 -0.32926381795E-01  0.40750377641E-01  0.51100000000E-03 0. -1.
         11    1    4    4    0    0  0.68162283783E-01  0.31015811874E-02 -0.56582660910E-01  0.88642965728E-01  0.51100000000E-03 0.  1.
</event>
<event>
 8    1  0.1088270E+005  0.1043930E+01  0.7957747E-01            NaN
         13   -1    0    0    0    0  0.00000000000E+00  0.00000000000E+00  0.74505805969E-08  0.10566000000E+00  0.10566000000E+00 0.  1.
     999900   -1    0    0    0    0 -0.00000000000E+00 -0.00000000000E+00 -0.74505805969E-08  0.93827000000E+00  0.93827000000E+00 0. -1.
     999902    2    1    2    0    0  0.30081300444E-02  0.23415579446E-01  0.14763586142E-02  0.10202758705E+01  0.10200016344E+01 0.  0.
     999903    2    3    3    0    0  0.12411031583E+00 -0.38222052158E-02 -0.36749934854E-01  0.13074291113E+00  0.18032508162E-01 0.  0.
         14    1    1    2    0    0 -0.30081300444E-02 -0.23415579446E-01 -0.14763586142E-02  0.23654129489E-01  0.00000000000E+00 0. -1.
     999901    1    3    3    0    0 -0.12110218578E+00  0.27237784661E-01  0.38226293468E-01  0.88953295938E+00  0.88000000000E+00 0.  1.
        -11    1    4    4    0    0  0.79632649034E-01 -0.11048596911E-01 -0.24373627729E-01  0.84010506102E-01  0.51100000000E-03 0. -1.
         11    1    4    4    0    0  0.44477666796E-01  0.72263916952E-02 -0.12376307125E-01  0.46732405027E-01  0.51100000000E-03 0.  1.
</event>
<event>
 8    1  0.1088270E+005  0.1043930E+01  0.7957747E-01            NaN
         13   -1    0    0    0    0  0.00000000000E+00  0.00000000000E+00  0.74505805969E-08  0.10566000000E+00  0.10566000000E+00 0.  1.
     999900   -1    0    0    0    0 -0.00000000000E+00 -0.00000000000E+00 -0.74505805969E-08  0.93827000000E+00  0.93827000000E+00 0.  1.
     999902    2    1    2    0    0  0.70025031899E-02 -0.22164070910E-01  0.43499385545E-02  0.10202825254E+01  0.10200084453E+01 0.  0.
     999903    2    3    3    0    0  0.10052081143E+00 -0.49091449008E-01  0.68677452363E-01  0.13258393538E+00  0.18641447384E-01 0.  0.
         14    1    1    2    0    0 -0.70025031899E-02  0.22164070910E-01 -0.43499385545E-02  0.23647474615E-01  0.00000000000E+00 0.  1.
     999901    1    3    3    0    0 -0.93518308242E-01  0.26927378099E-01 -0.64327513808E-01  0.88769859001E+00  0.88000000000E+00 0. -1.
        -11    1    4    4    0    0  0.75506041604E-01 -0.45436897605E-01  0.53233116669E-01  0.10295484357E+00  0.51100000000E-03 0.  1.
         11    1    4    4    0    0  0.25014769828E-01 -0.36545514035E-02  0.15444335694E-01  0.29629091811E-01  0.51100000000E-03 0. -1.
</event>
<event>
 8    1  0.1088270E+005  0.1043930E+01  0.7957747E-01            NaN
         13   -1    0    0    0    0  0.00000000000E+00  0.00000000000E+00  0.74505805969E-08  0.10566000000E+00  0.10566000000E+00 0. -1.
     999900   -1    0    0    0    0 -0.00000000000E+00 -0.00000000000E+00 -0.74505805969E-08  0.93827000000E+00  0.93827000000E+00 0. -1.
     999902    2    1    2    0    0  0.80316850673E-02 -0.16462000414E-01  0.14486366032E-01  0.10205770511E+01  0.10203098338E+01 0.  0.
     999903    2    3    3    0    0  0.60725380513E-01 -0.11502339468E+00 -0.16110748410E-01  0.13298077044E+00  0.22502798298E-01 0.  0.
         14    1    1    2    0    0 -0.80316850673E-02  0.16462000414E-01 -0.14486366032E-01  0.23352948924E-01  0.00000000000E+00 0.  1.
     999901    1    3    3    0    0 -0.52693695446E-01  0.98561394266E-01  0.30597114442E-01  0.88759628063E+00  0.88000000000E+00 0.  1.
        -11    1    4    4    0    0  0.23692637815E-01 -0.67563261834E-01 -0.50913179365E-02  0.71779649453E-01  0.51100000000E-03 0.  1.
         11    1    4    4    0    0  0.37032742699E-01 -0.47460132846E-01 -0.11019430473E-01  0.61201120991E-01  0.51100000000E-03 0. -1.
</event>
<event>
 8    1  0.1088270E+005  0.1043930E+01  0.7957747E-01            NaN
         13   -1    0    0    0    0  0.00000000000E+00  0.00000000000E+00  0.74505805969E-08  0.10566000000E+00  0.10566000000E+00 0. -1.
     999900   -1    0    0    0    0 -0.00000000000E+00 -0.00000000000E+00 -0.74505805969E-08  0.93827000000E+00  0.93827000000E+00 0. -1.
     999902    2    1    2    0    0 -0.16098524429E-01  0.35380150438E-02 -0.14568021578E-01  0.10219321071E+01  0.10216953187E+01 0.  0.
     999903    2    3    3    0    0 -0.11283206712E+00  0.51184077327E-01  0.45656349282E-01  0.13330704535E+00  0.18313409501E-01 0.  0.
         14    1    1    2    0    0  0.16098524429E-01 -0.35380150438E-02  0.14568021578E-01  0.21997892897E-01  0.00000000000E+00 0. -1.
     999901    1    3    3    0    0  0.96733542690E-01 -0.47646062283E-01 -0.60224370860E-01  0.88862506175E+00  0.88000000000E+00 0.  1.
        -11    1    4    4    0    0 -0.15644812267E-01  0.67050337964E-02 -0.13133848984E-03  0.17029268918E-01  0.51100000000E-03 0.  1.
         11    1    4    4    0    0 -0.97187254852E-01  0.44479043531E-01  0.45787687772E-01  0.11627777643E+00  0.51100000000E-03 0. -1.
</event>
<event>
 8    1  0.1088270E+005  0.1043930E+01  0.7957747E-01            NaN
         13   -1    0    0    0    0  0.00000000000E+00  0.00000000000E+00  0.74505805969E-08  0.10566000000E+00  0.10566000000E+00 0. -1.
     999900   -1    0    0    0    0 -0.00000000000E+00 -0.00000000000E+00 -0.74505805969E-08  0.93827000000E+00  0.93827000000E+00 0.  1.
     999902    2    1    2    0    0 -0.37119760827E-02  0.22431572565E-01 -0.24991043748E-02  0.10210564402E+01  0.10208002030E+01 0.  0.
     999903    2    3    3    0    0  0.73894828892E-01 -0.10567359987E-01 -0.10593050513E+00  0.13099475675E+00  0.19137386036E-01 0.  0.
         14    1    1    2    0    0  0.37119760827E-02 -0.22431572565E-01  0.24991043748E-02  0.22873559777E-01  0.00000000000E+00 0.  1.
     999901    1    3    3    0    0 -0.77606804975E-01  0.32998932552E-01  0.10343140076E+00  0.89006168347E+00  0.88000000000E+00 0. -1.
        -11    1    4    4    0    0  0.23332105410E-01 -0.89781403761E-02 -0.47705485261E-01  0.53861568789E-01  0.51100000000E-03 0.  1.
         11    1    4    4    0    0  0.50562723483E-01 -0.15892196107E-02 -0.58225019869E-01  0.77133187959E-01  0.51100000000E-03 0. -1.
</event>
<event>
 8    1  0.1088270E+005  0.1043930E+01  0.7957747E-01            NaN
         13   -1    0    0    0    0  0.00000000000E+00  0.00000000000E+00  0.74505805969E-08  0.10566000000E+00  0.10566000000E+00 0. -1.
     999900   -1    0    0    0    0 -0.00000000000E+00 -0.00000000000E+00 -0.74505805969E-08  0.93827000000E+00  0.93827000000E+00 0. -1.
     999902    2    1    2    0    0  0.17602859012E-01 -0.11359662911E-01  0.11717955514E-01  0.10199255615E+01  0.10196430444E+01 0.  0.
     999903    2    3    3    0    0  0.51150986022E-01 -0.10259857763E+00  0.64365389599E-01  0.13300855934E+00  0.20136583059E-01 0.  0.
         14    1    1    2    0    0 -0.17602859012E-01  0.11359662911E-01 -0.11717955514E-01  0.24004438512E-01  0.00000000000E+00 0.  1.
     999901    1    3    3    0    0 -0.33548127009E-01  0.91238914717E-01 -0.52647434085E-01  0.88691700215E+00  0.88000000000E+00 0. -1.
        -11    1    4    4    0    0  0.23125057093E-01 -0.28844426579E-01  0.26516629951E-01  0.45499032904E-01  0.51100000000E-03 0.  1.
         11    1    4    4    0    0  0.28025928929E-01 -0.73754151048E-01  0.37848759648E-01  0.87509526436E-01  0.51100000000E-03 0. -1.
</event>
<event>
 8    1  0.1088270E+005  0.1043930E+01  0.7957747E-01            NaN
         13   -1    0    0    0    0  0.00000000000E+00  0.00000000000E+00  0.74505805969E-08  0.10566000000E+00  0.10566000000E+00 0.  1.
     999900   -1    0    0    0    0 -0.00000000000E+00 -0.00000000000E+00 -0.74505805969E-08  0.93827000000E+00  0.93827000000E+00 0.  1.
     999902    2    1    2    0    0 -0.13834878701E-01 -0.16630090319E-01 -0.29808304321E-02  0.10220931247E+01  0.10218598272E+01 0.  0.
     999903    2    3    3    0    0 -0.50030043339E-01 -0.30161751047E-01  0.11798988113E+00  0.13297721053E+00  0.18670565282E-01 0.  0.
         14    1    1    2    0    0  0.13834878701E-01  0.16630090319E-01  0.29808304321E-02  0.21836875297E-01  0.00000000000E+00 0. -1.
     999901    1    3    3    0    0  0.36195164638E-01  0.13531660728E-01 -0.12097071156E+00  0.88911591418E+00  0.88000000000E+00 0.  1.
        -11    1    4    4    0    0 -0.43204719002E-01 -0.32468894374E-01  0.10210603748E+00  0.11552826865E+00  0.51100000000E-03 0. -1.
         11    1    4    4    0    0 -0.68253243370E-02  0.23071433270E-02  0.15883843644E-01  0.17448941875E-01  0.51100000000E-03 0.  1.
</event>
<event>
 8    1  0.1088270E+005  0.1043930E+01  0.7957747E-01            NaN
         13   -1    0    0    0    0  0.00000000000E+00  0.00000000000E+00  0.74505805969E-08  0.10566000000E+00  0.10566000000E+00 0.  1.
     999900   -1    0    0    0    0 -0.00000000000E+00 -0.00000000000E+00 -0.74505805969E-08  0.93827000000E+00  0.93827000000E+00 0.  1.
     999902    2    1    2    0    0 -0.90521711470E-02  0.22337979329E-01  0.38791255928E-02  0.10195174062E+01  0.10192250815E+01 0.  0.
     999903    2    3    3    0    0 -0.12236639648E+00  0.45033405451E-01 -0.30622773124E-02  0.13193452039E+00  0.19894660900E-01 0.  0.
         14    1    1    2    0    0  0.90521711470E-02 -0.22337979329E-01 -0.38791255928E-02  0.24412593847E-01  0.00000000000E+00 0. -1.
     999901    1    3    3    0    0  0.11331422534E+00 -0.22695426122E-01  0.69414029052E-02  0.88758288577E+00  0.88000000000E+00 0.  1.
        -11    1    4    4    0    0 -0.95444193531E-01  0.26121522860E-01 -0.91468564129E-03  0.98959718098E-01  0.51100000000E-03 0.  1.
         11    1    4    4    0    0 -0.26922202954E-01  0.18911882590E-01 -0.21475916711E-02  0.32974802289E-01  0.51100000000E-03 0. -1.
</event>
<event>
 8    1  0.1088270E+005  0.1043930E+01  0.7957747E-01            NaN
         13   -1    0    0    0    0  0.00000000000E+00  0.00000000000E+00  0.74505805969E-08  0.10566000000E+00  0.10566000000E+00 0.  1.
     999900   -1    0    0    0    0 -0.00000000000E+00 -0.00000000000E+00 -0.74505805969E-08  0.93827000000E+00  0.93827000000E+00 0.  1.
     999902    2    1    2    0    0  0.87321331928E-02 -0.21184939689E-01 -0.47743312870E-02  0.10205238884E+01  0.10202554390E+01 0.  0.
     999903    2    3    3    0    0 -0.25751030082E-01  0.41111721648E-01 -0.11919742536E+00  0.13026403478E+00  0.20184234863E-01 0.  0.
         14    1    1    2    0    0 -0.87321331928E-02  0.21184939689E-01  0.47743312870E-02  0.23406111573E-01  0.00000000000E+00 0.  1.
     999901    1    3    3    0    0  0.34483163275E-01 -0.62296661338E-01  0.11442309407E+00  0.89025985365E+00  0.88000000000E+00 0. -1.
        -11    1    4    4    0    0 -0.20483700589E-01  0.21160208020E-01 -0.88492948326E-01  0.93266282320E-01  0.51100000000E-03 0.  1.
         11    1    4    4    0    0 -0.52673294936E-02  0.19951513628E-01 -0.30704477033E-01  0.36997752457E-01  0.51100000000E-03 0. -1.
</event>
<event>
 8    1  0.1088270E+005  0.1043930E+01  0.7957747E-01            NaN
         13   -1    0    0    0    0  0.00000000000E+00  0.00000000000E+00  0.74505805969E-08  0.10566000000E+00  0.10566000000E+00 0.  1.
     999900   -1    0    0    0    0 -0.00000000000E+00 -0.00000000000E+00 -0.74505805969E-08  0.93827000000E+00  0.93827000000E+00 0.  1.
     999902    2    1    2    0    0 -0.89726987012E-03 -0.15773093305E-01  0.14968111286E-02  0.10280606582E+01  0.10279381698E+01 0.  0.
     999903    2    3    3    0    0  0.42670024771E-01  0.52835688553E-01 -0.11663190810E+00  0.13645555031E+00  0.20119001559E-01 0.  0.
         14    1    1    2    0    0  0.89726987012E-03  0.15773093305E-01 -0.14968111286E-02  0.15869341800E-01  0.00000000000E+00 0. -1.
     999901    1    3    3    0    0 -0.43567294641E-01 -0.68608781858E-01  0.11812871923E+00  0.89160510789E+00  0.88000000000E+00 0. -1.
        -11    1    4    4    0    0  0.37487594707E-01  0.39546403190E-01 -0.10392675151E+00  0.11734678761E+00  0.51100000000E-03 0.  1.
         11    1    4    4    0    0  0.51824300646E-02  0.13289285364E-01 -0.12705156594E-01  0.19108762700E-01  0.51100000000E-03 0. -1.
</event>
<event>
 8    1  0.1088270E+005  0.1043930E+01  0.7957747E-01            NaN
         13   -1    0    0    0    0  0.00000000000E+00  0.00000000000E+00  0.74505805969E-08  0.10566000000E+00  0.10566000000E+00 0. -1.
     999900   -1    0    0    0    0 -0.00000000000E+00 -0.00000000000E+00 -0.74505805969E-08  0.93827000000E+00  0.93827000000E+00 0.  1.
     999902    2    1    2    0    0  0.20494613511E-01 -0.56265906405E-02  0.10488430799E-01  0.10202298969E+01  0.10199545812E+01 0.  0.
     999903    2    3    3    0    0 -0.42786694814E-01  0.71326682207E-01 -0.95263334195E-01  0.12831635516E+00  0.21720665533E-01 0.  0.
         14    1    1    2    0    0 -0.20494613511E-01  0.56265906405E-02 -0.10488430799E-01  0.23700103076E-01  0.00000000000E+00 0. -1.
     999901    1    3    3    0    0  0.63281308326E-01 -0.76953272848E-01  0.10575176499E+00  0.89191354177E+00  0.88000000000E+00 0. -1.
        -11    1    4    4    0    0  0.24520329205E-02  0.44417607305E-02 -0.41848516713E-02  0.65966512975E-02  0.51100000000E-03 0.  1.
         11    1    4    4    0    0 -0.45238727735E-01  0.66884921477E-01 -0.91078482524E-01  0.12171970386E+00  0.51100000000E-03 0. -1.
</event>
<event>
 8    1  0.1088270E+005  0.1043930E+01  0.7957747E-01            NaN
         13   -1    0    0    0    0  0.00000000000E+00  0.00000000000E+00  0.74505805969E-08  0.10566000000E+00  0.10566000000E+00 0.  1.
     999900   -1    0    0    0    0 -0.00000000000E+00 -0.00000000000E+00 -0.74505805969E-08  0.93827000000E+00  0.93827000000E+00 0.  1.
     999902    2    1    2    0    0 -0.16002856123E-01  0.13051473226E-01  0.13129277873E-01  0.10194593994E+01  0.10191656669E+01 0.  0.
     999903    2    3    3    0    0  0.56905269078E-01  0.11337570982E+00 -0.21106695261E-01  0.13010421216E+00  0.19732009800E-01 0.  0.
         14    1    1    2    0    0  0.16002856123E-01 -0.13051473226E-01 -0.13129277873E-01  0.24470600625E-01  0.00000000000E+00 0. -1.
     999901    1    3    3    0    0 -0.72908125201E-01 -0.10032423660E+00  0.34235973133E-01  0.88935518721E+00  0.88000000000E+00 0. -1.
        -11    1    4    4    0    0  0.33704625625E-01  0.58629824030E-01 -0.20372944227E-02  0.67659956724E-01  0.51100000000E-03 0. -1.
         11    1    4    4    0    0  0.23200643452E-01  0.54745885792E-01 -0.19069400838E-01  0.62444255437E-01  0.51100000000E-03 0.  1.
</event>
<event>
 8    1  0.1211230E+005  0.1043930E+01  0.7957747E-01            NaN
         13   -1    0    0    0    0  0.00000000000E+00  0.00000000000E+00  0.74505805969E-08  0.10566000000E+00  0.10566000000E+00 0.  1.
     999900   -1    0    0    0    0 -0.00000000000E+00 -0.00000000000E+00 -0.74505805969E-08  0.93827000000E+00  0.93827000000E+00 0.  1.
     999902    2    1    2    0    0 -0.20616838531E-01 -0.29883407555E-01  0.85309322430E-02  0.10066359136E+01  0.10059448363E+01 0.  0.
     999903    2    3    3    0    0  0.68446970556E-02 -0.65109631859E-01 -0.98000842288E-01  0.11908645477E+00  0.17067647250E-01 0.  0.
         14    1    1    2    0    0  0.20616838531E-01  0.29883407555E-01 -0.85309322430E-02  0.37294086435E-01  0.00000000000E+00 0. -1.
     999901    1    3    3    0    0 -0.27461535586E-01  0.35226224304E-01  0.10653177453E+00  0.88754945879E+00  0.88000000000E+00 0. -1.
        -11    1    4    4    0    0  0.11551148190E-01 -0.45568056871E-01 -0.61457762192E-01  0.77376963537E-01  0.51100000000E-03 0.  1.
         11    1    4    4    0    0 -0.47064511347E-02 -0.19541574988E-01 -0.36543080096E-01  0.41709491237E-01  0.51100000000E-03 0. -1.
</event>
<event>
 8    1  0.1088270E+005  0.1043930E+01  0.7957747E-01            NaN
         13   -1    0    0    0    0  0.00000000000E+00  0.00000000000E+00  0.74505805969E-08  0.10566000000E+00  0.10566000000E+00 0. -1.
     999900   -1    0    0    0    0 -0.00000000000E+00 -0.00000000000E+00 -0.74505805969E-08  0.93827000000E+00  0.93827000000E+00 0.  1.
     999902    2    1    2    0    0 -0.37645096306E-02  0.29742578268E-02  0.21993731426E-01  0.10214190701E+01  0.10211709822E+01 0.  0.
     999903    2    3    3    0    0 -0.11739499849E+00  0.12181601828E-01  0.58696900828E-01  0.13330658522E+00  0.19883219094E-01 0.  0.
         14    1    1    2    0    0  0.37645096306E-02 -0.29742578268E-02 -0.21993731426E-01  0.22510929888E-01  0.00000000000E+00 0.  1.
     999901    1    3    3    0    0  0.11363048886E+00 -0.92073440008E-02 -0.36703169402E-01  0.88811248490E+00  0.88000000000E+00 0. -1.
        -11    1    4    4    0    0 -0.74412468342E-01  0.10380127879E-01  0.26886374033E-01  0.79800380507E-01  0.51100000000E-03 0.  1.
         11    1    4    4    0    0 -0.42982530150E-01  0.18014739488E-02  0.31810526795E-01  0.53506204710E-01  0.51100000000E-03 0. -1.
</event>
<event>
 8    1  0.1088270E+005  0.1043930E+01  0.7957747E-01            NaN
         13   -1    0    0    0    0  0.00000000000E+00  0.00000000000E+00  0.74505805969E-08  0.10566000000E+00  0.10566000000E+00 0.  1.
     999900   -1    0    0    0    0 -0.00000000000E+00 -0.00000000000E+00 -0.74505805969E-08  0.93827000000E+00  0.93827000000E+00 0. -1.
     999902    2    1    2    0    0  0.68508636239E-02 -0.15425606707E-01  0.16124253385E-01  0.10205874375E+01  0.10203204607E+01 0.  0.
     999903    2    3    3    0    0 -0.72145509984E-02 -0.93054889894E-01 -0.89724077278E-01  0.13074025370E+00  0.18202791404E-01 0.  0.
         14    1    1    2    0    0 -0.68508636239E-02  0.15425606707E-01 -0.16124253385E-01  0.23342562453E-01  0.00000000000E+00 0. -1.
     999901    1    3    3    0    0  0.14065414622E-01  0.77629283187E-01  0.10584833066E+00  0.88984718385E+00  0.88000000000E+00 0. -1.
        -11    1    4    4    0    0 -0.69916635982E-02 -0.21943327978E-01 -0.30327968195E-01  0.38084639666E-01  0.51100000000E-03 0. -1.
         11    1    4    4    0    0 -0.22288740028E-03 -0.71111561915E-01 -0.59396109082E-01  0.92655614033E-01  0.51100000000E-03 0.  1.
</event>
<event>
 8    1  0.1088270E+005  0.1043930E+01  0.7957747E-01            NaN
         13   -1    0    0    0    0  0.00000000000E+00  0.00000000000E+00  0.74505805969E-08  0.10566000000E+00  0.10566000000E+00 0. -1.
     999900   -1    0    0    0    0 -0.00000000000E+00 -0.00000000000E+00 -0.74505805969E-08  0.93827000000E+00  0.93827000000E+00 0.  1.
     999902    2    1    2    0    0 -0.79124622313E-02  0.21161208646E-01  0.94421478160E-02  0.10194441272E+01  0.10191500236E+01 0.  0.
     999903    2    3    3    0    0  0.53187443575E-01  0.18946111998E-01  0.11657812393E+00  0.13084060342E+00  0.18464701805E-01 0.  0.
         14    1    1    2    0    0  0.79124622313E-02 -0.21161208646E-01 -0.94421478160E-02  0.24485872769E-01  0.00000000000E+00 0.  1.
     999901    1    3    3    0    0 -0.61099905807E-01  0.22150966479E-02 -0.10713597611E+00  0.88860352381E+00  0.88000000000E+00 0.  1.
        -11    1    4    4    0    0  0.89986719349E-02 -0.35974290521E-02  0.16532631172E-01  0.19170461832E-01  0.51100000000E-03 0. -1.
         11    1    4    4    0    0  0.44188771640E-01  0.22543541050E-01  0.10004549275E+00  0.11167014159E+00  0.51100000000E-03 0.  1.
</event>
<event>
 8    1  0.1088270E+005  0.1043930E+01  0.7957747E-01            NaN
         13   -1    0    0    0    0  0.00000000000E+00  0.00000000000E+00  0.74505805969E-08  0.10566000000E+00  0.10566000000E+00 0.  1.
     999900   -1    0    0    0    0 -0.00000000000E+00 -0.00000000000E+00 -0.74505805969E-08  0.93827000000E+00  0.93827000000E+00 0.  1.
     999902    2    1    2    0    0 -0.17541038138E-01 -0.15391874844E-01  0.90256824773E-02  0.10189087935E+01  0.10186015260E+01 0.  0.
     999903    2    3    3    0    0  0.35285082711E-02  0.34920065022E-01  0.12336706514E+00  0.12983671045E+00  0.20156321810E-01 0.  0.
         14    1    1    2    0    0  0.17541038138E-01  0.15391874844E-01 -0.90256824773E-02  0.25021206493E-01  0.00000000000E+00 0. -1.
     999901    1    3    3    0    0 -0.21069546410E-01 -0.50311939866E-01 -0.11434138266E+00  0.88907208305E+00  0.88000000000E+00 0.  1.
        -11    1    4    4    0    0 -0.49890660327E-02  0.11047339364E-01  0.66168728503E-01  0.67271808654E-01  0.51100000000E-03 0.  1.
         11    1    4    4    0    0  0.85175743038E-02  0.23872725658E-01  0.57198336633E-01  0.62564901798E-01  0.51100000000E-03 0. -1.
</event>
<event>
 8    1  0.1088270E+005  0.1043930E+01  0.7957747E-01            NaN
         13   -1    0    0    0    0  0.00000000000E+00  0.00000000000E+00  0.74505805969E-08  0.10566000000E+00  0.10566000000E+00 0. -1.
     999900   -1    0    0    0    0 -0.00000000000E+00 -0.00000000000E+00 -0.74505805969E-08  0.93827000000E+00  0.93827000000E+00 0.  1.
     999902    2    1    2    0    0  0.12423733884E-01 -0.67592353015E-02 -0.17813563617E-01  0.10211844625E+01  0.10209311177E+01 0.  0.
     999903    2    3    3    0    0 -0.83883974891E-01  0.27164296318E-01 -0.95639131422E-01  0.13186854580E+00  0.21634455727E-01 0.  0.
         14    1    1    2    0    0 -0.12423733884E-01  0.67592353015E-02  0.17813563617E-01  0.22745537457E-01  0.00000000000E+00 0. -1.
     999901    1    3    3    0    0  0.96307708775E-01 -0.33923531620E-01  0.77825567805E-01  0.88931591674E+00  0.88000000000E+00 0. -1.
        -11    1    4    4    0    0 -0.36768036080E-01  0.36423045292E-02 -0.50055396148E-01  0.62217028730E-01  0.51100000000E-03 0. -1.
         11    1    4    4    0    0 -0.47115938811E-01  0.23521991789E-01 -0.45583735274E-01  0.69651517071E-01  0.51100000000E-03 0.  1.
</event>
<event>
 8    1  0.1088270E+005  0.1043930E+01  0.7957747E-01            NaN
         13   -1    0    0    0    0  0.00000000000E+00  0.00000000000E+00  0.74505805969E-08  0.10566000000E+00  0.10566000000E+00 0. -1.
     999900   -1    0    0    0    0 -0.00000000000E+00 -0.00000000000E+00 -0.74505805969E-08  0.93827000000E+00  0.93827000000E+00 0. -1.
     999902    2    1    2    0    0 -0.17241922545E-01 -0.63851387728E-02  0.19522241990E-01  0.10171126209E+01  0.10167590234E+01 0.  0.
     999903    2    3    3    0    0 -0.14450179954E-01 -0.59742206427E-01 -0.10849266343E+00  0.12624642077E+00  0.19737320245E-01 0.  0.
         14    1    1    2    0    0  0.17241922545E-01  0.63851387728E-02 -0.19522241990E-01  0.26817379114E-01  0.00000000000E+00 0.  1.
     999901    1    3    3    0    0 -0.27917425910E-02  0.53357067655E-01  0.12801490542E+00  0.89086620011E+00  0.88000000000E+00 0.  1.
        -11    1    4    4    0    0  0.27549690137E-03 -0.22045037489E-01 -0.24204522325E-01  0.32744153652E-01  0.51100000000E-03 0. -1.
         11    1    4    4    0    0 -0.14725676856E-01 -0.37697168938E-01 -0.84288141104E-01  0.93502267120E-01  0.51100000000E-03 0.  1.
</event>
<event>
 8    1  0.1088270E+005  0.1043930E+01  0.7957747E-01            NaN
         13   -1    0    0    0    0  0.00000000000E+00  0.00000000000E+00  0.74505805969E-08  0.10566000000E+00  0.10566000000E+00 0.  1.
     999900   -1    0    0    0    0 -0.00000000000E+00 -0.00000000000E+00 -0.74505805969E-08  0.93827000000E+00  0.93827000000E+00 0. -1.
     999902    2    1    2    0    0  0.21926850346E-01  0.13276695969E-01 -0.14099141276E-02  0.10182581228E+01  0.10179344573E+01 0.  0.
     999903    2    3    3    0    0 -0.60082049942E-01  0.10286682547E+00 -0.44904424839E-01  0.12885179073E+00  0.19873099869E-01 0.  0.
         14    1    1    2    0    0 -0.21926850346E-01 -0.13276695969E-01  0.14099141276E-02  0.25671877216E-01  0.00000000000E+00 0. -1.
     999901    1    3    3    0    0  0.82008900288E-01 -0.89590129497E-01  0.43494510711E-01  0.88940633205E+00  0.88000000000E+00 0.  1.
        -11    1    4    4    0    0 -0.40737551712E-01  0.72823733211E-01 -0.40785379979E-01  0.92879236535E-01  0.51100000000E-03 0. -1.
         11    1    4    4    0    0 -0.19344498230E-01  0.30043092255E-01 -0.41190448600E-02  0.35972554198E-01  0.51100000000E-03 0.  1.
</event>
<event>
 8    1  0.1088270E+005  0.1043930E+01  0.7957747E-01            NaN
         13   -1    0    0    0    0  0.00000000000E+00  0.00000000000E+00  0.74505805969E-08  0.10566000000E+00  0.10566000000E+00 0. -1.
     999900   -1    0    0    0    0 -0.00000000000E+00 -0.00000000000E+00 -0.74505805969E-08  0.93827000000E+00  0.93827000000E+00 0. -1.
     999902    2    1    2    0    0 -0.64356240794E-02  0.22676787997E-01  0.19070657817E-02  0.10202806687E+01  0.10200065451E+01 0.  0.
     999903    2    3    3    0    0  0.23789772085E-01 -0.15161793114E-01  0.12563245562E+00  0.13030690229E+00  0.20013536755E-01 0.  0.
         14    1    1    2    0    0  0.64356240794E-02 -0.22676787997E-01 -0.19070657817E-02  0.23649331302E-01  0.00000000000E+00 0. -1.
     999901    1    3    3    0    0 -0.30225396164E-01  0.37838581111E-01 -0.12372538984E+00  0.88997376640E+00  0.88000000000E+00 0. -1.
        -11    1    4    4    0    0  0.22893723608E-01 -0.13927299711E-01  0.74935631897E-01  0.79584560731E-01  0.51100000000E-03 0.  1.
         11    1    4    4    0    0  0.89604847720E-03 -0.12344934029E-02  0.50696823726E-01  0.50722341564E-01  0.51100000000E-03 0. -1.
</event>
<event>
 8    1  0.1088270E+005  0.1043930E+01  0.7957747E-01            NaN
         13   -1    0    0    0    0  0.00000000000E+00  0.00000000000E+00  0.74505805969E-08  0.10566000000E+00  0.10566000000E+00 0. -1.
     999900   -1    0    0    0    0 -0.00000000000E+00 -0.00000000000E+00 -0.74505805969E-08  0.93827000000E+00  0.93827000000E+00 0. -1.
     999902    2    1    2    0    0 -0.50950046118E-02 -0.22625521846E-01 -0.32846101190E-02  0.10205064654E+01  0.10202376115E+01 0.  0.
     999903    2    3    3    0    0  0.10178944106E+00 -0.42774322223E-01  0.67626332001E-01  0.13097927602E+00  0.19786788910E-01 0.  0.
         14    1    1    2    0    0  0.50950046118E-02  0.22625521846E-01  0.32846101190E-02  0.23423534627E-01  0.00000000000E+00 0.  1.
     999901    1    3    3    0    0 -0.10688444567E+00  0.20148800377E-01 -0.70910942120E-01  0.88952718935E+00  0.88000000000E+00 0. -1.
        -11    1    4    4    0    0  0.43388115525E-01 -0.27682565926E-01  0.36516866573E-01  0.63107810058E-01  0.51100000000E-03 0. -1.
         11    1    4    4    0    0  0.58401325531E-01 -0.15091756297E-01  0.31109465428E-01  0.67871465964E-01  0.51100000000E-03 0.  1.
</event>
<event>
 8    1  0.1088270E+005  0.1043930E+01  0.7957747E-01            NaN
         13   -1    0    0    0    0  0.00000000000E+00  0.00000000000E+00  0.74505805969E-08  0.10566000000E+00  0.10566000000E+00 0. -1.
     999900   -1    0    0    0    0 -0.00000000000E+00 -0.00000000000E+00 -0.74505805969E-08  0.93827000000E+00  0.93827000000E+00 0. -1.
     999902    2    1    2    0    0  0.17551794934E-01 -0.61258376836E-02  0.68828107948E-02  0.10241066684E+01  0.10239147932E+01 0.  0.
     999903    2    3    3    0    0  0.10707511310E-01  0.47386568787E-01 -0.12221653845E+00  0.13305276212E+00  0.20149876816E-01 0.  0.
         14    1    1    2    0    0 -0.17551794934E-01  0.61258376836E-02 -0.68828107948E-02  0.19823331636E-01  0.00000000000E+00 0.  1.
     999901    1    3    3    0    0  0.68442836235E-02 -0.53512406470E-01  0.12909934925E+00  0.89105390625E+00  0.88000000000E+00 0.  1.
        -11    1    4    4    0    0  0.11206054780E-01  0.99688523416E-02 -0.30414406533E-01  0.33915349424E-01  0.51100000000E-03 0. -1.
         11    1    4    4    0    0 -0.49854346995E-03  0.37417716445E-01 -0.91802131918E-01  0.99137412692E-01  0.51100000000E-03 0.  1.
</event>
<event>
 8    1  0.1088270E+005  0.1043930E+01  0.7957747E-01            NaN
         13   -1    0    0    0    0  0.00000000000E+00  0.00000000000E+00  0.74505805969E-08  0.10566000000E+00  0.10566000000E+00 0. -1.
     999900   -1    0    0    0    0 -0.00000000000E+00 -0.00000000000E+00 -0.74505805969E-08  0.93827000000E+00  0.93827000000E+00 0.  1.
     999902    2    1    2    0    0 -0.23092053992E-01  0.65437914919E-03 -0.71778311914E-02  0.10197392491E+01  0.10194522763E+01 0.  0.
     999903    2    3    3    0    0  0.11799874895E+00  0.35058111289E-01  0.25798946524E-01  0.12722723273E+00  0.19193936155E-01 0.  0.
         14    1    1    2    0    0  0.23092053992E-01 -0.65437914919E-03  0.71778311914E-02  0.24190750924E-01  0.00000000000E+00 0. -1.
     999901    1    3    3    0    0 -0.14109080294E+00 -0.34403732140E-01 -0.32976777716E-01  0.89251201635E+00  0.88000000000E+00 0. -1.
        -11    1    4    4    0    0  0.61966059959E-01  0.23145065728E-01  0.22399815057E-01  0.69839097144E-01  0.51100000000E-03 0. -1.
         11    1    4    4    0    0  0.56032688989E-01  0.11913045561E-01  0.33991314679E-02  0.57388135583E-01  0.51100000000E-03 0.  1.
</event>
<event>
 8    1  0.1088270E+005  0.1043930E+01  0.7957747E-01            NaN
         13   -1    0    0    0    0  0.00000000000E+00  0.00000000000E+00  0.74505805969E-08  0.10566000000E+00  0.10566000000E+00 0. -1.
     999900   -1    0    0    0    0 -0.00000000000E+00 -0.00000000000E+00 -0.74505805969E-08  0.93827000000E+00  0.93827000000E+00 0. -1.
     999902    2    1    2    0    0  0.58918884539E-02 -0.50333486158E-02 -0.19970083140E-01  0.10225091417E+01  0.10222847410E+01 0.  0.
     999903    2    3    3    0    0  0.10072468057E+00  0.33934855192E-02  0.78650755277E-01  0.13189680197E+00  0.32463025802E-01 0.  0.
         14    1    1    2    0    0 -0.58918884539E-02  0.50333486158E-02  0.19970083140E-01  0.21420858257E-01  0.00000000000E+00 0. -1.
     999901    1    3    3    0    0 -0.94832792112E-01 -0.84268341350E-02 -0.98620838417E-01  0.89061233978E+00  0.88000000000E+00 0. -1.
        -11    1    4    4    0    0  0.57214801174E-01  0.14578161230E-01  0.32119778095E-01  0.67216051090E-01  0.51100000000E-03 0.  1.
         11    1    4    4    0    0  0.43509879392E-01 -0.11184675711E-01  0.46530977182E-01  0.64680750876E-01  0.51100000000E-03 0. -1.
</event>
<event>
 8    1  0.1088270E+005  0.1043930E+01  0.7957747E-01            NaN
         13   -1    0    0    0    0  0.00000000000E+00  0.00000000000E+00  0.74505805969E-08  0.10566000000E+00  0.10566000000E+00 0. -1.
     999900   -1    0    0    0    0 -0.00000000000E+00 -0.00000000000E+00 -0.74505805969E-08  0.93827000000E+00  0.93827000000E+00 0. -1.
     999902    2    1    2    0    0  0.40826218418E-02 -0.20223499962E-01  0.12475607172E-01  0.10198198667E+01  0.10195348263E+01 0.  0.
     999903    2    3    3    0    0 -0.79820774348E-01  0.80833824745E-01 -0.54393212310E-01  0.12756216753E+00  0.20199549474E-01 0.  0.
         14    1    1    2    0    0 -0.40826218418E-02  0.20223499962E-01 -0.12475607172E-01  0.24110133267E-01  0.00000000000E+00 0.  1.
     999901    1    3    3    0    0  0.83903396189E-01 -0.10105732471E+00  0.66868819483E-01  0.89225769920E+00  0.88000000000E+00 0.  1.
        -11    1    4    4    0    0 -0.91229882159E-02  0.17950260688E-02 -0.51536838298E-02  0.10642960612E-01  0.51100000000E-03 0. -1.
         11    1    4    4    0    0 -0.70697786132E-01  0.79038798676E-01 -0.49239528480E-01  0.11691920692E+00  0.51100000000E-03 0.  1.
</event>
<event>
 8    1  0.1088270E+005  0.1043930E+01  0.7957747E-01            NaN
         13   -1    0    0    0    0  0.00000000000E+00  0.00000000000E+00  0.74505805969E-08  0.10566000000E+00  0.10566000000E+00 0. -1.
     999900   -1    0    0    0    0 -0.00000000000E+00 -0.00000000000E+00 -0.74505805969E-08  0.93827000000E+00  0.93827000000E+00 0. -1.
     999902    2    1    2    0    0 -0.23872179628E-01 -0.33922179192E-02 -0.52680103814E-02  0.10192492375E+01  0.10189503757E+01 0.  0.
     999903    2    3    3    0    0 -0.91408416132E-01  0.67572121138E-01 -0.64465072796E-01  0.13183649655E+00  0.17424870650E-01 0.  0.
         14    1    1    2    0    0  0.23872179628E-01  0.33922179192E-02  0.52680103814E-02  0.24680762468E-01  0.00000000000E+00 0. -1.
     999901    1    3    3    0    0  0.67536236503E-01 -0.70964339057E-01  0.59197062415E-01  0.88741274098E+00  0.88000000000E+00 0.  1.
        -11    1    4    4    0    0 -0.87861313385E-02  0.51547299965E-02 -0.68990760691E-03  0.10222741254E-01  0.51100000000E-03 0. -1.
         11    1    4    4    0    0 -0.82622284793E-01  0.62417391141E-01 -0.63775165189E-01  0.12161375530E+00  0.51100000000E-03 0.  1.
</event>
<event>
 8    1  0.1088270E+005  0.1043930E+01  0.7957747E-01            NaN
         13   -1    0    0    0    0  0.00000000000E+00  0.00000000000E+00  0.74505805969E-08  0.10566000000E+00  0.10566000000E+00 0.  1.
     999900   -1    0    0    0    0 -0.00000000000E+00 -0.00000000000E+00 -0.74505805969E-08  0.93827000000E+00  0.93827000000E+00 0.  1.
     999902    2    1    2    0    0 -0.10541845465E-01 -0.31209495328E-02  0.20339033457E-01  0.10208097251E+01  0.10205478664E+01 0.  0.
     999903    2    3    3    0    0  0.12129110743E+00  0.89627729259E-02 -0.37856108756E-01  0.12900670958E+00  0.20439718841E-01 0.  0.
         14    1    1    2    0    0  0.10541845465E-01  0.31209495328E-02 -0.20339033457E-01  0.23120274950E-01  0.00000000000E+00 0. -1.
     999901    1    3    3    0    0 -0.13183295290E+00 -0.12083722459E-01  0.58195142212E-01  0.89180301547E+00  0.88000000000E+00 0.  1.
        -11    1    4    4    0    0  0.92037151842E-02 -0.47675468653E-02 -0.24969823342E-02  0.10673983234E-01  0.51100000000E-03 0.  1.
         11    1    4    4    0    0  0.11208739225E+00  0.13730319791E-01 -0.35359126422E-01  0.11833272635E+00  0.51100000000E-03 0. -1.
</event>
<event>
 8    1  0.1088270E+005  0.1043930E+01  0.7957747E-01            NaN
         13   -1    0    0    0    0  0.00000000000E+00  0.00000000000E+00  0.74505805969E-08  0.10566000000E+00  0.10566000000E+00 0. -1.
     999900   -1    0    0    0    0 -0.00000000000E+00 -0.00000000000E+00 -0.74505805969E-08  0.93827000000E+00  0.93827000000E+00 0. -1.
     999902    2    1    2    0    0  0.23319109253E-01  0.26788952541E-03 -0.77209435636E-02  0.10193644634E+01  0.10190684195E+01 0.  0.
     999903    2    3    3    0    0 -0.27850920123E-01 -0.77105941431E-01 -0.98689201358E-01  0.12982508505E+00  0.19849289381E-01 0.  0.
         14    1    1    2    0    0 -0.23319109253E-01 -0.26788952541E-03  0.77209435636E-02  0.24565536645E-01  0.00000000000E+00 0. -1.
     999901    1    3    3    0    0  0.51170029375E-01  0.77373830956E-01  0.90968257794E-01  0.88953937830E+00  0.88000000000E+00 0.  1.
        -11    1    4    4    0    0 -0.19612661028E-01 -0.49420470095E-01 -0.77546157596E-01  0.94025033986E-01  0.51100000000E-03 0. -1.
         11    1    4    4    0    0 -0.82382590945E-02 -0.27685471335E-01 -0.21143043761E-01  0.35800051068E-01  0.51100000000E-03 0.  1.
</event>
<event>
 8    1  0.1088270E+005  0.1043930E+01  0.7957747E-01            NaN
         13   -1    0    0    0    0  0.00000000000E+00  0.00000000000E+00  0.74505805969E-08  0.10566000000E+00  0.10566000000E+00 0.  1.
     999900   -1    0    0    0    0 -0.00000000000E+00 -0.00000000000E+00 -0.74505805969E-08  0.93827000000E+00  0.93827000000E+00 0.  1.
     999902    2    1    2    0    0 -0.15792796060E-01  0.10308791644E-01 -0.14924628734E-01  0.10198794670E+01  0.10195958509E+01 0.  0.
     999903    2    3    3    0    0  0.48745965312E-01  0.11405165427E-01 -0.11927804390E+00  0.13136605183E+00  0.22881015845E-01 0.  0.
         14    1    1    2    0    0  0.15792796060E-01 -0.10308791644E-01  0.14924628734E-01  0.24050532955E-01  0.00000000000E+00 0.  1.
     999901    1    3    3    0    0 -0.64538761372E-01 -0.10963737830E-02  0.10435341516E+00  0.88851341521E+00  0.88000000000E+00 0. -1.
        -11    1    4    4    0    0  0.27770595814E-01  0.92597714169E-03 -0.87921069196E-01  0.92208670716E-01  0.51100000000E-03 0.  1.
         11    1    4    4    0    0  0.20975369498E-01  0.10479188286E-01 -0.31356974700E-01  0.39157381118E-01  0.51100000000E-03 0. -1.
</event>
<event>
 8    1  0.1088270E+005  0.1043930E+01  0.7957747E-01            NaN
         13   -1    0    0    0    0  0.00000000000E+00  0.00000000000E+00  0.74505805969E-08  0.10566000000E+00  0.10566000000E+00 0. -1.
     999900   -1    0    0    0    0 -0.00000000000E+00 -0.00000000000E+00 -0.74505805969E-08  0.93827000000E+00  0.93827000000E+00 0.  1.
     999902    2    1    2    0    0 -0.50593447037E-02 -0.17097328130E-01 -0.15836991930E-01  0.10200820250E+01  0.10198032221E+01 0.  0.
     999903    2    3    3    0    0 -0.12141951550E+00  0.68593845763E-02  0.42099199939E-01  0.13021112664E+00  0.19820316929E-01 0.  0.
         14    1    1    2    0    0  0.50593447037E-02  0.17097328130E-01  0.15836991930E-01  0.23847974996E-01  0.00000000000E+00 0.  1.
     999901    1    3    3    0    0  0.11636017080E+00 -0.23956712706E-01 -0.57936191869E-01  0.88987089837E+00  0.88000000000E+00 0.  1.
        -11    1    4    4    0    0 -0.11587409371E+00  0.85315672554E-02  0.35666361659E-01  0.12153988526E+00  0.51100000000E-03 0.  1.
         11    1    4    4    0    0 -0.55454217921E-02 -0.16721826792E-02  0.64328382801E-02  0.86712413819E-02  0.51100000000E-03 0. -1.
</event>
<event>
 8    1  0.1088270E+005  0.1043930E+01  0.7957747E-01            NaN
         13   -1    0    0    0    0  0.00000000000E+00  0.00000000000E+00  0.74505805969E-08  0.10566000000E+00  0.10566000000E+00 0. -1.
     999900   -1    0    0    0    0 -0.00000000000E+00 -0.00000000000E+00 -0.74505805969E-08  0.93827000000E+00  0.93827000000E+00 0. -1.
     999902    2    1    2    0    0 -0.14158076141E-02  0.72619640166E-03 -0.23339721073E-01  0.10205361022E+01  0.10202679361E+01 0.  0.
     999903    2    3    3    0    0 -0.88378658350E-01 -0.90940069928E-01 -0.28501731301E-01  0.13149623354E+00  0.19950618501E-01 0.  0.
         14    1    1    2    0    0  0.14158076141E-02 -0.72619640166E-03  0.23339721073E-01  0.23393897755E-01  0.00000000000E+00 0. -1.
     999901    1    3    3    0    0  0.86962850736E-01  0.91666266330E-01  0.51620102276E-02  0.88903986870E+00  0.88000000000E+00 0.  1.
        -11    1    4    4    0    0 -0.43262217986E-01 -0.38031607959E-01 -0.21983574661E-01  0.61656803233E-01  0.51100000000E-03 0.  1.
         11    1    4    4    0    0 -0.45116440364E-01 -0.52908461969E-01 -0.65181566394E-02  0.69839430310E-01  0.51100000000E-03 0. -1.
</event>
<event>
 8    1  0.1088270E+005  0.1043930E+01  0.7957747E-01            NaN
         13   -1    0    0    0    0  0.00000000000E+00  0.00000000000E+00  0.74505805969E-08  0.10566000000E+00  0.10566000000E+00 0. -1.
     999900   -1    0    0    0    0 -0.00000000000E+00 -0.00000000000E+00 -0.74505805969E-08  0.93827000000E+00  0.93827000000E+00 0. -1.
     999902    2    1    2    0    0  0.56491027886E-02 -0.13821808956E-01 -0.18608120295E-01  0.10200717330E+01  0.10197926865E+01 0.  0.
     999903    2    3    3    0    0 -0.12201255113E+00 -0.32675641820E-01 -0.18233355743E-01  0.13066007049E+00  0.28014970214E-01 0.  0.
         14    1    1    2    0    0 -0.56491027886E-02  0.13821808956E-01  0.18608120295E-01  0.23858267037E-01  0.00000000000E+00 0.  1.
     999901    1    3    3    0    0  0.12766165392E+00  0.18853832864E-01 -0.37476455108E-03  0.88941166247E+00  0.88000000000E+00 0. -1.
        -11    1    4    4    0    0 -0.32075806441E-01  0.25861573669E-02  0.82429238172E-03  0.32194504930E-01  0.51100000000E-03 0.  1.
         11    1    4    4    0    0 -0.89936744693E-01 -0.35261799187E-01 -0.19057648125E-01  0.98465565559E-01  0.51100000000E-03 0. -1.
</event>
<event>
 8    1  0.1088270E+005  0.1043930E+01  0.7957747E-01            NaN
         13   -1    0    0    0    0  0.00000000000E+00  0.00000000000E+00  0.74505805969E-08  0.10566000000E+00  0.10566000000E+00 0. -1.
     999900   -1    0    0    0    0 -0.00000000000E+00 -0.00000000000E+00 -0.74505805969E-08  0.93827000000E+00  0.93827000000E+00 0. -1.
     999902    2    1    2    0    0  0.12682523572E-01 -0.12607035227E-01 -0.16258501630E-01  0.10197613712E+01  0.10194749294E+01 0.  0.
     999903    2    3    3    0    0 -0.11977426102E+00 -0.44097062400E-01 -0.48625876876E-03  0.12915192527E+00  0.19737244920E-01 0.  0.
         14    1    1    2    0    0 -0.12682523572E-01  0.12607035227E-01  0.16258501630E-01  0.24168628770E-01  0.00000000000E+00 0. -1.
     999901    1    3    3    0    0  0.13245678459E+00  0.31490027174E-01 -0.15772242861E-01  0.89060944596E+00  0.88000000000E+00 0. -1.
        -11    1    4    4    0    0 -0.19512536983E-01 -0.13469768608E-01 -0.49239374533E-02  0.24221479041E-01  0.51100000000E-03 0. -1.
         11    1    4    4    0    0 -0.10026172404E+00 -0.30627293792E-01  0.44376786846E-02  0.10493044623E+00  0.51100000000E-03 0.  1.
</event>
<event>
 8    1  0.1088270E+005  0.1043930E+01  0.7957747E-01            NaN
         13   -1    0    0    0    0  0.00000000000E+00  0.00000000000E+00  0.74505805969E-08  0.10566000000E+00  0.10566000000E+00 0. -1.
     999900   -1    0    0    0    0 -0.00000000000E+00 -0.00000000000E+00 -0.74505805969E-08  0.93827000000E+00  0.93827000000E+00 0. -1.
     999902    2    1    2    0    0  0.16356738981E-01  0.12165920800E-01 -0.12240949092E-01  0.10201519981E+01  0.10198748481E+01 0.  0.
     999903    2    3    3    0    0  0.90681565864E-01 -0.60080023459E-01 -0.72163421514E-01  0.13204482043E+00  0.19887674355E-01 0.  0.
         14    1    1    2    0    0 -0.16356738981E-01 -0.12165920800E-01  0.12240949092E-01  0.23778001886E-01  0.00000000000E+00 0. -1.
     999901    1    3    3    0    0 -0.74324826883E-01  0.72245944260E-01  0.59922472422E-01  0.88810717768E+00  0.88000000000E+00 0.  1.
        -11    1    4    4    0    0  0.65898940003E-01 -0.49228211087E-01 -0.62513345640E-01  0.10331634219E+00  0.51100000000E-03 0. -1.
         11    1    4    4    0    0  0.24782625861E-01 -0.10851812373E-01 -0.96500758739E-02  0.28728478235E-01  0.51100000000E-03 0.  1.
</event>
<event>
 7    1  0.1592917E+005  0.1043930E+01  0.7957747E-01            NaN
         13   -1    0    0    0    0  0.00000000000E+00  0.00000000000E+00  0.74505805969E-08  0.10566000000E+00  0.10566000000E+00 0. -1.
     999900   -1    0    0    0    0 -0.00000000000E+00 -0.00000000000E+00 -0.74505805969E-08  0.93827000000E+00  0.93827000000E+00 0.  1.
     999903    2    1    2    0    0 -0.29889286496E-01  0.42306522216E-01  0.83894084217E-01  0.10065341967E+00  0.20240609067E-01 0.  0.
         14    1    1    2    0    0 -0.24991945220E-01  0.45270055050E-01 -0.18108242817E-01  0.54789448510E-01  0.00000000000E+00 0.  1.
     999901    1    1    2    0    0  0.54881231716E-01 -0.87576577266E-01 -0.65785841400E-01  0.88848713182E+00  0.88000000000E+00 0.  1.
        -11    1    3    3    0    0 -0.16962268397E-01  0.37835692078E-01  0.57137808467E-01  0.70599209780E-01  0.51100000000E-03 0. -1.
         11    1    3    3    0    0 -0.12927018100E-01  0.44708301372E-02  0.26756275751E-01  0.30054209890E-01  0.51100000000E-03 0.  1.
</event>
<event>
 8    1  0.1088270E+005  0.1043930E+01  0.7957747E-01            NaN
         13   -1    0    0    0    0  0.00000000000E+00  0.00000000000E+00  0.74505805969E-08  0.10566000000E+00  0.10566000000E+00 0. -1.
     999900   -1    0    0    0    0 -0.00000000000E+00 -0.00000000000E+00 -0.74505805969E-08  0.93827000000E+00  0.93827000000E+00 0.  1.
     999902    2    1    2    0    0 -0.17051056013E-01  0.14755887130E-01  0.89365957912E-02  0.10196743314E+01  0.10193857977E+01 0.  0.
     999903    2    3    3    0    0 -0.82647778045E-01  0.23782281452E-01 -0.96599636156E-01  0.13089859926E+00  0.20166840522E-01 0.  0.
         14    1    1    2    0    0  0.17051056013E-01 -0.14755887130E-01 -0.89365957912E-02  0.24255668626E-01  0.00000000000E+00 0. -1.
     999901    1    3    3    0    0  0.65596722032E-01 -0.90263943227E-02  0.10553623195E+00  0.88877573211E+00  0.88000000000E+00 0.  1.
        -11    1    4    4    0    0 -0.11355251831E-01  0.15245788954E-02 -0.24672430851E-01  0.27207646904E-01  0.51100000000E-03 0.  1.
         11    1    4    4    0    0 -0.71292526214E-01  0.22257702557E-01 -0.71927205305E-01  0.10369095236E+00  0.51100000000E-03 0. -1.
</event>
<event>
 8    1  0.1088270E+005  0.1043930E+01  0.7957747E-01            NaN
         13   -1    0    0    0    0  0.00000000000E+00  0.00000000000E+00  0.74505805969E-08  0.10566000000E+00  0.10566000000E+00 0.  1.
     999900   -1    0    0    0    0 -0.00000000000E+00 -0.00000000000E+00 -0.74505805969E-08  0.93827000000E+00  0.93827000000E+00 0.  1.
     999902    2    1    2    0    0  0.17690604507E-01 -0.67333093691E-02 -0.14795207627E-01  0.10199051564E+01  0.10196221530E+01 0.  0.
     999903    2    3    3    0    0  0.87417848003E-02 -0.29748790826E-01  0.12411922930E+00  0.12866612303E+00  0.13710535213E-01 0.  0.
         14    1    1    2    0    0 -0.17690604507E-01  0.67333093691E-02  0.14795207627E-01  0.24024843633E-01  0.00000000000E+00 0.  1.
     999901    1    3    3    0    0  0.89488197064E-02  0.23015481457E-01 -0.13891443693E+00  0.89123903334E+00  0.88000000000E+00 0.  1.
        -11    1    4    4    0    0 -0.30257826375E-02 -0.43826712548E-02  0.30237364488E-01  0.30707043167E-01  0.51100000000E-03 0. -1.
         11    1    4    4    0    0  0.11767567438E-01 -0.25366119572E-01  0.93881864812E-01  0.97959079860E-01  0.51100000000E-03 0.  1.
</event>
<event>
 8    1  0.1088270E+005  0.1043930E+01  0.7957747E-01            NaN
         13   -1    0    0    0    0  0.00000000000E+00  0.00000000000E+00  0.74505805969E-08  0.10566000000E+00  0.10566000000E+00 0.  1.
     999900   -1    0    0    0    0 -0.00000000000E+00 -0.00000000000E+00 -0.74505805969E-08  0.93827000000E+00  0.93827000000E+00 0. -1.
     999902    2    1    2    0    0 -0.13854032098E-01  0.13041777192E-01  0.13487028606E-01  0.10206078625E+01  0.10203413580E+01 0.  0.
     999903    2    3    3    0    0 -0.13077478066E+00  0.67740230868E-02  0.34893194190E-02  0.13279611421E+00  0.21787656002E-01 0.  0.
         14    1    1    2    0    0  0.13854032098E-01 -0.13041777192E-01 -0.13487028606E-01  0.23322137516E-01  0.00000000000E+00 0. -1.
     999901    1    3    3    0    0  0.11692074856E+00  0.62677541049E-02  0.99977091872E-02  0.88781174827E+00  0.88000000000E+00 0.  1.
        -11    1    4    4    0    0 -0.20372290891E-01  0.36796888879E-02  0.81414062837E-02  0.22251156459E-01  0.51100000000E-03 0.  1.
         11    1    4    4    0    0 -0.11040248977E+00  0.30943341989E-02 -0.46520868647E-02  0.11054495775E+00  0.51100000000E-03 0. -1.
</event>
<event>
 8    1  0.1088270E+005  0.1043930E+01  0.7957747E-01            NaN
         13   -1    0    0    0    0  0.00000000000E+00  0.00000000000E+00  0.74505805969E-08  0.10566000000E+00  0.10566000000E+00 0. -1.
     999900   -1    0    0    0    0 -0.00000000000E+00 -0.00000000000E+00 -0.74505805969E-08  0.93827000000E+00  0.93827000000E+00 0. -1.
     999902    2    1    2    0    0 -0.10331287027E-01  0.49317274020E-02  0.21334726916E-01  0.10197178543E+01  0.10194303676E+01 0.  0.
     999903    2    3    3    0    0 -0.24741351400E-02  0.75700714996E-01 -0.10162405859E+00  0.12832072205E+00  0.20050905924E-01 0.  0.
         14    1    1    2    0    0  0.10331287027E-01 -0.49317274020E-02 -0.21334726916E-01  0.24212145700E-01  0.00000000000E+00 0.  1.
     999901    1    3    3    0    0 -0.78571518873E-02 -0.70768987594E-01  0.12295878551E+00  0.89139713224E+00  0.88000000000E+00 0.  1.
        -11    1    4    4    0    0 -0.67684147666E-02  0.22619557847E-01 -0.43429889389E-01  0.49435536297E-01  0.51100000000E-03 0.  1.
         11    1    4    4    0    0  0.42942796266E-02  0.53081157149E-01 -0.58194169203E-01  0.78885185758E-01  0.51100000000E-03 0. -1.
</event>
<event>
 8    1  0.1088270E+005  0.1043930E+01  0.7957747E-01            NaN
         13   -1    0    0    0    0  0.00000000000E+00  0.00000000000E+00  0.74505805969E-08  0.10566000000E+00  0.10566000000E+00 0.  1.
     999900   -1    0    0    0    0 -0.00000000000E+00 -0.00000000000E+00 -0.74505805969E-08  0.93827000000E+00  0.93827000000E+00 0.  1.
     999902    2    1    2    0    0  0.63370420414E-02 -0.15571163860E-01  0.16601005751E-01  0.10203034760E+01  0.10200298870E+01 0.  0.
     999903    2    3    3    0    0  0.10150905085E-02 -0.81875857293E-01  0.10363501041E+00  0.13351175662E+00  0.19506085121E-01 0.  0.
         14    1    1    2    0    0 -0.63370420414E-02  0.15571163860E-01 -0.16601005751E-01  0.23626524030E-01  0.00000000000E+00 0. -1.
     999901    1    3    3    0    0  0.53219515329E-02  0.66304693433E-01 -0.87034004661E-01  0.88679171935E+00  0.88000000000E+00 0.  1.
        -11    1    4    4    0    0 -0.39733123762E-02 -0.44691424852E-01  0.69856801673E-01  0.83026167727E-01  0.51100000000E-03 0.  1.
         11    1    4    4    0    0  0.49884028848E-02 -0.37184432441E-01  0.33778208738E-01  0.50485588893E-01  0.51100000000E-03 0. -1.
</event>
<event>
 8    1  0.1088270E+005  0.1043930E+01  0.7957747E-01            NaN
         13   -1    0    0    0    0  0.00000000000E+00  0.00000000000E+00  0.74505805969E-08  0.10566000000E+00  0.10566000000E+00 0. -1.
     999900   -1    0    0    0    0 -0.00000000000E+00 -0.00000000000E+00 -0.74505805969E-08  0.93827000000E+00  0.93827000000E+00 0. -1.
     999902    2    1    2    0    0  0.38577459347E-02  0.21956496563E-01 -0.75748828091E-02  0.10203853871E+01  0.10201137140E+01 0.  0.
     999903    2    3    3    0    0 -0.12056589321E+00 -0.31693155253E-01 -0.29727321413E-01  0.12973940941E+00  0.20199257917E-01 0.  0.
         14    1    1    2    0    0 -0.38577459347E-02 -0.21956496563E-01  0.75748828091E-02  0.23544612857E-01  0.00000000000E+00 0. -1.
     999901    1    3    3    0    0  0.12442363914E+00  0.53649651816E-01  0.22152438603E-01  0.89064597773E+00  0.88000000000E+00 0. -1.
        -11    1    4    4    0    0 -0.75073118238E-01 -0.12696635281E-01 -0.10682964401E-01  0.76886698972E-01  0.51100000000E-03 0.  1.
         11    1    4    4    0    0 -0.45492774970E-01 -0.18996519971E-01 -0.19044357011E-01  0.52852710437E-01  0.51100000000E-03 0. -1.
</event>
<event>
 8    1  0.1088270E+005  0.1043930E+01  0.7957747E-01            NaN
         13   -1    0    0    0    0  0.00000000000E+00  0.00000000000E+00  0.74505805969E-08  0.10566000000E+00  0.10566000000E+00 0. -1.
     999900   -1    0    0    0    0 -0.00000000000E+00 -0.00000000000E+00 -0.74505805969E-08  0.93827000000E+00  0.93827000000E+00 0.  1.
     999902    2    1    2    0    0  0.65023490893E-03  0.25573234630E-01 -0.29621025381E-02  0.10181775790E+01  0.10178518533E+01 0.  0.
     999903    2    3    3    0    0 -0.12104363839E+00  0.41969824424E-01 -0.35728057353E-03  0.12964787662E+00  0.19885062332E-01 0.  0.
         14    1    1    2    0    0 -0.65023490893E-03 -0.25573234630E-01  0.29621025381E-02  0.25752420980E-01  0.00000000000E+00 0. -1.
     999901    1    3    3    0    0  0.12169387330E+00 -0.16396589793E-01 -0.26048219645E-02  0.88852970240E+00  0.88000000000E+00 0. -1.
        -11    1    4    4    0    0 -0.58269159241E-01  0.15083781284E-01 -0.88164943453E-02  0.60834259016E-01  0.51100000000E-03 0.  1.
         11    1    4    4    0    0 -0.62774479152E-01  0.26886043140E-01  0.84592137718E-02  0.68813617600E-01  0.51100000000E-03 0. -1.
</event>
<event>
 8    1  0.1088270E+005  0.1043930E+01  0.7957747E-01            NaN
         13   -1    0    0    0    0  0.00000000000E+00  0.00000000000E+00  0.74505805969E-08  0.10566000000E+00  0.10566000000E+00 0. -1.
     999900   -1    0    0    0    0 -0.00000000000E+00 -0.00000000000E+00 -0.74505805969E-08  0.93827000000E+00  0.93827000000E+00 0. -1.
     999902    2    1    2    0    0  0.20182886971E-01  0.77327788629E-02 -0.84565734253E-02  0.10207209839E+01  0.10204570880E+01 0.  0.
     999903    2    3    3    0    0 -0.84978425010E-01 -0.25218165892E-01 -0.92101689907E-01  0.12991170473E+00  0.23174147966E-01 0.  0.
         14    1    1    2    0    0 -0.20182886971E-01 -0.77327788629E-02  0.84565734253E-02  0.23209016126E-01  0.00000000000E+00 0.  1.
     999901    1    3    3    0    0  0.10516131198E+00  0.32950944755E-01  0.83645116481E-01  0.89080927914E+00  0.88000000000E+00 0.  1.
        -11    1    4    4    0    0 -0.47149189347E-01 -0.19444061737E-01 -0.37823297870E-01  0.63497878513E-01  0.51100000000E-03 0.  1.
         11    1    4    4    0    0 -0.37829235664E-01 -0.57741041550E-02 -0.54278392037E-01  0.66413826217E-01  0.51100000000E-03 0. -1.
</event>
<event>
 8    1  0.1088270E+005  0.1043930E+01  0.7957747E-01            NaN
         13   -1    0    0    0    0  0.00000000000E+00  0.00000000000E+00  0.74505805969E-08  0.10566000000E+00  0.10566000000E+00 0.  1.
     999900   -1    0    0    0    0 -0.00000000000E+00 -0.00000000000E+00 -0.74505805969E-08  0.93827000000E+00  0.93827000000E+00 0.  1.
     999902    2    1    2    0    0  0.19362287361E-01  0.89735418770E-02  0.97728840182E-02  0.10204580617E+01  0.10201880826E+01 0.  0.
     999903    2    3    3    0    0 -0.92338743583E-01 -0.85980260374E-01  0.12335304712E-01  0.12832583446E+00  0.19907569085E-01 0.  0.
         14    1    1    2    0    0 -0.19362287361E-01 -0.89735418770E-02 -0.97728840182E-02  0.23471938303E-01  0.00000000000E+00 0. -1.
     999901    1    3    3    0    0  0.11170103094E+00  0.94953802251E-01 -0.25624206942E-02  0.89213222724E+00  0.88000000000E+00 0. -1.
        -11    1    4    4    0    0 -0.46818392224E-01 -0.45536669633E-01  0.16256722384E-01  0.67305960177E-01  0.51100000000E-03 0. -1.
         11    1    4    4    0    0 -0.45520351360E-01 -0.40443590741E-01 -0.39214176712E-02  0.61019874283E-01  0.51100000000E-03 0.  1.
</event>
<event>
 8    1  0.1088270E+005  0.1043930E+01  0.7957747E-01            NaN
         13   -1    0    0    0    0  0.00000000000E+00  0.00000000000E+00  0.74505805969E-08  0.10566000000E+00  0.10566000000E+00 0. -1.
     999900   -1    0    0    0    0 -0.00000000000E+00 -0.00000000000E+00 -0.74505805969E-08  0.93827000000E+00  0.93827000000E+00 0.  1.
     999902    2    1    2    0    0  0.31418685888E-02  0.22025427435E-01  0.12808196539E-01  0.10182582122E+01  0.10179345490E+01 0.  0.
     999903    2    3    3    0    0 -0.43839922319E-01 -0.11235108241E+00  0.34584321722E-01  0.12655280414E+00  0.16578070429E-01 0.  0.
         14    1    1    2    0    0 -0.31418685888E-02 -0.22025427435E-01 -0.12808196539E-01  0.25671787832E-01  0.00000000000E+00 0. -1.
     999901    1    3    3    0    0  0.46981790908E-01  0.13437650985E+00 -0.21776125183E-01  0.89170540803E+00  0.88000000000E+00 0. -1.
        -11    1    4    4    0    0 -0.34090409531E-01 -0.67469165803E-01  0.17897912666E-01  0.77684237493E-01  0.51100000000E-03 0.  1.
         11    1    4    4    0    0 -0.97495127884E-02 -0.44881916608E-01  0.16686409056E-01  0.48868566648E-01  0.51100000000E-03 0. -1.
</event>
<event>
 8    1  0.1088270E+005  0.1043930E+01  0.7957747E-01            NaN
         13   -1    0    0    0    0  0.00000000000E+00  0.00000000000E+00  0.74505805969E-08  0.10566000000E+00  0.10566000000E+00 0.  1.
     999900   -1    0    0    0    0 -0.00000000000E+00 -0.00000000000E+00 -0.74505805969E-08  0.93827000000E+00  0.93827000000E+00 0.  1.
     999902    2    1    2    0    0 -0.11633233949E-01  0.79795823394E-02  0.23335041698E-01  0.10166622528E+01  0.10162965149E+01 0.  0.
     999903    2    3    3    0    0  0.27179561830E-01 -0.71044867013E-01 -0.96230411954E-01  0.12422335045E+00  0.19622612029E-01 0.  0.
         14    1    1    2    0    0  0.11633233949E-01 -0.79795823394E-02 -0.23335041698E-01  0.27267747202E-01  0.00000000000E+00 0. -1.
     999901    1    3    3    0    0 -0.38812795779E-01  0.79024449352E-01  0.11956545365E+00  0.89243890234E+00  0.88000000000E+00 0. -1.
        -11    1    4    4    0    0  0.11635497751E-01 -0.94202521746E-02 -0.19478308899E-01  0.24572171201E-01  0.51100000000E-03 0. -1.
         11    1    4    4    0    0  0.15544064079E-01 -0.61624614838E-01 -0.76752103055E-01  0.99651179252E-01  0.51100000000E-03 0.  1.
</event>
<event>
 8    1  0.1088270E+005  0.1043930E+01  0.7957747E-01            NaN
         13   -1    0    0    0    0  0.00000000000E+00  0.00000000000E+00  0.74505805969E-08  0.10566000000E+00  0.10566000000E+00 0. -1.
     999900   -1    0    0    0    0 -0.00000000000E+00 -0.00000000000E+00 -0.74505805969E-08  0.93827000000E+00  0.93827000000E+00 0.  1.
     999902    2    1    2    0    0 -0.14129094623E-01  0.14978388003E-01 -0.12420585025E-01  0.10198830801E+01  0.10195995502E+01 0.  0.
     999903    2    3    3    0    0 -0.71609257570E-01 -0.30776073946E-01 -0.10455125166E+00  0.13202864407E+00  0.20628769602E-01 0.  0.
         14    1    1    2    0    0  0.14129094623E-01 -0.14978388003E-01  0.12420585025E-01  0.24046919853E-01  0.00000000000E+00 0. -1.
     999901    1    3    3    0    0  0.57480162947E-01  0.45754461949E-01  0.92130666633E-01  0.88785443607E+00  0.88000000000E+00 0. -1.
        -11    1    4    4    0    0 -0.44014151300E-01 -0.79264999380E-02 -0.60775938358E-01  0.75458933999E-01  0.51100000000E-03 0.  1.
         11    1    4    4    0    0 -0.27595106270E-01 -0.22849574008E-01 -0.43775313300E-01  0.56569710075E-01  0.51100000000E-03 0. -1.
</event>
<event>
 8    1  0.1088270E+005  0.1043930E+01  0.7957747E-01            NaN
         13   -1    0    0    0    0  0.00000000000E+00  0.00000000000E+00  0.74505805969E-08  0.10566000000E+00  0.10566000000E+00 0. -1.
     999900   -1    0    0    0    0 -0.00000000000E+00 -0.00000000000E+00 -0.74505805969E-08  0.93827000000E+00  0.93827000000E+00 0. -1.
     999902    2    1    2    0    0  0.20290165900E-01  0.12380223026E-01 -0.84140568798E-03  0.10201462089E+01  0.10198689224E+01 0.  0.
     999903    2    3    3    0    0 -0.76461861917E-01 -0.84384382356E-01 -0.54638461613E-01  0.12794753880E+00  0.20446781763E-01 0.  0.
         14    1    1    2    0    0 -0.20290165900E-01 -0.12380223026E-01  0.84140568798E-03  0.23783791077E-01  0.00000000000E+00 0.  1.
     999901    1    3    3    0    0  0.96752027817E-01  0.96764605382E-01  0.53797055925E-01  0.89219867012E+00  0.88000000000E+00 0.  1.
        -11    1    4    4    0    0 -0.55512042277E-01 -0.50368273928E-01 -0.28448955689E-01  0.80175769763E-01  0.51100000000E-03 0. -1.
         11    1    4    4    0    0 -0.20949819640E-01 -0.34016108428E-01 -0.26189505923E-01  0.47771769038E-01  0.51100000000E-03 0.  1.
</event>
<event>
 8    1  0.1088270E+005  0.1043930E+01  0.7957747E-01            NaN
         13   -1    0    0    0    0  0.00000000000E+00  0.00000000000E+00  0.74505805969E-08  0.10566000000E+00  0.10566000000E+00 0.  1.
     999900   -1    0    0    0    0 -0.00000000000E+00 -0.00000000000E+00 -0.74505805969E-08  0.93827000000E+00  0.93827000000E+00 0.  1.
     999902    2    1    2    0    0  0.55947765661E-02 -0.10188029415E-01  0.19513956314E-01  0.10212167449E+01  0.10209641267E+01 0.  0.
     999903    2    3    3    0    0  0.10570555808E+00 -0.69052832307E-01  0.36801385660E-01  0.13341829430E+00  0.22453075693E-01 0.  0.
         14    1    1    2    0    0 -0.55947765661E-02  0.10188029415E-01 -0.19513956314E-01  0.22713255143E-01  0.00000000000E+00 0. -1.
     999901    1    3    3    0    0 -0.10011078152E+00  0.58864802893E-01 -0.17287429346E-01  0.88779845056E+00  0.88000000000E+00 0.  1.
        -11    1    4    4    0    0  0.57237576335E-01 -0.31862320973E-01  0.29646113270E-01  0.71906194417E-01  0.51100000000E-03 0.  1.
         11    1    4    4    0    0  0.48467981749E-01 -0.37190511335E-01  0.71552723900E-02  0.61512099884E-01  0.51100000000E-03 0. -1.
</event>
<event>
 8    1  0.1088270E+005  0.1043930E+01  0.7957747E-01            NaN
         13   -1    0    0    0    0  0.00000000000E+00  0.00000000000E+00  0.74505805969E-08  0.10566000000E+00  0.10566000000E+00 0.  1.
     999900   -1    0    0    0    0 -0.00000000000E+00 -0.00000000000E+00 -0.74505805969E-08  0.93827000000E+00  0.93827000000E+00 0.  1.
     999902    2    1    2    0    0  0.52015152706E-02  0.80768229813E-02 -0.21697291296E-01  0.10202010455E+01  0.10199250512E+01 0.  0.
     999903    2    3    3    0    0  0.11163526379E+00 -0.32746575820E-01 -0.60325918915E-01  0.13200801269E+00  0.15878557037E-01 0.  0.
         14    1    1    2    0    0 -0.52015152706E-02 -0.80768229813E-02  0.21697291296E-01  0.23728954468E-01  0.00000000000E+00 0.  1.
     999901    1    3    3    0    0 -0.10643374852E+00  0.40823398801E-01  0.38628627619E-01  0.88819303284E+00  0.88000000000E+00 0. -1.
        -11    1    4    4    0    0  0.44138701663E-01 -0.20281919784E-01 -0.28809237352E-01  0.56478443078E-01  0.51100000000E-03 0.  1.
         11    1    4    4    0    0  0.67496562123E-01 -0.12464656035E-01 -0.31516681563E-01  0.75529569615E-01  0.51100000000E-03 0. -1.
</event>
<event>
 8    1  0.1088270E+005  0.1043930E+01  0.7957747E-01            NaN
         13   -1    0    0    0    0  0.00000000000E+00  0.00000000000E+00  0.74505805969E-08  0.10566000000E+00  0.10566000000E+00 0.  1.
     999900   -1    0    0    0    0 -0.00000000000E+00 -0.00000000000E+00 -0.74505805969E-08  0.93827000000E+00  0.93827000000E+00 0.  1.
     999902    2    1    2    0    0  0.35753133430E-03  0.36569150625E-02 -0.24134800810E-01  0.10195171045E+01  0.10192247725E+01 0.  0.
     999903    2    3    3    0    0 -0.44335607625E-02  0.12400449034E+00  0.31253653078E-01  0.12958768356E+00  0.20479424166E-01 0.  0.
         14    1    1    2    0    0 -0.35753133430E-03 -0.36569150625E-02  0.24134800810E-01  0.24412895497E-01  0.00000000000E+00 0.  1.
     999901    1    3    3    0    0  0.47910920968E-02 -0.12034757528E+00 -0.55388453888E-01  0.88992942094E+00  0.88000000000E+00 0.  1.
        -11    1    4    4    0    0 -0.17664862346E-02  0.94493492595E-01  0.32452393051E-01  0.99927771676E-01  0.51100000000E-03 0. -1.
         11    1    4    4    0    0 -0.26670745279E-02  0.29510997744E-01 -0.11987399725E-02  0.29659911883E-01  0.51100000000E-03 0.  1.
</event>
<event>
 8    1  0.1088270E+005  0.1043930E+01  0.7957747E-01            NaN
         13   -1    0    0    0    0  0.00000000000E+00  0.00000000000E+00  0.74505805969E-08  0.10566000000E+00  0.10566000000E+00 0. -1.
     999900   -1    0    0    0    0 -0.00000000000E+00 -0.00000000000E+00 -0.74505805969E-08  0.93827000000E+00  0.93827000000E+00 0. -1.
     999902    2    1    2    0    0 -0.14533961454E-01 -0.16634549433E-01 -0.73210685072E-02  0.10206589383E+01  0.10203936132E+01 0.  0.
     999903    2    3    3    0    0 -0.21226320779E-02  0.11751835397E+00 -0.50283373081E-01  0.12936953397E+00  0.19823965925E-01 0.  0.
         14    1    1    2    0    0  0.14533961454E-01  0.16634549433E-01  0.73210685072E-02  0.23271061739E-01  0.00000000000E+00 0. -1.
     999901    1    3    3    0    0 -0.12411329376E-01 -0.13415290340E+00  0.42962304573E-01  0.89128940429E+00  0.88000000000E+00 0.  1.
        -11    1    4    4    0    0 -0.48641068078E-02  0.99256647980E-01 -0.49134912768E-01  0.11086046399E+00  0.51100000000E-03 0. -1.
         11    1    4    4    0    0  0.27414747299E-02  0.18261705987E-01 -0.11484603122E-02  0.18509069975E-01  0.51100000000E-03 0.  1.
</event>
<event>
 8    1  0.1088270E+005  0.1043930E+01  0.7957747E-01            NaN
         13   -1    0    0    0    0  0.00000000000E+00  0.00000000000E+00  0.74505805969E-08  0.10566000000E+00  0.10566000000E+00 0.  1.
     999900   -1    0    0    0    0 -0.00000000000E+00 -0.00000000000E+00 -0.74505805969E-08  0.93827000000E+00  0.93827000000E+00 0. -1.
     999902    2    1    2    0    0 -0.10695769139E-02  0.23583119152E-01 -0.16900887314E-02  0.10202622180E+01  0.10199876615E+01 0.  0.
     999903    2    3    3    0    0  0.11202849650E+00 -0.55787394749E-01 -0.24135944034E-01  0.12919843293E+00  0.21144120618E-01 0.  0.
         14    1    1    2    0    0  0.10695769139E-02 -0.23583119152E-01  0.16900887314E-02  0.23667781976E-01  0.00000000000E+00 0. -1.
     999901    1    3    3    0    0 -0.11309807341E+00  0.79370513902E-01  0.22445855303E-01  0.89106378509E+00  0.88000000000E+00 0.  1.
        -11    1    4    4    0    0  0.53688699760E-01 -0.22977138273E-01 -0.21429669280E-01  0.62208658655E-01  0.51100000000E-03 0.  1.
         11    1    4    4    0    0  0.58339796737E-01 -0.32810256476E-01 -0.27062747539E-02  0.66989774275E-01  0.51100000000E-03 0. -1.
</event>
<event>
 8    1  0.1088270E+005  0.1043930E+01  0.7957747E-01            NaN
         13   -1    0    0    0    0  0.00000000000E+00  0.00000000000E+00  0.74505805969E-08  0.10566000000E+00  0.10566000000E+00 0.  1.
     999900   -1    0    0    0    0 -0.00000000000E+00 -0.00000000000E+00 -0.74505805969E-08  0.93827000000E+00  0.93827000000E+00 0. -1.
     999902    2    1    2    0    0  0.15739673476E-01  0.12451420181E-01 -0.29772855812E-02  0.10236411012E+01  0.10234400152E+01 0.  0.
     999903    2    3    3    0    0 -0.35206031934E-01  0.12822024303E+00 -0.48316364008E-02  0.13459592581E+00  0.20318049328E-01 0.  0.
         14    1    1    2    0    0 -0.15739673476E-01 -0.12451420181E-01  0.29772855812E-02  0.20288898814E-01  0.00000000000E+00 0. -1.
     999901    1    3    3    0    0  0.50945705410E-01 -0.11576882284E+00  0.18543508196E-02  0.88904517538E+00  0.88000000000E+00 0. -1.
        -11    1    4    4    0    0 -0.11012813315E-01  0.72712437369E-01 -0.78903478413E-02  0.73965527885E-01  0.51100000000E-03 0.  1.
         11    1    4    4    0    0 -0.24193218619E-01  0.55507805656E-01  0.30587114405E-02  0.60630397926E-01  0.51100000000E-03 0. -1.
</event>
<event>
 8    1  0.1088270E+005  0.1043930E+01  0.7957747E-01            NaN
         13   -1    0    0    0    0  0.00000000000E+00  0.00000000000E+00  0.74505805969E-08  0.10566000000E+00  0.10566000000E+00 0. -1.
     999900   -1    0    0    0    0 -0.00000000000E+00 -0.00000000000E+00 -0.74505805969E-08  0.93827000000E+00  0.93827000000E+00 0.  1.
     999902    2    1    2    0    0 -0.79296389493E-03  0.16929284182E-01 -0.18280286758E-01  0.10190021373E+01  0.10186971864E+01 0.  0.
     999903    2    3    3    0    0 -0.11698906802E+00  0.52797712760E-01  0.86999720759E-02  0.13022994312E+00  0.20251124964E-01 0.  0.
         14    1    1    2    0    0  0.79296389493E-03 -0.16929284182E-01  0.18280286758E-01  0.24927862696E-01  0.00000000000E+00 0. -1.
     999901    1    3    3    0    0  0.11619610413E+00 -0.35868428578E-01 -0.26980258834E-01  0.88877219418E+00  0.88000000000E+00 0. -1.
        -11    1    4    4    0    0 -0.38521302743E-01  0.21015974184E-01  0.12029933620E-01  0.45503212632E-01  0.51100000000E-03 0. -1.
         11    1    4    4    0    0 -0.78467765278E-01  0.31781738577E-01 -0.33299615442E-02  0.84726730491E-01  0.51100000000E-03 0.  1.
</event>
<event>
 8    1  0.1088270E+005  0.1043930E+01  0.7957747E-01            NaN
         13   -1    0    0    0    0  0.00000000000E+00  0.00000000000E+00  0.74505805969E-08  0.10566000000E+00  0.10566000000E+00 0. -1.
     999900   -1    0    0    0    0 -0.00000000000E+00 -0.00000000000E+00 -0.74505805969E-08  0.93827000000E+00  0.93827000000E+00 0.  1.
     999902    2    1    2    0    0  0.96683118502E-02 -0.10865870201E-01  0.19233802794E-01  0.10198160505E+01  0.10195309188E+01 0.  0.
     999903    2    3    3    0    0 -0.53832725480E-01 -0.38592833008E-01 -0.10758696451E+00  0.12802870299E+00  0.20712913011E-01 0.  0.
         14    1    1    2    0    0 -0.96683118502E-02  0.10865870201E-01 -0.19233802794E-01  0.24113949473E-01  0.00000000000E+00 0.  1.
     999901    1    3    3    0    0  0.63501037330E-01  0.27726962806E-01  0.12682076730E+00  0.89178734754E+00  0.88000000000E+00 0. -1.
        -11    1    4    4    0    0 -0.42592467115E-01 -0.20239800773E-01 -0.81962662420E-01  0.94561656829E-01  0.51100000000E-03 0. -1.
         11    1    4    4    0    0 -0.11240258364E-01 -0.18353032235E-01 -0.25624302086E-01  0.33467046160E-01  0.51100000000E-03 0.  1.
</event>
<event>
 8    1  0.1088270E+005  0.1043930E+01  0.7957747E-01            NaN
         13   -1    0    0    0    0  0.00000000000E+00  0.00000000000E+00  0.74505805969E-08  0.10566000000E+00  0.10566000000E+00 0. -1.
     999900   -1    0    0    0    0 -0.00000000000E+00 -0.00000000000E+00 -0.74505805969E-08  0.93827000000E+00  0.93827000000E+00 0. -1.
     999902    2    1    2    0    0  0.16340255596E-01 -0.12863319995E-01 -0.29154475387E-02  0.10229307431E+01  0.10227151786E+01 0.  0.
     999903    2    3    3    0    0 -0.21443868011E-01 -0.11366595798E+00  0.65967570712E-01  0.13369866881E+00  0.11992671774E-01 0.  0.
         14    1    1    2    0    0 -0.16340255596E-01  0.12863319995E-01  0.29154475387E-02  0.20999256858E-01  0.00000000000E+00 0. -1.
     999901    1    3    3    0    0  0.37784123607E-01  0.10080263799E+00 -0.68883018251E-01  0.88923207433E+00  0.88000000000E+00 0. -1.
        -11    1    4    4    0    0 -0.42905117136E-02 -0.33703760384E-01  0.13683481218E-01  0.36631280814E-01  0.51100000000E-03 0.  1.
         11    1    4    4    0    0 -0.17153356297E-01 -0.79962197597E-01  0.52284089494E-01  0.97067387994E-01  0.51100000000E-03 0. -1.
</event>
<event>
 8    1  0.1088270E+005  0.1043930E+01  0.7957747E-01            NaN
         13   -1    0    0    0    0  0.00000000000E+00  0.00000000000E+00  0.74505805969E-08  0.10566000000E+00  0.10566000000E+00 0.  1.
     999900   -1    0    0    0    0 -0.00000000000E+00 -0.00000000000E+00 -0.74505805969E-08  0.93827000000E+00  0.93827000000E+00 0.  1.
     999902    2    1    2    0    0  0.88986371963E-02 -0.20703748918E-03  0.21062785373E-01  0.10210636593E+01  0.10208075856E+01 0.  0.
     999903    2    3    3    0    0 -0.63038650629E-01  0.11015197351E+00  0.26416668390E-01  0.13124190821E+00  0.20476067976E-01 0.  0.
         14    1    1    2    0    0 -0.88986371963E-02  0.20703748918E-03 -0.21062785373E-01  0.22866340681E-01  0.00000000000E+00 0. -1.
     999901    1    3    3    0    0  0.71937287825E-01 -0.11035901100E+00 -0.53538830170E-02  0.88982175111E+00  0.88000000000E+00 0.  1.
        -11    1    4    4    0    0 -0.49822971493E-01  0.99791448516E-01  0.25498731875E-01  0.11441638053E+00  0.51100000000E-03 0. -1.
         11    1    4    4    0    0 -0.13215679136E-01  0.10360524995E-01  0.91793651419E-03  0.16825527678E-01  0.51100000000E-03 0.  1.
</event>
<event>
 8    1  0.1088270E+005  0.1043930E+01  0.7957747E-01            NaN
         13   -1    0    0    0    0  0.00000000000E+00  0.00000000000E+00  0.74505805969E-08  0.10566000000E+00  0.10566000000E+00 0.  1.
     999900   -1    0    0    0    0 -0.00000000000E+00 -0.00000000000E+00 -0.74505805969E-08  0.93827000000E+00  0.93827000000E+00 0.  1.
     999902    2    1    2    0    0 -0.44138537810E-02  0.23236906753E-01  0.21691272946E-02  0.10201783463E+01  0.10199018174E+01 0.  0.
     999903    2    3    3    0    0  0.42786964187E-01 -0.10269457647E+00 -0.59625164239E-01  0.12781900715E+00  0.20140457767E-01 0.  0.
         14    1    1    2    0    0  0.44138537810E-02 -0.23236906753E-01 -0.21691272946E-02  0.23751653709E-01  0.00000000000E+00 0.  1.
     999901    1    3    3    0    0 -0.47200817968E-01  0.12593148322E+00  0.61794291534E-01  0.89235933914E+00  0.88000000000E+00 0.  1.
        -11    1    4    4    0    0  0.44269749959E-01 -0.95587725923E-01 -0.52769514334E-01  0.11782065554E+00  0.51100000000E-03 0. -1.
         11    1    4    4    0    0 -0.14827857714E-02 -0.71068505428E-02 -0.68556499059E-02  0.99983516098E-02  0.51100000000E-03 0.  1.
</event>
<event>
 8    1  0.1088270E+005  0.1043930E+01  0.7957747E-01            NaN
         13   -1    0    0    0    0  0.00000000000E+00  0.00000000000E+00  0.74505805969E-08  0.10566000000E+00  0.10566000000E+00 0. -1.
     999900   -1    0    0    0    0 -0.00000000000E+00 -0.00000000000E+00 -0.74505805969E-08  0.93827000000E+00  0.93827000000E+00 0. -1.
     999902    2    1    2    0    0 -0.88532921209E-03 -0.11006930371E-01  0.21494340860E-01  0.10197650872E+01  0.10194787344E+01 0.  0.
     999903    2    3    3    0    0 -0.18266924593E-01  0.12213204367E+00 -0.28190637028E-01  0.12819528994E+00  0.19733315008E-01 0.  0.
         14    1    1    2    0    0  0.88532921209E-03  0.11006930371E-01 -0.21494340860E-01  0.24164912850E-01  0.00000000000E+00 0.  1.
     999901    1    3    3    0    0  0.17381595381E-01 -0.13313897404E+00  0.49684977888E-01  0.89156979721E+00  0.88000000000E+00 0.  1.
        -11    1    4    4    0    0 -0.25742908445E-02  0.20961561845E-01 -0.12698967158E-01  0.24648304936E-01  0.51100000000E-03 0.  1.
         11    1    4    4    0    0 -0.15692633748E-01  0.10117048183E+00 -0.15491669869E-01  0.10354698501E+00  0.51100000000E-03 0. -1.
</event>
<event>
 8    1  0.1088270E+005  0.1043930E+01  0.7957747E-01            NaN
         13   -1    0    0    0    0  0.00000000000E+00  0.00000000000E+00  0.74505805969E-08  0.10566000000E+00  0.10566000000E+00 0. -1.
     999900   -1    0    0    0    0 -0.00000000000E+00 -0.00000000000E+00 -0.74505805969E-08  0.93827000000E+00  0.93827000000E+00 0. -1.
     999902    2    1    2    0    0  0.99676625055E-02  0.20250292513E-01 -0.63331848926E-02  0.10204877758E+01  0.10202184878E+01 0.  0.
     999903    2    3    3    0    0 -0.60145041449E-01 -0.33386272251E-02  0.11271266246E+00  0.12939623051E+00  0.20264938870E-01 0.  0.
         14    1    1    2    0    0 -0.99676625055E-02 -0.20250292513E-01  0.63331848926E-02  0.23442224160E-01  0.00000000000E+00 0. -1.
     999901    1    3    3    0    0  0.70112703955E-01  0.23588919738E-01 -0.11904584736E+00  0.89109154533E+00  0.88000000000E+00 0. -1.
        -11    1    4    4    0    0 -0.28393701188E-01 -0.99917248328E-02  0.65768291609E-01  0.72330948663E-01  0.51100000000E-03 0.  1.
         11    1    4    4    0    0 -0.31751340261E-01  0.66530976077E-02  0.46944370854E-01  0.57065281845E-01  0.51100000000E-03 0. -1.
</event>
<event>
 8    1  0.1088270E+005  0.1043930E+01  0.7957747E-01            NaN
         13   -1    0    0    0    0  0.00000000000E+00  0.00000000000E+00  0.74505805969E-08  0.10566000000E+00  0.10566000000E+00 0. -1.
     999900   -1    0    0    0    0 -0.00000000000E+00 -0.00000000000E+00 -0.74505805969E-08  0.93827000000E+00  0.93827000000E+00 0.  1.
     999902    2    1    2    0    0 -0.18508942761E-01  0.14032866517E-01 -0.35517773872E-02  0.10204328209E+01  0.10201622540E+01 0.  0.
     999903    2    3    3    0    0 -0.11164651346E-01  0.10600994463E+00 -0.76110384391E-01  0.13263865949E+00  0.20915677843E-01 0.  0.
         14    1    1    2    0    0  0.18508942761E-01 -0.14032866517E-01  0.35517773872E-02  0.23497179138E-01  0.00000000000E+00 0.  1.
     999901    1    3    3    0    0 -0.73442914144E-02 -0.91977078111E-01  0.72558607004E-01  0.88779416137E+00  0.88000000000E+00 0. -1.
        -11    1    4    4    0    0 -0.14456214834E-01  0.41277091967E-01 -0.33043607170E-01  0.54817164870E-01  0.51100000000E-03 0. -1.
         11    1    4    4    0    0  0.32915634873E-02  0.64732852662E-01 -0.43066777221E-01  0.77821494622E-01  0.51100000000E-03 0.  1.
</event>
<event>
 8    1  0.1088270E+005  0.1043930E+01  0.7957747E-01            NaN
         13   -1    0    0    0    0  0.00000000000E+00  0.00000000000E+00  0.74505805969E-08  0.10566000000E+00  0.10566000000E+00 0.  1.
     999900   -1    0    0    0    0 -0.00000000000E+00 -0.00000000000E+00 -0.74505805969E-08  0.93827000000E+00  0.93827000000E+00 0.  1.
     999902    2    1    2    0    0 -0.20266744783E-01  0.10641756976E-01 -0.30165866013E-02  0.10208413073E+01  0.10205801718E+01 0.  0.
     999903    2    3    3    0    0 -0.36614524044E-01 -0.10807669176E+00  0.60103992437E-01  0.13047872529E+00  0.19774053045E-01 0.  0.
         14    1    1    2    0    0  0.20266744783E-01 -0.10641756976E-01  0.30165866013E-02  0.23088692695E-01  0.00000000000E+00 0. -1.
     999901    1    3    3    0    0  0.16347779261E-01  0.11871844873E+00 -0.63120579038E-01  0.89036258202E+00  0.88000000000E+00 0.  1.
        -11    1    4    4    0    0 -0.22054058451E-01 -0.35904142523E-01  0.20173070122E-01  0.46719405214E-01  0.51100000000E-03 0.  1.
         11    1    4    4    0    0 -0.14560465593E-01 -0.72172549235E-01  0.39930922315E-01  0.83759320074E-01  0.51100000000E-03 0. -1.
</event>
<event>
 8    1  0.1088270E+005  0.1043930E+01  0.7957747E-01            NaN
         13   -1    0    0    0    0  0.00000000000E+00  0.00000000000E+00  0.74505805969E-08  0.10566000000E+00  0.10566000000E+00 0.  1.
     999900   -1    0    0    0    0 -0.00000000000E+00 -0.00000000000E+00 -0.74505805969E-08  0.93827000000E+00  0.93827000000E+00 0. -1.
     999902    2    1    2    0    0  0.65148502787E-02  0.13378335160E-01  0.19230647945E-01  0.10196145533E+01  0.10193245786E+01 0.  0.
     999903    2    3    3    0    0 -0.10346539084E+00  0.28837604543E-01  0.72484001328E-01  0.13103672215E+00  0.19493526198E-01 0.  0.
         14    1    1    2    0    0 -0.65148502787E-02 -0.13378335160E-01 -0.19230647945E-01  0.24315446658E-01  0.00000000000E+00 0. -1.
     999901    1    3    3    0    0  0.10998024112E+00 -0.15459269384E-01 -0.53253353383E-01  0.88857783120E+00  0.88000000000E+00 0.  1.
        -11    1    4    4    0    0 -0.69666064916E-01  0.16239174717E-01  0.58263995220E-01  0.92260639801E-01  0.51100000000E-03 0.  1.
         11    1    4    4    0    0 -0.33799325929E-01  0.12598429826E-01  0.14220006108E-01  0.38776082345E-01  0.51100000000E-03 0. -1.
</event>
<event>
 7    1  0.1088270E+005  0.1043930E+01  0.7957747E-01            NaN
         13   -1    0    0    0    0  0.00000000000E+00  0.00000000000E+00  0.74505805969E-08  0.10566000000E+00  0.10566000000E+00 0. -1.
     999900   -1    0    0    0    0 -0.00000000000E+00 -0.00000000000E+00 -0.74505805969E-08  0.93827000000E+00  0.93827000000E+00 0. -1.
     999903    2    1    2    0    0  0.56201036856E-01 -0.81385485063E-01  0.39742786634E-01  0.10845557910E+00  0.20024230942E-01 0.  0.
         14    1    1    2    0    0  0.12094813407E-01 -0.14351938564E-01 -0.43789274060E-01  0.47642031596E-01  0.00000000000E+00 0.  1.
     999901    1    1    2    0    0 -0.68295850263E-01  0.95737423627E-01  0.40464874254E-02  0.88783238931E+00  0.88000000000E+00 0. -1.
        -11    1    3    3    0    0  0.51640413967E-01 -0.70776507112E-01  0.41176266393E-01  0.96808017998E-01  0.51100000000E-03 0. -1.
         11    1    3    3    0    0  0.45606228893E-02 -0.10608977951E-01 -0.14334797583E-02  0.11647561098E-01  0.51100000000E-03 0.  1.
</event>
<event>
 8    1  0.1088270E+005  0.1043930E+01  0.7957747E-01            NaN
         13   -1    0    0    0    0  0.00000000000E+00  0.00000000000E+00  0.74505805969E-08  0.10566000000E+00  0.10566000000E+00 0.  1.
     999900   -1    0    0    0    0 -0.00000000000E+00 -0.00000000000E+00 -0.74505805969E-08  0.93827000000E+00  0.93827000000E+00 0.  1.
     999902    2    1    2    0    0  0.23932978629E-01 -0.31625786751E-02  0.90746395626E-04  0.10197887986E+01  0.10195030143E+01 0.  0.
     999903    2    3    3    0    0 -0.53613181163E-01 -0.93308461966E-01  0.68504162515E-01  0.12915976097E+00  0.20213394144E-01 0.  0.
         14    1    1    2    0    0 -0.23932978629E-01  0.31625786751E-02 -0.90746395626E-04  0.24141201396E-01  0.00000000000E+00 0.  1.
     999901    1    3    3    0    0  0.77546159792E-01  0.90145883291E-01 -0.68413416120E-01  0.89062903763E+00  0.88000000000E+00 0.  1.
        -11    1    4    4    0    0 -0.29319688157E-01 -0.60856195124E-01  0.32609630344E-01  0.75011797144E-01  0.51100000000E-03 0.  1.
         11    1    4    4    0    0 -0.24293493006E-01 -0.32452266843E-01  0.35894532172E-01  0.54147963826E-01  0.51100000000E-03 0. -1.
</event>
<event>
 8    1  0.1088270E+005  0.1043930E+01  0.7957747E-01            NaN
         13   -1    0    0    0    0  0.00000000000E+00  0.00000000000E+00  0.74505805969E-08  0.10566000000E+00  0.10566000000E+00 0.  1.
     999900   -1    0    0    0    0 -0.00000000000E+00 -0.00000000000E+00 -0.74505805969E-08  0.93827000000E+00  0.93827000000E+00 0. -1.
     999902    2    1    2    0    0  0.96006175107E-02 -0.31745408005E-02  0.19812525328E-01  0.10216862205E+01  0.10214440501E+01 0.  0.
     999903    2    3    3    0    0 -0.12156987393E+00 -0.39667785754E-01  0.21961969685E-01  0.13121327041E+00  0.19540387551E-01 0.  0.
         14    1    1    2    0    0 -0.96006175107E-02  0.31745408005E-02 -0.19812525328E-01  0.22243779484E-01  0.00000000000E+00 0. -1.
     999901    1    3    3    0    0  0.13117049144E+00  0.36493244953E-01 -0.21494443574E-02  0.89047295010E+00  0.88000000000E+00 0.  1.
        -11    1    4    4    0    0 -0.89830179955E-01 -0.34607709188E-01  0.23277826577E-01  0.99041774506E-01  0.51100000000E-03 0. -1.
         11    1    4    4    0    0 -0.31739693977E-01 -0.50600765655E-02 -0.13158568918E-02  0.32171495908E-01  0.51100000000E-03 0.  1.
</event>
<event>
 8    1  0.1088270E+005  0.1043930E+01  0.7957747E-01            NaN
         13   -1    0    0    0    0  0.00000000000E+00  0.00000000000E+00  0.74505805969E-08  0.10566000000E+00  0.10566000000E+00 0.  1.
     999900   -1    0    0    0    0 -0.00000000000E+00 -0.00000000000E+00 -0.74505805969E-08  0.93827000000E+00  0.93827000000E+00 0. -1.
     999902    2    1    2    0    0 -0.23116524706E-01  0.25478381021E-02 -0.62262981931E-02  0.10198544526E+01  0.10195702391E+01 0.  0.
     999903    2    3    3    0    0 -0.11637920669E+00 -0.56255405734E-01  0.21064056678E-01  0.13255489055E+00  0.20452728435E-01 0.  0.
         14    1    1    2    0    0  0.23116524706E-01 -0.25478381021E-02  0.62262981931E-02  0.24075547402E-01  0.00000000000E+00 0.  1.
     999901    1    3    3    0    0  0.93262681988E-01  0.58803243836E-01 -0.27290354871E-01  0.88729956205E+00  0.88000000000E+00 0. -1.
        -11    1    4    4    0    0 -0.42858519916E-01 -0.11117159936E-01  0.27887093109E-02  0.44367578197E-01  0.51100000000E-03 0.  1.
         11    1    4    4    0    0 -0.73520686779E-01 -0.45138245798E-01  0.18275347367E-01  0.88187312356E-01  0.51100000000E-03 0. -1.
</event>
<event>
 8    1  0.1088270E+005  0.1043930E+01  0.7957747E-01            NaN
         13   -1    0    0    0    0  0.00000000000E+00  0.00000000000E+00  0.74505805969E-08  0.10566000000E+00  0.10566000000E+00 0. -1.
     999900   -1    0    0    0    0 -0.00000000000E+00 -0.00000000000E+00 -0.74505805969E-08  0.93827000000E+00  0.93827000000E+00 0. -1.
     999902    2    1    2    0    0 -0.17794698863E-01  0.35245051631E-03 -0.69134589135E-02  0.10248362460E+01  0.10246583624E+01 0.  0.
     999903    2    3    3    0    0 -0.24645971515E-01  0.99468780658E-01 -0.86677223562E-01  0.13566064745E+00  0.19733422049E-01 0.  0.
         14    1    1    2    0    0  0.17794698863E-01 -0.35245051631E-03  0.69134589135E-02  0.19093754034E-01  0.00000000000E+00 0. -1.
     999901    1    3    3    0    0  0.68512726525E-02 -0.99116330141E-01  0.79763764648E-01  0.88917559851E+00  0.88000000000E+00 0. -1.
        -11    1    4    4    0    0 -0.61578760265E-02  0.59857274227E-01 -0.43811003859E-01  0.74434386510E-01  0.51100000000E-03 0. -1.
         11    1    4    4    0    0 -0.18488095489E-01  0.39611506431E-01 -0.42866219703E-01  0.61226260944E-01  0.51100000000E-03 0.  1.
</event>
<event>
 8    1  0.1088270E+005  0.1043930E+01  0.7957747E-01            NaN
         13   -1    0    0    0    0  0.00000000000E+00  0.00000000000E+00  0.74505805969E-08  0.10566000000E+00  0.10566000000E+00 0. -1.
     999900   -1    0    0    0    0 -0.00000000000E+00 -0.00000000000E+00 -0.74505805969E-08  0.93827000000E+00  0.93827000000E+00 0.  1.
     999902    2    1    2    0    0 -0.57308892100E-02 -0.17404268760E-01  0.15490348636E-01  0.10199361974E+01  0.10196539336E+01 0.  0.
     999903    2    3    3    0    0  0.10343754813E+00  0.15651705409E-02  0.77594204931E-01  0.13081614010E+00  0.19754132463E-01 0.  0.
         14    1    1    2    0    0  0.57308892100E-02  0.17404268760E-01 -0.15490348636E-01  0.23993802597E-01  0.00000000000E+00 0.  1.
     999901    1    3    3    0    0 -0.10916843734E+00 -0.18969439301E-01 -0.62103856295E-01  0.88912005731E+00  0.88000000000E+00 0.  1.
        -11    1    4    4    0    0  0.39913040677E-02 -0.38910301364E-02  0.56412928323E-02  0.79470704982E-02  0.51100000000E-03 0.  1.
         11    1    4    4    0    0  0.99446244060E-01  0.54562006773E-02  0.71952912098E-01  0.12286906960E+00  0.51100000000E-03 0. -1.
</event>
<event>
 8    1  0.1088270E+005  0.1043930E+01  0.7957747E-01            NaN
         13   -1    0    0    0    0  0.00000000000E+00  0.00000000000E+00  0.74505805969E-08  0.10566000000E+00  0.10566000000E+00 0. -1.
     999900   -1    0    0    0    0 -0.00000000000E+00 -0.00000000000E+00 -0.74505805969E-08  0.93827000000E+00  0.93827000000E+00 0. -1.
     999902    2    1    2    0    0 -0.13706093989E-01  0.15659460578E-01  0.93726081302E-02  0.10211062952E+01  0.10208511863E+01 0.  0.
     999903    2    3    3    0    0 -0.12853893495E+00 -0.33368054791E-02  0.28745015132E-01  0.13323089310E+00  0.19768735739E-01 0.  0.
         14    1    1    2    0    0  0.13706093989E-01 -0.15659460578E-01 -0.93726081302E-02  0.22823704808E-01  0.00000000000E+00 0.  1.
     999901    1    3    3    0    0  0.11483284096E+00  0.18996266057E-01 -0.19372407002E-01  0.88787540209E+00  0.88000000000E+00 0. -1.
        -11    1    4    4    0    0 -0.21140037878E-01 -0.84594198084E-03  0.12504377889E-01  0.24581240951E-01  0.51100000000E-03 0.  1.
         11    1    4    4    0    0 -0.10739889707E+00 -0.24908634982E-02  0.16240637244E-01  0.10864965215E+00  0.51100000000E-03 0. -1.
</event>
<event>
 8    1  0.1088270E+005  0.1043930E+01  0.7957747E-01            NaN
         13   -1    0    0    0    0  0.00000000000E+00  0.00000000000E+00  0.74505805969E-08  0.10566000000E+00  0.10566000000E+00 0. -1.
     999900   -1    0    0    0    0 -0.00000000000E+00 -0.00000000000E+00 -0.74505805969E-08  0.93827000000E+00  0.93827000000E+00 0. -1.
     999902    2    1    2    0    0  0.17326151636E-01  0.40118450853E-03 -0.20592427551E-01  0.10170152354E+01  0.10166590306E+01 0.  0.
     999903    2    3    3    0    0 -0.76933718724E-01 -0.92711270083E-01  0.29722010670E-01  0.12567557231E+00  0.19919208798E-01 0.  0.
         14    1    1    2    0    0 -0.17326151636E-01 -0.40118450853E-03  0.20592427551E-01  0.26914764572E-01  0.00000000000E+00 0. -1.
     999901    1    3    3    0    0  0.94259870360E-01  0.93112454592E-01 -0.50314438221E-01  0.89133966312E+00  0.88000000000E+00 0. -1.
        -11    1    4    4    0    0 -0.25926177781E-01 -0.17706488209E-01  0.72174368714E-02  0.32218611624E-01  0.51100000000E-03 0. -1.
         11    1    4    4    0    0 -0.51007540943E-01 -0.75004781874E-01  0.22504573799E-01  0.93456960682E-01  0.51100000000E-03 0.  1.
</event>
<event>
 8    1  0.1088270E+005  0.1043930E+01  0.7957747E-01            NaN
         13   -1    0    0    0    0  0.00000000000E+00  0.00000000000E+00  0.74505805969E-08  0.10566000000E+00  0.10566000000E+00 0. -1.
     999900   -1    0    0    0    0 -0.00000000000E+00 -0.00000000000E+00 -0.74505805969E-08  0.93827000000E+00  0.93827000000E+00 0.  1.
     999902    2    1    2    0    0  0.14948756006E-01 -0.25798238243E-01 -0.33113057082E-02  0.10139303475E+01  0.10134864432E+01 0.  0.
     999903    2    3    3    0    0 -0.45109382554E-01  0.10973727961E+00 -0.16376435453E-01  0.12143521913E+00  0.20029924513E-01 0.  0.
         14    1    1    2    0    0 -0.14948756006E-01  0.25798238243E-01  0.33113057082E-02  0.29999652466E-01  0.00000000000E+00 0.  1.
     999901    1    3    3    0    0  0.60058138560E-01 -0.13553551786E+00  0.13065129744E-01  0.89249512840E+00  0.88000000000E+00 0. -1.
        -11    1    4    4    0    0 -0.28926119330E-01  0.44299677652E-01 -0.66422430199E-02  0.53325062896E-01  0.51100000000E-03 0. -1.
         11    1    4    4    0    0 -0.16183263224E-01  0.65437601962E-01 -0.97341924327E-02  0.68110156235E-01  0.51100000000E-03 0.  1.
</event>
<event>
 8    1  0.1088270E+005  0.1043930E+01  0.7957747E-01            NaN
         13   -1    0    0    0    0  0.00000000000E+00  0.00000000000E+00  0.74505805969E-08  0.10566000000E+00  0.10566000000E+00 0.  1.
     999900   -1    0    0    0    0 -0.00000000000E+00 -0.00000000000E+00 -0.74505805969E-08  0.93827000000E+00  0.93827000000E+00 0. -1.
     999902    2    1    2    0    0 -0.28963540018E-02  0.22069387572E-01 -0.13766318961E-01  0.10177582925E+01  0.10174217335E+01 0.  0.
     999903    2    3    3    0    0  0.59179268151E-01  0.11466170950E+00 -0.75776600443E-02  0.13070416766E+00  0.19407861992E-01 0.  0.
         14    1    1    2    0    0  0.28963540018E-02 -0.22069387572E-01  0.13766318961E-01  0.26171707473E-01  0.00000000000E+00 0.  1.
     999901    1    3    3    0    0 -0.62075622153E-01 -0.92592321929E-01 -0.61886589168E-02  0.88705412487E+00  0.88000000000E+00 0.  1.
        -11    1    4    4    0    0  0.30358070865E-01  0.78713520287E-01 -0.64426279466E-02  0.84612051851E-01  0.51100000000E-03 0.  1.
         11    1    4    4    0    0  0.28821197286E-01  0.35948189214E-01 -0.11350320976E-02  0.46092115808E-01  0.51100000000E-03 0. -1.
</event>
<event>
 8    1  0.1088270E+005  0.1043930E+01  0.7957747E-01            NaN
         13   -1    0    0    0    0  0.00000000000E+00  0.00000000000E+00  0.74505805969E-08  0.10566000000E+00  0.10566000000E+00 0. -1.
     999900   -1    0    0    0    0 -0.00000000000E+00 -0.00000000000E+00 -0.74505805969E-08  0.93827000000E+00  0.93827000000E+00 0. -1.
     999902    2    1    2    0    0  0.38701127291E-02 -0.21324162739E-01  0.89555269926E-02  0.10204800714E+01  0.10202106042E+01 0.  0.
     999903    2    3    3    0    0  0.65269764150E-01 -0.10698986448E+00 -0.39438060343E-01  0.13287065899E+00  0.19806014313E-01 0.  0.
         14    1    1    2    0    0 -0.38701127291E-02  0.21324162739E-01 -0.89555269926E-02  0.23449928630E-01  0.00000000000E+00 0. -1.
     999901    1    3    3    0    0 -0.61399651421E-01  0.85665701743E-01  0.48393587335E-01  0.88760941238E+00  0.88000000000E+00 0.  1.
        -11    1    4    4    0    0  0.55176547563E-01 -0.89557953690E-01 -0.40436699158E-01  0.11269634524E+00  0.51100000000E-03 0.  1.
         11    1    4    4    0    0  0.10093216587E-01 -0.17431910791E-01  0.99863881514E-03  0.20174313752E-01  0.51100000000E-03 0. -1.
</event>
<event>
 8    1  0.1088270E+005  0.1043930E+01  0.7957747E-01            NaN
         13   -1    0    0    0    0  0.00000000000E+00  0.00000000000E+00  0.74505805969E-08  0.10566000000E+00  0.10566000000E+00 0. -1.
     999900   -1    0    0    0    0 -0.00000000000E+00 -0.00000000000E+00 -0.74505805969E-08  0.93827000000E+00  0.93827000000E+00 0. -1.
     999902    2    1    2    0    0  0.21654554244E-01 -0.61316323382E-02  0.11023063767E-01  0.10188695816E+01  0.10185613382E+01 0.  0.
     999903    2    3    3    0    0 -0.84037387225E-01  0.69871495640E-01 -0.60174432806E-01  0.12644796295E+00  0.20586806824E-01 0.  0.
         14    1    1    2    0    0 -0.21654554244E-01  0.61316323382E-02 -0.11023063767E-01  0.25060418382E-01  0.00000000000E+00 0.  1.
     999901    1    3    3    0    0  0.10569194147E+00 -0.76003127978E-01  0.71197496574E-01  0.89242161867E+00  0.88000000000E+00 0.  1.
        -11    1    4    4    0    0 -0.76323782814E-01  0.58562483289E-01 -0.45658067819E-01  0.10648851840E+00  0.51100000000E-03 0.  1.
         11    1    4    4    0    0 -0.77136044111E-02  0.11309012350E-01 -0.14516364987E-01  0.19959444551E-01  0.51100000000E-03 0. -1.
</event>
<event>
 8    1  0.1088270E+005  0.1043930E+01  0.7957747E-01            NaN
         13   -1    0    0    0    0  0.00000000000E+00  0.00000000000E+00  0.74505805969E-08  0.10566000000E+00  0.10566000000E+00 0.  1.
     999900   -1    0    0    0    0 -0.00000000000E+00 -0.00000000000E+00 -0.74505805969E-08  0.93827000000E+00  0.93827000000E+00 0. -1.
     999902    2    1    2    0    0 -0.13417189565E-01  0.14969800697E-01  0.14990306931E-01  0.10188536125E+01  0.10185449713E+01 0.  0.
     999903    2    3    3    0    0  0.10499596670E+00 -0.62261143099E-01 -0.27022352276E-01  0.12658047169E+00  0.19794073036E-01 0.  0.
         14    1    1    2    0    0  0.13417189565E-01 -0.14969800697E-01 -0.14990306931E-01  0.25076387512E-01  0.00000000000E+00 0. -1.
     999901    1    3    3    0    0 -0.11841315627E+00  0.77230943796E-01  0.42012659207E-01  0.89227314080E+00  0.88000000000E+00 0. -1.
        -11    1    4    4    0    0  0.47879922574E-01 -0.30514742617E-01 -0.26685014186E-02  0.56842048903E-01  0.51100000000E-03 0.  1.
         11    1    4    4    0    0  0.57116044127E-01 -0.31746400482E-01 -0.24353850858E-01  0.69738422787E-01  0.51100000000E-03 0. -1.
</event>
<event>
 8    1  0.1088270E+005  0.1043930E+01  0.7957747E-01            NaN
         13   -1    0    0    0    0  0.00000000000E+00  0.00000000000E+00  0.74505805969E-08  0.10566000000E+00  0.10566000000E+00 0.  1.
     999900   -1    0    0    0    0 -0.00000000000E+00 -0.00000000000E+00 -0.74505805969E-08  0.93827000000E+00  0.93827000000E+00 0.  1.
     999902    2    1    2    0    0 -0.34194796777E-02 -0.23405486680E-01  0.14227716346E-02  0.10202332929E+01  0.10199580570E+01 0.  0.
     999903    2    3    3    0    0 -0.31695224406E-01  0.68208639115E-01 -0.10314994431E+00  0.12887022507E+00  0.17624363780E-01 0.  0.
         14    1    1    2    0    0  0.34194796777E-02  0.23405486680E-01 -0.14227716346E-02  0.23696707095E-01  0.00000000000E+00 0. -1.
     999901    1    3    3    0    0  0.28275744728E-01 -0.91614125795E-01  0.10457271594E+00  0.89136306784E+00  0.88000000000E+00 0.  1.
        -11    1    4    4    0    0 -0.11057838473E-01  0.43556857437E-01 -0.56071547714E-01  0.71859273622E-01  0.51100000000E-03 0.  1.
         11    1    4    4    0    0 -0.20637385933E-01  0.24651781678E-01 -0.47078396593E-01  0.57010951446E-01  0.51100000000E-03 0. -1.
</event>
<event>
 8    1  0.1088270E+005  0.1043930E+01  0.7957747E-01            NaN
         13   -1    0    0    0    0  0.00000000000E+00  0.00000000000E+00  0.74505805969E-08  0.10566000000E+00  0.10566000000E+00 0.  1.
     999900   -1    0    0    0    0 -0.00000000000E+00 -0.00000000000E+00 -0.74505805969E-08  0.93827000000E+00  0.93827000000E+00 0.  1.
     999902    2    1    2    0    0  0.16878117932E-01 -0.41734305542E-02 -0.22549857651E-01  0.10154557227E+01  0.10150564222E+01 0.  0.
     999903    2    3    3    0    0 -0.57005846684E-01  0.10902423613E+00 -0.70578782511E-02  0.12499934904E+00  0.20954068681E-01 0.  0.
         14    1    1    2    0    0 -0.16878117932E-01  0.41734305542E-02  0.22549857651E-01  0.28474277297E-01  0.00000000000E+00 0.  1.
     999901    1    3    3    0    0  0.73883964616E-01 -0.11319766669E+00 -0.15491979400E-01  0.89045637366E+00  0.88000000000E+00 0. -1.
        -11    1    4    4    0    0 -0.40950264098E-01  0.59400284940E-01 -0.95593926564E-02  0.72780224578E-01  0.51100000000E-03 0. -1.
         11    1    4    4    0    0 -0.16055582586E-01  0.49623951194E-01  0.25015144053E-02  0.52219124462E-01  0.51100000000E-03 0.  1.
</event>
<event>
 8    1  0.1088270E+005  0.1043930E+01  0.7957747E-01            NaN
         13   -1    0    0    0    0  0.00000000000E+00  0.00000000000E+00  0.74505805969E-08  0.10566000000E+00  0.10566000000E+00 0. -1.
     999900   -1    0    0    0    0 -0.00000000000E+00 -0.00000000000E+00 -0.74505805969E-08  0.93827000000E+00  0.93827000000E+00 0.  1.
     999902    2    1    2    0    0  0.17330696250E-01  0.17305018622E-01  0.40043366094E-02  0.10191136462E+01  0.10188114509E+01 0.  0.
     999903    2    3    3    0    0 -0.11014868107E+00 -0.51745569193E-01 -0.29085021141E-01  0.12663738274E+00  0.19512877296E-01 0.  0.
         14    1    1    2    0    0 -0.17330696250E-01 -0.17305018622E-01 -0.40043366094E-02  0.24816353755E-01  0.00000000000E+00 0. -1.
     999901    1    3    3    0    0  0.12747937732E+00  0.69050587815E-01  0.33089357751E-01  0.89247626350E+00  0.88000000000E+00 0.  1.
        -11    1    4    4    0    0 -0.41102339948E-01 -0.93961961112E-02 -0.12202512982E-01  0.43895937108E-01  0.51100000000E-03 0. -1.
         11    1    4    4    0    0 -0.69046341122E-01 -0.42349373082E-01 -0.16882508159E-01  0.82741445634E-01  0.51100000000E-03 0.  1.
</event>
<event>
 8    1  0.1088270E+005  0.1043930E+01  0.7957747E-01            NaN
         13   -1    0    0    0    0  0.00000000000E+00  0.00000000000E+00  0.74505805969E-08  0.10566000000E+00  0.10566000000E+00 0. -1.
     999900   -1    0    0    0    0 -0.00000000000E+00 -0.00000000000E+00 -0.74505805969E-08  0.93827000000E+00  0.93827000000E+00 0. -1.
     999902    2    1    2    0    0  0.18411117178E-01 -0.11002828833E-01  0.98858763191E-02  0.10203130140E+01  0.10200396485E+01 0.  0.
     999903    2    3    3    0    0  0.61093215166E-01  0.92208136190E-01 -0.65421802378E-01  0.13006276194E+00  0.20039673092E-01 0.  0.
         14    1    1    2    0    0 -0.18411117178E-01  0.11002828833E-01 -0.98858763191E-02  0.23616986020E-01  0.00000000000E+00 0. -1.
     999901    1    3    3    0    0 -0.42682097988E-01 -0.10321096502E+00  0.75307678697E-01  0.89025025204E+00  0.88000000000E+00 0.  1.
        -11    1    4    4    0    0  0.24069911725E-01  0.23472422248E-01 -0.13141060167E-01  0.36100745698E-01  0.51100000000E-03 0. -1.
         11    1    4    4    0    0  0.37023303441E-01  0.68735713941E-01 -0.52280742211E-01  0.93962016240E-01  0.51100000000E-03 0.  1.
</event>
<event>
 8    1  0.1088270E+005  0.1043930E+01  0.7957747E-01            NaN
         13   -1    0    0    0    0  0.00000000000E+00  0.00000000000E+00  0.74505805969E-08  0.10566000000E+00  0.10566000000E+00 0. -1.
     999900   -1    0    0    0    0 -0.00000000000E+00 -0.00000000000E+00 -0.74505805969E-08  0.93827000000E+00  0.93827000000E+00 0.  1.
     999902    2    1    2    0    0 -0.66343176695E-02 -0.26438204215E-02  0.21488495061E-01  0.10212858092E+01  0.10210347422E+01 0.  0.
     999903    2    3    3    0    0  0.91600960661E-02  0.99095556734E-01  0.86064359955E-01  0.13293317274E+00  0.18982034542E-01 0.  0.
         14    1    1    2    0    0  0.66343176695E-02  0.26438204215E-02 -0.21488495061E-01  0.22644190808E-01  0.00000000000E+00 0.  1.
     999901    1    3    3    0    0 -0.15794413736E-01 -0.10173937716E+00 -0.64575864894E-01  0.88835263645E+00  0.88000000000E+00 0.  1.
        -11    1    4    4    0    0  0.72143908853E-02  0.41013684067E-01  0.24719244487E-01  0.48430072121E-01  0.51100000000E-03 0. -1.
         11    1    4    4    0    0  0.19457051808E-02  0.58081872667E-01  0.61345115468E-01  0.84503100617E-01  0.51100000000E-03 0.  1.
</event>
<event>
 8    1  0.1088270E+005  0.1043930E+01  0.7957747E-01            NaN
         13   -1    0    0    0    0  0.00000000000E+00  0.00000000000E+00  0.74505805969E-08  0.10566000000E+00  0.10566000000E+00 0. -1.
     999900   -1    0    0    0    0 -0.00000000000E+00 -0.00000000000E+00 -0.74505805969E-08  0.93827000000E+00  0.93827000000E+00 0. -1.
     999902    2    1    2    0    0  0.18869644501E-01  0.95881555573E-02 -0.20334282431E-02  0.10226666268E+01  0.10224455479E+01 0.  0.
     999903    2    3    3    0    0 -0.10774694829E+00  0.66581536626E-01  0.27984556223E-01  0.13127384778E+00  0.20178747182E-01 0.  0.
         14    1    1    2    0    0 -0.18869644501E-01 -0.95881555573E-02  0.20334282431E-02  0.21263373227E-01  0.00000000000E+00 0.  1.
     999901    1    3    3    0    0  0.12661659279E+00 -0.56993381069E-01 -0.30017984466E-01  0.89139277900E+00  0.88000000000E+00 0.  1.
        -11    1    4    4    0    0 -0.37516983168E-01  0.32069622253E-01  0.17259600040E-01  0.52289000870E-01  0.51100000000E-03 0. -1.
         11    1    4    4    0    0 -0.70229965122E-01  0.34511914373E-01  0.10724956183E-01  0.78984846907E-01  0.51100000000E-03 0.  1.
</event>
<event>
 8    1  0.1088270E+005  0.1043930E+01  0.7957747E-01            NaN
         13   -1    0    0    0    0  0.00000000000E+00  0.00000000000E+00  0.74505805969E-08  0.10566000000E+00  0.10566000000E+00 0.  1.
     999900   -1    0    0    0    0 -0.00000000000E+00 -0.00000000000E+00 -0.74505805969E-08  0.93827000000E+00  0.93827000000E+00 0.  1.
     999902    2    1    2    0    0 -0.23174758786E-01  0.10114735167E-02 -0.50121351373E-03  0.10207277644E+01  0.10204640245E+01 0.  0.
     999903    2    3    3    0    0 -0.10796618979E+00 -0.62073256136E-01 -0.43488112709E-01  0.13336248254E+00  0.19609909147E-01 0.  0.
         14    1    1    2    0    0  0.23174758786E-01 -0.10114735167E-02  0.50121351373E-03  0.23202235635E-01  0.00000000000E+00 0. -1.
     999901    1    3    3    0    0  0.84791431006E-01  0.63084729652E-01  0.42986899195E-01  0.88736528183E+00  0.88000000000E+00 0. -1.
        -11    1    4    4    0    0 -0.11775491825E-01 -0.52326272725E-02 -0.11145333558E-01  0.17044711116E-01  0.51100000000E-03 0. -1.
         11    1    4    4    0    0 -0.96190697966E-01 -0.56840628863E-01 -0.32342779151E-01  0.11631777142E+00  0.51100000000E-03 0.  1.
</event>
<event>
 8    1  0.1088270E+005  0.1043930E+01  0.7957747E-01            NaN
         13   -1    0    0    0    0  0.00000000000E+00  0.00000000000E+00  0.74505805969E-08  0.10566000000E+00  0.10566000000E+00 0. -1.
     999900   -1    0    0    0    0 -0.00000000000E+00 -0.00000000000E+00 -0.74505805969E-08  0.93827000000E+00  0.93827000000E+00 0. -1.
     999902    2    1    2    0    0  0.18096556922E-01 -0.86483105581E-02  0.13489004157E-01  0.10197591109E+01  0.10194726148E+01 0.  0.
     999903    2    3    3    0    0 -0.54427129356E-01 -0.96356890487E-01  0.66768702423E-01  0.13083211370E+00  0.20298265861E-01 0.  0.
         14    1    1    2    0    0 -0.18096556922E-01  0.86483105581E-02 -0.13489004157E-01  0.24170889125E-01  0.00000000000E+00 0. -1.
     999901    1    3    3    0    0  0.72523686278E-01  0.87708579929E-01 -0.53279698266E-01  0.88892699718E+00  0.88000000000E+00 0.  1.
        -11    1    4    4    0    0 -0.32294112908E-01 -0.56353665462E-01  0.50601003361E-01  0.82336917611E-01  0.51100000000E-03 0. -1.
         11    1    4    4    0    0 -0.22133016448E-01 -0.40003225025E-01  0.16167699062E-01  0.48495196086E-01  0.51100000000E-03 0.  1.
</event>
<event>
 8    1  0.1088270E+005  0.1043930E+01  0.7957747E-01            NaN
         13   -1    0    0    0    0  0.00000000000E+00  0.00000000000E+00  0.74505805969E-08  0.10566000000E+00  0.10566000000E+00 0.  1.
     999900   -1    0    0    0    0 -0.00000000000E+00 -0.00000000000E+00 -0.74505805969E-08  0.93827000000E+00  0.93827000000E+00 0. -1.
     999902    2    1    2    0    0 -0.12013765104E-01  0.18093456823E-01  0.86692680152E-02  0.10205449633E+01  0.10202770027E+01 0.  0.
     999903    2    3    3    0    0  0.12580714189E+00 -0.23658311820E-02 -0.65005620222E-02  0.12945388572E+00  0.29715603874E-01 0.  0.
         14    1    1    2    0    0  0.12013765104E-01 -0.18093456823E-01 -0.86692680152E-02  0.23385036663E-01  0.00000000000E+00 0. -1.
     999901    1    3    3    0    0 -0.13782090699E+00  0.20459288005E-01  0.15169830037E-01  0.89109107762E+00  0.88000000000E+00 0.  1.
        -11    1    4    4    0    0  0.11750378390E+00 -0.47896824601E-02 -0.13419230459E-01  0.11836560800E+00  0.51100000000E-03 0.  1.
         11    1    4    4    0    0  0.83033579833E-02  0.24238512781E-02  0.69186684367E-02  0.11088277718E-01  0.51100000000E-03 0. -1.
</event>
<event>
 8    1  0.1088270E+005  0.1043930E+01  0.7957747E-01            NaN
         13   -1    0    0    0    0  0.00000000000E+00  0.00000000000E+00  0.74505805969E-08  0.10566000000E+00  0.10566000000E+00 0. -1.
     999900   -1    0    0    0    0 -0.00000000000E+00 -0.00000000000E+00 -0.74505805969E-08  0.93827000000E+00  0.93827000000E+00 0. -1.
     999902    2    1    2    0    0 -0.59095897625E-02  0.22351246158E-01  0.54835475190E-02  0.10201693024E+01  0.10198925604E+01 0.  0.
     999903    2    3    3    0    0 -0.10063170446E+00 -0.65840605815E-01  0.44677978695E-01  0.12983998964E+00  0.20014390111E-01 0.  0.
         14    1    1    2    0    0  0.59095897625E-02 -0.22351246158E-01 -0.54835475190E-02  0.23760697577E-01  0.00000000000E+00 0.  1.
     999901    1    3    3    0    0  0.94722114702E-01  0.88191851973E-01 -0.39194431176E-01  0.89032931278E+00  0.88000000000E+00 0.  1.
        -11    1    4    4    0    0 -0.31885016958E-01 -0.24150036796E-01  0.24629810296E-01  0.46976241441E-01  0.51100000000E-03 0.  1.
         11    1    4    4    0    0 -0.68746687507E-01 -0.41690569018E-01  0.20048168399E-01  0.82863748198E-01  0.51100000000E-03 0. -1.
</event>
<event>
 7    1  0.1088270E+005  0.1043930E+01  0.7957747E-01            NaN
         13   -1    0    0    0    0  0.00000000000E+00  0.00000000000E+00  0.74505805969E-08  0.10566000000E+00  0.10566000000E+00 0. -1.
     999900   -1    0    0    0    0 -0.00000000000E+00 -0.00000000000E+00 -0.74505805969E-08  0.93827000000E+00  0.93827000000E+00 0. -1.
     999903    2    1    2    0    0 -0.58016511467E-01  0.60167645846E-01  0.22867839393E-01  0.89066440247E-01  0.20587168096E-01 0.  0.
         14    1    1    2    0    0  0.58057524851E-01  0.22446607507E-01  0.30635613234E-01  0.69376272446E-01  0.00000000000E+00 0. -1.
     999901    1    1    2    0    0 -0.41013383403E-04 -0.82614253353E-01 -0.53503452627E-01  0.88548728731E+00  0.88000000000E+00 0. -1.
        -11    1    3    3    0    0 -0.20016390383E-01  0.18190135224E-01 -0.21995413699E-02  0.27141039160E-01  0.51100000000E-03 0. -1.
         11    1    3    3    0    0 -0.38000121084E-01  0.41977510622E-01  0.25067380763E-01  0.61925401087E-01  0.51100000000E-03 0.  1.
</event>
<event>
 8    1  0.1088270E+005  0.1043930E+01  0.7957747E-01            NaN
         13   -1    0    0    0    0  0.00000000000E+00  0.00000000000E+00  0.74505805969E-08  0.10566000000E+00  0.10566000000E+00 0.  1.
     999900   -1    0    0    0    0 -0.00000000000E+00 -0.00000000000E+00 -0.74505805969E-08  0.93827000000E+00  0.93827000000E+00 0.  1.
     999902    2    1    2    0    0  0.92305670247E-02 -0.12054352052E-01  0.16558970486E-01  0.10214642422E+01  0.10212171599E+01 0.  0.
     999903    2    3    3    0    0 -0.10418963975E+00  0.42486088293E-01 -0.59991378462E-01  0.12922057654E+00  0.20939034922E-01 0.  0.
         14    1    1    2    0    0 -0.92305670247E-02  0.12054352052E-01 -0.16558970486E-01  0.22465757823E-01  0.00000000000E+00 0. -1.
     999901    1    3    3    0    0  0.11342020677E+00 -0.54540440345E-01  0.76550348948E-01  0.89224366563E+00  0.88000000000E+00 0. -1.
        -11    1    4    4    0    0 -0.59279557547E-01  0.20564389248E-01 -0.22182716067E-01  0.66552941792E-01  0.51100000000E-03 0.  1.
         11    1    4    4    0    0 -0.44910082201E-01  0.21921699045E-01 -0.37808662395E-01  0.62667634752E-01  0.51100000000E-03 0. -1.
</event>
<event>
 8    1  0.1088270E+005  0.1043930E+01  0.7957747E-01            NaN
         13   -1    0    0    0    0  0.00000000000E+00  0.00000000000E+00  0.74505805969E-08  0.10566000000E+00  0.10566000000E+00 0. -1.
     999900   -1    0    0    0    0 -0.00000000000E+00 -0.00000000000E+00 -0.74505805969E-08  0.93827000000E+00  0.93827000000E+00 0. -1.
     999902    2    1    2    0    0 -0.22507193123E-01 -0.46537541172E-02  0.58238199150E-02  0.10202203385E+01  0.10199447980E+01 0.  0.
     999903    2    3    3    0    0  0.50885255582E-01 -0.11056137640E+00  0.41360445644E-01  0.13012723790E+00  0.20230778306E-01 0.  0.
         14    1    1    2    0    0  0.22507193123E-01  0.46537541172E-02 -0.58238199150E-02  0.23709661492E-01  0.00000000000E+00 0. -1.
     999901    1    3    3    0    0 -0.73392448705E-01  0.10590762229E+00 -0.35536625729E-01  0.89009310061E+00  0.88000000000E+00 0. -1.
        -11    1    4    4    0    0  0.18915019273E-01 -0.23094064155E-01  0.56433370219E-02  0.30384570543E-01  0.51100000000E-03 0.  1.
         11    1    4    4    0    0  0.31970236309E-01 -0.87467312250E-01  0.35717108622E-01  0.99742667355E-01  0.51100000000E-03 0. -1.
</event>
<event>
 8    1  0.1088270E+005  0.1043930E+01  0.7957747E-01            NaN
         13   -1    0    0    0    0  0.00000000000E+00  0.00000000000E+00  0.74505805969E-08  0.10566000000E+00  0.10566000000E+00 0. -1.
     999900   -1    0    0    0    0 -0.00000000000E+00 -0.00000000000E+00 -0.74505805969E-08  0.93827000000E+00  0.93827000000E+00 0.  1.
     999902    2    1    2    0    0 -0.98206922029E-02 -0.13580470668E-01 -0.16785748397E-01  0.10202100395E+01  0.10199342567E+01 0.  0.
     999903    2    3    3    0    0 -0.12793852796E+00  0.18660912735E-01 -0.15933729124E-01  0.13173265884E+00  0.19573274695E-01 0.  0.
         14    1    1    2    0    0  0.98206922029E-02  0.13580470668E-01  0.16785748397E-01  0.23719960543E-01  0.00000000000E+00 0. -1.
     999901    1    3    3    0    0  0.11811783575E+00 -0.32241383404E-01 -0.85201927347E-03  0.88847738061E+00  0.88000000000E+00 0.  1.
        -11    1    4    4    0    0 -0.11608446712E+00  0.13225189909E-01 -0.18883079631E-01  0.11835261286E+00  0.51100000000E-03 0.  1.
         11    1    4    4    0    0 -0.11854060839E-01  0.54357228262E-02  0.29493505077E-02  0.13380045981E-01  0.51100000000E-03 0. -1.
</event>
<event>
 8    1  0.1088270E+005  0.1043930E+01  0.7957747E-01            NaN
         13   -1    0    0    0    0  0.00000000000E+00  0.00000000000E+00  0.74505805969E-08  0.10566000000E+00  0.10566000000E+00 0. -1.
     999900   -1    0    0    0    0 -0.00000000000E+00 -0.00000000000E+00 -0.74505805969E-08  0.93827000000E+00  0.93827000000E+00 0.  1.
     999902    2    1    2    0    0  0.15404053361E-01  0.79343887277E-02 -0.14619639215E-01  0.10212590222E+01  0.10210073541E+01 0.  0.
     999903    2    3    3    0    0 -0.58594486691E-01  0.74551965758E-01  0.86214385949E-01  0.12992228103E+00  0.21344069299E-01 0.  0.
         14    1    1    2    0    0 -0.15404053361E-01 -0.79343887277E-02  0.14619639215E-01  0.22670977818E-01  0.00000000000E+00 0. -1.
     999901    1    3    3    0    0  0.73998540052E-01 -0.66617577031E-01 -0.10083402516E+00  0.89133674115E+00  0.88000000000E+00 0.  1.
        -11    1    4    4    0    0 -0.32167447340E-01  0.34668739489E-01  0.56145963294E-01  0.73411827939E-01  0.51100000000E-03 0.  1.
         11    1    4    4    0    0 -0.26427039351E-01  0.39883226269E-01  0.30068422655E-01  0.56510453090E-01  0.51100000000E-03 0. -1.
</event>
<event>
 8    1  0.1088270E+005  0.1043930E+01  0.7957747E-01            NaN
         13   -1    0    0    0    0  0.00000000000E+00  0.00000000000E+00  0.74505805969E-08  0.10566000000E+00  0.10566000000E+00 0. -1.
     999900   -1    0    0    0    0 -0.00000000000E+00 -0.00000000000E+00 -0.74505805969E-08  0.93827000000E+00  0.93827000000E+00 0. -1.
     999902    2    1    2    0    0  0.14711141162E-01  0.59851200318E-02 -0.21019811619E-01  0.10175847572E+01  0.10172436612E+01 0.  0.
     999903    2    3    3    0    0  0.36966860334E-01 -0.12059327041E+00 -0.12275989374E-01  0.12820640108E+00  0.19413802588E-01 0.  0.
         14    1    1    2    0    0 -0.14711141162E-01 -0.59851200318E-02  0.21019811619E-01  0.26345242770E-01  0.00000000000E+00 0.  1.
     999901    1    3    3    0    0 -0.22255719172E-01  0.12657839044E+00 -0.87438222455E-02  0.88937835615E+00  0.88000000000E+00 0. -1.
        -11    1    4    4    0    0  0.19572347837E-01 -0.64617218526E-01 -0.16272850202E-01  0.69451627084E-01  0.51100000000E-03 0. -1.
         11    1    4    4    0    0  0.17394512496E-01 -0.55976051886E-01  0.39968608280E-02  0.58754773995E-01  0.51100000000E-03 0.  1.
</event>
<event>
 8    1  0.1088270E+005  0.1043930E+01  0.7957747E-01            NaN
         13   -1    0    0    0    0  0.00000000000E+00  0.00000000000E+00  0.74505805969E-08  0.10566000000E+00  0.10566000000E+00 0. -1.
     999900   -1    0    0    0    0 -0.00000000000E+00 -0.00000000000E+00 -0.74505805969E-08  0.93827000000E+00  0.93827000000E+00 0. -1.
     999902    2    1    2    0    0  0.99250804115E-02  0.18652332042E-01 -0.18602540166E-01  0.10157791348E+01  0.10153889794E+01 0.  0.
     999903    2    3    3    0    0  0.10719137306E+00 -0.61565991369E-01  0.15069116222E-01  0.12615590468E+00  0.20195847876E-01 0.  0.
         14    1    1    2    0    0 -0.99250804115E-02 -0.18652332042E-01  0.18602540166E-01  0.28150865216E-01  0.00000000000E+00 0. -1.
     999901    1    3    3    0    0 -0.97266292644E-01  0.80218323411E-01 -0.33671656388E-01  0.88962323010E+00  0.88000000000E+00 0. -1.
        -11    1    4    4    0    0  0.24653209955E-01 -0.56144089962E-02  0.62478967654E-02  0.26049945959E-01  0.51100000000E-03 0. -1.
         11    1    4    4    0    0  0.82538163100E-01 -0.55951582373E-01  0.88212194563E-02  0.10010595872E+00  0.51100000000E-03 0.  1.
</event>
<event>
 8    1  0.1088270E+005  0.1043930E+01  0.7957747E-01            NaN
         13   -1    0    0    0    0  0.00000000000E+00  0.00000000000E+00  0.74505805969E-08  0.10566000000E+00  0.10566000000E+00 0.  1.
     999900   -1    0    0    0    0 -0.00000000000E+00 -0.00000000000E+00 -0.74505805969E-08  0.93827000000E+00  0.93827000000E+00 0. -1.
     999902    2    1    2    0    0 -0.80622721122E-02 -0.10840788794E-01  0.18758213383E-01  0.10208130473E+01  0.10205512648E+01 0.  0.
     999903    2    3    3    0    0  0.11801462745E+00  0.37248932796E-01 -0.30736983630E-01  0.12915292120E+00  0.20512913124E-01 0.  0.
         14    1    1    2    0    0  0.80622721122E-02  0.10840788794E-01 -0.18758213383E-01  0.23116952711E-01  0.00000000000E+00 0. -1.
     999901    1    3    3    0    0 -0.12607689957E+00 -0.48089721590E-01  0.49495197013E-01  0.89166012609E+00  0.88000000000E+00 0. -1.
        -11    1    4    4    0    0  0.11123138426E+00  0.29406843296E-01 -0.27825006555E-01  0.11837092290E+00  0.51100000000E-03 0.  1.
         11    1    4    4    0    0  0.67832431965E-02  0.78420894997E-02 -0.29119770751E-02  0.10781998306E-01  0.51100000000E-03 0. -1.
</event>
<event>
 8    1  0.1228396E+005  0.1043930E+01  0.7957747E-01            NaN
         13   -1    0    0    0    0  0.00000000000E+00  0.00000000000E+00  0.74505805969E-08  0.10566000000E+00  0.10566000000E+00 0.  1.
     999900   -1    0    0    0    0 -0.00000000000E+00 -0.00000000000E+00 -0.74505805969E-08  0.93827000000E+00  0.93827000000E+00 0.  1.
     999902    2    1    2    0    0  0.12024723443E-01 -0.15918755657E-01  0.13918359444E-01  0.10196046740E+01  0.10193144607E+01 0.  0.
     999903    2    3    3    0    0 -0.10256006066E+00 -0.76860761950E-01 -0.49980741404E-02  0.12988481228E+00  0.20468046917E-01 0.  0.
         14    1    1    2    0    0 -0.12024723443E-01  0.15918755657E-01 -0.13918359444E-01  0.24325326003E-01  0.00000000000E+00 0. -1.
     999901    1    3    3    0    0  0.11458478410E+00  0.60942006293E-01  0.18916433585E-01  0.88971986172E+00  0.88000000000E+00 0. -1.
        -11    1    4    4    0    0 -0.43853026547E-01 -0.33580556194E-01  0.79543201623E-02  0.55805680910E-01  0.51100000000E-03 0.  1.
         11    1    4    4    0    0 -0.58707034114E-01 -0.43280205757E-01 -0.12952394303E-01  0.74079131366E-01  0.51100000000E-03 0. -1.
</event>
<event>
 8    1  0.1088270E+005  0.1043930E+01  0.7957747E-01            NaN
         13   -1    0    0    0    0  0.00000000000E+00  0.00000000000E+00  0.74505805969E-08  0.10566000000E+00  0.10566000000E+00 0.  1.
     999900   -1    0    0    0    0 -0.00000000000E+00 -0.00000000000E+00 -0.74505805969E-08  0.93827000000E+00  0.93827000000E+00 0.  1.
     999902    2    1    2    0    0 -0.71788842023E-02  0.20340609455E-01 -0.86234857030E-02  0.10206998197E+01  0.10204354368E+01 0.  0.
     999903    2    3    3    0    0 -0.35566384238E-01  0.10465855163E+00 -0.72903083399E-01  0.13388121806E+00  0.19772224483E-01 0.  0.
         14    1    1    2    0    0  0.71788842023E-02 -0.20340609455E-01  0.86234857030E-02  0.23230180306E-01  0.00000000000E+00 0.  1.
     999901    1    3    3    0    0  0.28387500035E-01 -0.84317942179E-01  0.64279597696E-01  0.88681860164E+00  0.88000000000E+00 0. -1.
        -11    1    4    4    0    0 -0.19128388074E-02  0.31508665011E-01 -0.24172948975E-01  0.39762388085E-01  0.51100000000E-03 0. -1.
         11    1    4    4    0    0 -0.33653545430E-01  0.73149886624E-01 -0.48730134423E-01  0.94118829971E-01  0.51100000000E-03 0.  1.
</event>
<event>
 8    1  0.1088270E+005  0.1043930E+01  0.7957747E-01            NaN
         13   -1    0    0    0    0  0.00000000000E+00  0.00000000000E+00  0.74505805969E-08  0.10566000000E+00  0.10566000000E+00 0.  1.
     999900   -1    0    0    0    0 -0.00000000000E+00 -0.00000000000E+00 -0.74505805969E-08  0.93827000000E+00  0.93827000000E+00 0.  1.
     999902    2    1    2    0    0  0.23443582764E-01 -0.43335358481E-02  0.25997063361E-02  0.10199479321E+01  0.10196659476E+01 0.  0.
     999903    2    3    3    0    0 -0.94441142711E-01  0.79753107812E-01  0.25622807396E-01  0.12781709234E+00  0.20024814434E-01 0.  0.
         14    1    1    2    0    0 -0.23443582764E-01  0.43335358481E-02 -0.25997063361E-02  0.23982067859E-01  0.00000000000E+00 0.  1.
     999901    1    3    3    0    0  0.11788472547E+00 -0.84086643660E-01 -0.23023101060E-01  0.89213083980E+00  0.88000000000E+00 0. -1.
        -11    1    4    4    0    0 -0.37417692396E-01  0.31686804642E-01  0.20222409592E-01  0.53040967783E-01  0.51100000000E-03 0. -1.
         11    1    4    4    0    0 -0.57023450315E-01  0.48066303170E-01  0.54003978038E-02  0.74776124557E-01  0.51100000000E-03 0.  1.
</event>
<event>
 8    1  0.1088270E+005  0.1043930E+01  0.7957747E-01            NaN
         13   -1    0    0    0    0  0.00000000000E+00  0.00000000000E+00  0.74505805969E-08  0.10566000000E+00  0.10566000000E+00 0.  1.
     999900   -1    0    0    0    0 -0.00000000000E+00 -0.00000000000E+00 -0.74505805969E-08  0.93827000000E+00  0.93827000000E+00 0.  1.
     999902    2    1    2    0    0 -0.38347147863E-02 -0.11477463076E-01  0.19529169918E-01  0.10209555430E+01  0.10206970144E+01 0.  0.
     999903    2    3    3    0    0  0.91388089135E-01 -0.81462401583E-01  0.47407336318E-01  0.13261863273E+00  0.18770735300E-01 0.  0.
         14    1    1    2    0    0  0.38347147863E-02  0.11477463076E-01 -0.19529169918E-01  0.22974456987E-01  0.00000000000E+00 0. -1.
     999901    1    3    3    0    0 -0.95222803921E-01  0.69984938507E-01 -0.27878166400E-01  0.88833691028E+00  0.88000000000E+00 0. -1.
        -11    1    4    4    0    0  0.57859016178E-01 -0.48519395736E-01  0.38553550920E-01  0.84784638498E-01  0.51100000000E-03 0.  1.
         11    1    4    4    0    0  0.33529072957E-01 -0.32943005847E-01  0.88537853986E-02  0.47833994235E-01  0.51100000000E-03 0. -1.
</event>
<event>
 8    1  0.1088270E+005  0.1043930E+01  0.7957747E-01            NaN
         13   -1    0    0    0    0  0.00000000000E+00  0.00000000000E+00  0.74505805969E-08  0.10566000000E+00  0.10566000000E+00 0.  1.
     999900   -1    0    0    0    0 -0.00000000000E+00 -0.00000000000E+00 -0.74505805969E-08  0.93827000000E+00  0.93827000000E+00 0.  1.
     999902    2    1    2    0    0 -0.15462204555E-01  0.14603221598E-01  0.87348789793E-02  0.10209380022E+01  0.10206790742E+01 0.  0.
     999903    2    3    3    0    0  0.50716297834E-01 -0.83778400387E-01 -0.80900612300E-01  0.12847340404E+00  0.19223507426E-01 0.  0.
         14    1    1    2    0    0  0.15462204555E-01 -0.14603221598E-01 -0.87348789793E-02  0.22991997771E-01  0.00000000000E+00 0. -1.
     999901    1    3    3    0    0 -0.66178502389E-01  0.98381621985E-01  0.89635491280E-01  0.89246459819E+00  0.88000000000E+00 0. -1.
        -11    1    4    4    0    0 -0.76208168687E-03 -0.85746026980E-02 -0.59720665724E-02  0.10489579595E-01  0.51100000000E-03 0. -1.
         11    1    4    4    0    0  0.51478379521E-01 -0.75203797689E-01 -0.74928545728E-01  0.11798382445E+00  0.51100000000E-03 0.  1.
</event>
<event>
 8    1  0.1088270E+005  0.1043930E+01  0.7957747E-01            NaN
         13   -1    0    0    0    0  0.00000000000E+00  0.00000000000E+00  0.74505805969E-08  0.10566000000E+00  0.10566000000E+00 0. -1.
     999900   -1    0    0    0    0 -0.00000000000E+00 -0.00000000000E+00 -0.74505805969E-08  0.93827000000E+00  0.93827000000E+00 0.  1.
     999902    2    1    2    0    0  0.20556463925E-01  0.11397967314E-01 -0.58235379039E-02  0.10197143963E+01  0.10194268265E+01 0.  0.
     999903    2    3    3    0    0 -0.83877207144E-01 -0.64062760177E-01 -0.69583182976E-01  0.12804965810E+00  0.20383141705E-01 0.  0.
         14    1    1    2    0    0 -0.20556463925E-01 -0.11397967314E-01  0.58235379039E-02  0.24215603683E-01  0.00000000000E+00 0.  1.
     999901    1    3    3    0    0  0.10443367107E+00  0.75460727491E-01  0.63759645072E-01  0.89166473822E+00  0.88000000000E+00 0. -1.
        -11    1    4    4    0    0 -0.40291249915E-01 -0.28876962672E-01 -0.20773103959E-01  0.53749853599E-01  0.51100000000E-03 0. -1.
         11    1    4    4    0    0 -0.43585957229E-01 -0.35185797505E-01 -0.48810079017E-01  0.74299804497E-01  0.51100000000E-03 0.  1.
</event>
<event>
 8    1  0.1088270E+005  0.1043930E+01  0.7957747E-01            NaN
         13   -1    0    0    0    0  0.00000000000E+00  0.00000000000E+00  0.74505805969E-08  0.10566000000E+00  0.10566000000E+00 0.  1.
     999900   -1    0    0    0    0 -0.00000000000E+00 -0.00000000000E+00 -0.74505805969E-08  0.93827000000E+00  0.93827000000E+00 0.  1.
     999902    2    1    2    0    0  0.12403493821E-01  0.15419530931E-01  0.14664236252E-01  0.10192997662E+01  0.10190021418E+01 0.  0.
     999903    2    3    3    0    0 -0.85700136754E-01  0.67855520464E-01 -0.64836084727E-01  0.12874142651E+00  0.20536599497E-01 0.  0.
         14    1    1    2    0    0 -0.12403493821E-01 -0.15419530931E-01 -0.14664236252E-01  0.24630233818E-01  0.00000000000E+00 0. -1.
     999901    1    3    3    0    0  0.98103630575E-01 -0.52435989534E-01  0.79500320979E-01  0.89055833968E+00  0.88000000000E+00 0.  1.
        -11    1    4    4    0    0 -0.61491737092E-01  0.40557140467E-01 -0.34755442645E-01  0.81451318515E-01  0.51100000000E-03 0.  1.
         11    1    4    4    0    0 -0.24208399662E-01  0.27298379997E-01 -0.30080642082E-01  0.47290107991E-01  0.51100000000E-03 0. -1.
</event>
<event>
 8    1  0.1088270E+005  0.1043930E+01  0.7957747E-01            NaN
         13   -1    0    0    0    0  0.00000000000E+00  0.00000000000E+00  0.74505805969E-08  0.10566000000E+00  0.10566000000E+00 0.  1.
     999900   -1    0    0    0    0 -0.00000000000E+00 -0.00000000000E+00 -0.74505805969E-08  0.93827000000E+00  0.93827000000E+00 0. -1.
     999902    2    1    2    0    0  0.18047682252E-01  0.77266038194E-02 -0.87939059835E-02  0.10224183282E+01  0.10221920005E+01 0.  0.
     999903    2    3    3    0    0  0.24777914562E-01 -0.31405156069E-02 -0.13023731598E+00  0.13398606171E+00  0.19149369946E-01 0.  0.
         14    1    1    2    0    0 -0.18047682252E-01 -0.77266038194E-02  0.87939059835E-02  0.21511671801E-01  0.00000000000E+00 0. -1.
     999901    1    3    3    0    0 -0.67302323102E-02  0.10867119426E-01  0.12144341000E+00  0.88843226649E+00  0.88000000000E+00 0.  1.
        -11    1    4    4    0    0  0.27238731036E-01  0.13515598520E-03 -0.10917846735E+00  0.11252628844E+00  0.51100000000E-03 0.  1.
         11    1    4    4    0    0 -0.24608164739E-02 -0.32756715921E-02 -0.21058848632E-01  0.21459773270E-01  0.51100000000E-03 0. -1.
</event>
<event>
 8    1  0.1088270E+005  0.1043930E+01  0.7957747E-01            NaN
         13   -1    0    0    0    0  0.00000000000E+00  0.00000000000E+00  0.74505805969E-08  0.10566000000E+00  0.10566000000E+00 0. -1.
     999900   -1    0    0    0    0 -0.00000000000E+00 -0.00000000000E+00 -0.74505805969E-08  0.93827000000E+00  0.93827000000E+00 0. -1.
     999902    2    1    2    0    0 -0.42418353288E-02 -0.25378963694E-01 -0.62837294615E-02  0.10174428291E+01  0.10170979994E+01 0.  0.
     999903    2    3    3    0    0 -0.62449484831E-01  0.55463594088E-01  0.92653632596E-01  0.12631306797E+00  0.19853137806E-01 0.  0.
         14    1    1    2    0    0  0.42418353288E-02  0.25378963694E-01  0.62837294615E-02  0.26487170878E-01  0.00000000000E+00 0.  1.
     999901    1    3    3    0    0  0.58207649502E-01 -0.80842557782E-01 -0.98937362057E-01  0.89112976116E+00  0.88000000000E+00 0. -1.
        -11    1    4    4    0    0 -0.34908657144E-01  0.36991220193E-01  0.68331273474E-01  0.85184439721E-01  0.51100000000E-03 0. -1.
         11    1    4    4    0    0 -0.27540827687E-01  0.18472373894E-01  0.24322359121E-01  0.41128628244E-01  0.51100000000E-03 0.  1.
</event>
<event>
 8    1  0.1088270E+005  0.1043930E+01  0.7957747E-01            NaN
         13   -1    0    0    0    0  0.00000000000E+00  0.00000000000E+00  0.74505805969E-08  0.10566000000E+00  0.10566000000E+00 0. -1.
     999900   -1    0    0    0    0 -0.00000000000E+00 -0.00000000000E+00 -0.74505805969E-08  0.93827000000E+00  0.93827000000E+00 0. -1.
     999902    2    1    2    0    0 -0.17608774545E-01  0.17240686729E-01 -0.34940656529E-02  0.10190398671E+01  0.10187358500E+01 0.  0.
     999903    2    3    3    0    0  0.62407793135E-01  0.93578193519E-01  0.61391816048E-01  0.12974787700E+00  0.20345652186E-01 0.  0.
         14    1    1    2    0    0  0.17608774545E-01 -0.17240686729E-01  0.34940656529E-02  0.24890132877E-01  0.00000000000E+00 0.  1.
     999901    1    3    3    0    0 -0.80016567680E-01 -0.76337506791E-01 -0.64885881701E-01  0.88929199012E+00  0.88000000000E+00 0. -1.
        -11    1    4    4    0    0  0.15982792990E-01  0.10628731686E-01  0.11693014214E-01  0.22481265788E-01  0.51100000000E-03 0. -1.
         11    1    4    4    0    0  0.46425000144E-01  0.82949461833E-01  0.49698801834E-01  0.10726661122E+00  0.51100000000E-03 0.  1.
</event>
<event>
 8    1  0.1088270E+005  0.1043930E+01  0.7957747E-01            NaN
         13   -1    0    0    0    0  0.00000000000E+00  0.00000000000E+00  0.74505805969E-08  0.10566000000E+00  0.10566000000E+00 0.  1.
     999900   -1    0    0    0    0 -0.00000000000E+00 -0.00000000000E+00 -0.74505805969E-08  0.93827000000E+00  0.93827000000E+00 0.  1.
     999902    2    1    2    0    0 -0.32536707234E-02 -0.24521985028E-01  0.85666937760E-02  0.10177517196E+01  0.10174149893E+01 0.  0.
     999903    2    3    3    0    0  0.11885666012E+00  0.12118602251E-01  0.41297217851E-01  0.12796255763E+00  0.19879380748E-01 0.  0.
         14    1    1    2    0    0  0.32536707234E-02  0.24521985028E-01 -0.85666937760E-02  0.26178280408E-01  0.00000000000E+00 0. -1.
     999901    1    3    3    0    0 -0.12211033084E+00 -0.36640587279E-01 -0.32730524075E-01  0.88978916196E+00  0.88000000000E+00 0.  1.
        -11    1    4    4    0    0  0.62343859772E-01  0.12506511220E-01  0.30079914637E-01  0.70343671071E-01  0.51100000000E-03 0. -1.
         11    1    4    4    0    0  0.56512800345E-01 -0.38790896886E-03  0.11217303214E-01  0.57618886561E-01  0.51100000000E-03 0.  1.
</event>
<event>
 8    1  0.1088270E+005  0.1043930E+01  0.7957747E-01            NaN
         13   -1    0    0    0    0  0.00000000000E+00  0.00000000000E+00  0.74505805969E-08  0.10566000000E+00  0.10566000000E+00 0. -1.
     999900   -1    0    0    0    0 -0.00000000000E+00 -0.00000000000E+00 -0.74505805969E-08  0.93827000000E+00  0.93827000000E+00 0. -1.
     999902    2    1    2    0    0 -0.78670148712E-02  0.18719894282E-01  0.11101762218E-01  0.10207875393E+01  0.10205251721E+01 0.  0.
     999903    2    3    3    0    0  0.12476016241E+00  0.34844731192E-01  0.42640375064E-03  0.13063926970E+00  0.16946490850E-01 0.  0.
         14    1    1    2    0    0  0.78670148712E-02 -0.18719894282E-01 -0.11101762218E-01  0.23142460744E-01  0.00000000000E+00 0.  1.
     999901    1    3    3    0    0 -0.13262717728E+00 -0.16124836910E-01  0.10675358467E-01  0.89014826956E+00  0.88000000000E+00 0. -1.
        -11    1    4    4    0    0  0.25863607997E-01  0.37865168804E-02  0.60199442455E-02  0.26828432277E-01  0.51100000000E-03 0.  1.
         11    1    4    4    0    0  0.98896554408E-01  0.31058214312E-01 -0.55935404949E-02  0.10381083742E+00  0.51100000000E-03 0. -1.
</event>
<event>
 8    1  0.1088270E+005  0.1043930E+01  0.7957747E-01            NaN
         13   -1    0    0    0    0  0.00000000000E+00  0.00000000000E+00  0.74505805969E-08  0.10566000000E+00  0.10566000000E+00 0.  1.
     999900   -1    0    0    0    0 -0.00000000000E+00 -0.00000000000E+00 -0.74505805969E-08  0.93827000000E+00  0.93827000000E+00 0.  1.
     999902    2    1    2    0    0  0.13429158426E-01 -0.11062468101E-01 -0.11935705147E-01  0.10228306741E+01  0.10226130286E+01 0.  0.
     999903    2    3    3    0    0  0.11764992623E+00 -0.50768548237E-01 -0.40038150366E-01  0.13534642709E+00  0.17223565524E-01 0.  0.
         14    1    1    2    0    0 -0.13429158426E-01  0.11062468101E-01  0.11935705147E-01  0.21099325910E-01  0.00000000000E+00 0. -1.
     999901    1    3    3    0    0 -0.10422076781E+00  0.39706080136E-01  0.28102445218E-01  0.88748424700E+00  0.88000000000E+00 0. -1.
        -11    1    4    4    0    0  0.55410678399E-01 -0.14990821663E-01 -0.20333760634E-01  0.60899843655E-01  0.51100000000E-03 0. -1.
         11    1    4    4    0    0  0.62239247833E-01 -0.35777726574E-01 -0.19704389732E-01  0.74446583436E-01  0.51100000000E-03 0.  1.
</event>
<event>
 8    1  0.1088270E+005  0.1043930E+01  0.7957747E-01            NaN
         13   -1    0    0    0    0  0.00000000000E+00  0.00000000000E+00  0.74505805969E-08  0.10566000000E+00  0.10566000000E+00 0. -1.
     999900   -1    0    0    0    0 -0.00000000000E+00 -0.00000000000E+00 -0.74505805969E-08  0.93827000000E+00  0.93827000000E+00 0.  1.
     999902    2    1    2    0    0 -0.15810103525E-01 -0.16208303598E-01 -0.29838115600E-02  0.10210920577E+01  0.10208366268E+01 0.  0.
     999903    2    3    3    0    0 -0.30446258641E-01  0.41415920486E-02  0.12593966116E+00  0.13134512897E+00  0.21133319673E-01 0.  0.
         14    1    1    2    0    0  0.15810103525E-01  0.16208303598E-01  0.29838115600E-02  0.22837942342E-01  0.00000000000E+00 0. -1.
     999901    1    3    3    0    0  0.14636155116E-01 -0.20349895646E-01 -0.12892347272E+00  0.88974692869E+00  0.88000000000E+00 0.  1.
        -11    1    4    4    0    0 -0.10950515699E-01  0.11929165652E-01  0.59450626166E-01  0.61618640522E-01  0.51100000000E-03 0. -1.
         11    1    4    4    0    0 -0.19495742942E-01 -0.77875736038E-02  0.66489034997E-01  0.69726488448E-01  0.51100000000E-03 0.  1.
</event>
<event>
 8    1  0.1088270E+005  0.1043930E+01  0.7957747E-01            NaN
         13   -1    0    0    0    0  0.00000000000E+00  0.00000000000E+00  0.74505805969E-08  0.10566000000E+00  0.10566000000E+00 0.  1.
     999900   -1    0    0    0    0 -0.00000000000E+00 -0.00000000000E+00 -0.74505805969E-08  0.93827000000E+00  0.93827000000E+00 0.  1.
     999902    2    1    2    0    0  0.21740955437E-01 -0.80915122641E-02  0.68064960650E-02  0.10197541835E+01  0.10194675692E+01 0.  0.
     999903    2    3    3    0    0  0.69781571984E-01  0.66118668175E-01 -0.85933345900E-01  0.13047597620E+00  0.19957313393E-01 0.  0.
         14    1    1    2    0    0 -0.21740955437E-01  0.80915122641E-02 -0.68064960650E-02  0.24175816485E-01  0.00000000000E+00 0. -1.
     999901    1    3    3    0    0 -0.48040616547E-01 -0.74210180439E-01  0.92739841965E-01  0.88927820732E+00  0.88000000000E+00 0. -1.
        -11    1    4    4    0    0  0.23368427327E-01  0.10217166129E-01 -0.23211921310E-01  0.34489538868E-01  0.51100000000E-03 0. -1.
         11    1    4    4    0    0  0.46413144657E-01  0.55901502046E-01 -0.62721424589E-01  0.95986437331E-01  0.51100000000E-03 0.  1.
</event>
<event>
 8    1  0.1088270E+005  0.1043930E+01  0.7957747E-01            NaN
         13   -1    0    0    0    0  0.00000000000E+00  0.00000000000E+00  0.74505805969E-08  0.10566000000E+00  0.10566000000E+00 0.  1.
     999900   -1    0    0    0    0 -0.00000000000E+00 -0.00000000000E+00 -0.74505805969E-08  0.93827000000E+00  0.93827000000E+00 0.  1.
     999902    2    1    2    0    0 -0.14146988684E-01 -0.66758261412E-02  0.18215467846E-01  0.10199194354E+01  0.10196367723E+01 0.  0.
     999903    2    3    3    0    0 -0.18471280829E-01 -0.56354792346E-02 -0.12627657828E+00  0.12812476553E+00  0.98607544093E-02 0.  0.
         14    1    1    2    0    0  0.14146988684E-01  0.66758261412E-02 -0.18215467846E-01  0.24010564598E-01  0.00000000000E+00 0. -1.
     999901    1    3    3    0    0  0.43242921453E-02 -0.10403469066E-02  0.14449204613E+00  0.89179466988E+00  0.88000000000E+00 0. -1.
        -11    1    4    4    0    0 -0.10179144572E-01  0.20011031385E-02 -0.58335542076E-01  0.59252982949E-01  0.51100000000E-03 0.  1.
         11    1    4    4    0    0 -0.82921362571E-02 -0.76365823731E-02 -0.67941036204E-01  0.68871782578E-01  0.51100000000E-03 0. -1.
</event>
<event>
 8    1  0.1088270E+005  0.1043930E+01  0.7957747E-01            NaN
         13   -1    0    0    0    0  0.00000000000E+00  0.00000000000E+00  0.74505805969E-08  0.10566000000E+00  0.10566000000E+00 0. -1.
     999900   -1    0    0    0    0 -0.00000000000E+00 -0.00000000000E+00 -0.74505805969E-08  0.93827000000E+00  0.93827000000E+00 0. -1.
     999902    2    1    2    0    0 -0.25718766786E-02  0.19871229765E-01  0.17370365352E-01  0.10174118946E+01  0.10170662483E+01 0.  0.
     999903    2    3    3    0    0  0.38324411376E-01 -0.77344960330E-03 -0.11830640764E+00  0.12583638130E+00  0.19210154599E-01 0.  0.
         14    1    1    2    0    0  0.25718766786E-02 -0.19871229765E-01 -0.17370365352E-01  0.26518105410E-01  0.00000000000E+00 0. -1.
     999901    1    3    3    0    0 -0.40896288055E-01  0.20644679369E-01  0.13567677299E+00  0.89157551329E+00  0.88000000000E+00 0.  1.
        -11    1    4    4    0    0  0.25018687404E-01 -0.19199745957E-02 -0.46929110861E-01  0.53218639489E-01  0.51100000000E-03 0. -1.
         11    1    4    4    0    0  0.13305723972E-01  0.11465249924E-02 -0.71377296778E-01  0.72617741815E-01  0.51100000000E-03 0.  1.
</event>
<event>
 8    1  0.1088270E+005  0.1043930E+01  0.7957747E-01            NaN
         13   -1    0    0    0    0  0.00000000000E+00  0.00000000000E+00  0.74505805969E-08  0.10566000000E+00  0.10566000000E+00 0.  1.
     999900   -1    0    0    0    0 -0.00000000000E+00 -0.00000000000E+00 -0.74505805969E-08  0.93827000000E+00  0.93827000000E+00 0. -1.
     999902    2    1    2    0    0 -0.17050530450E-01  0.14460633903E-01 -0.70438971791E-02  0.10204897140E+01  0.10202204709E+01 0.  0.
     999903    2    3    3    0    0  0.61645774657E-01  0.11223031737E+00 -0.22271494635E-01  0.13145433832E+00  0.19707306254E-01 0.  0.
         14    1    1    2    0    0  0.17050530450E-01 -0.14460633903E-01  0.70438971791E-02  0.23440286026E-01  0.00000000000E+00 0. -1.
     999901    1    3    3    0    0 -0.78696305106E-01 -0.97769683466E-01  0.15227597456E-01  0.88903537566E+00  0.88000000000E+00 0. -1.
        -11    1    4    4    0    0  0.34415535784E-01  0.55177530960E-01 -0.19985871850E-02  0.65063388306E-01  0.51100000000E-03 0.  1.
         11    1    4    4    0    0  0.27230238872E-01  0.57052786410E-01 -0.20272907450E-01  0.66390950013E-01  0.51100000000E-03 0. -1.
</event>
<event>
 8    1  0.1088270E+005  0.1043930E+01  0.7957747E-01            NaN
         13   -1    0    0    0    0  0.00000000000E+00  0.00000000000E+00  0.74505805969E-08  0.10566000000E+00  0.10566000000E+00 0.  1.
     999900   -1    0    0    0    0 -0.00000000000E+00 -0.00000000000E+00 -0.74505805969E-08  0.93827000000E+00  0.93827000000E+00 0. -1.
     999902    2    1    2    0    0  0.79196069959E-02  0.58697570350E-02  0.21896351324E-01  0.10199169947E+01  0.10196342735E+01 0.  0.
     999903    2    3    3    0    0 -0.11704193553E+00 -0.25797858235E-01  0.46614459019E-01  0.13018152287E+00  0.20247887434E-01 0.  0.
         14    1    1    2    0    0 -0.79196069959E-02 -0.58697570350E-02 -0.21896351324E-01  0.24013005308E-01  0.00000000000E+00 0. -1.
     999901    1    3    3    0    0  0.12496154253E+00  0.31667615270E-01 -0.24718107695E-01  0.88973547182E+00  0.88000000000E+00 0. -1.
        -11    1    4    4    0    0 -0.10288032851E+00 -0.15592709251E-01  0.38890370154E-01  0.11108652748E+00  0.51100000000E-03 0. -1.
         11    1    4    4    0    0 -0.14161607018E-01 -0.10205148984E-01  0.77240888648E-02  0.19094995389E-01  0.51100000000E-03 0.  1.
</event>
<event>
 8    1  0.1880271E+005  0.1043930E+01  0.7957747E-01            NaN
         13   -1    0    0    0    0  0.00000000000E+00  0.00000000000E+00  0.74505805969E-08  0.10566000000E+00  0.10566000000E+00 0. -1.
     999900   -1    0    0    0    0 -0.00000000000E+00 -0.00000000000E+00 -0.74505805969E-08  0.93827000000E+00  0.93827000000E+00 0.  1.
     999902    2    1    2    0    0  0.24594406405E-02  0.15821075060E-03 -0.23802148415E-01  0.10200006008E+01  0.10197198681E+01 0.  0.
     999903    2    3    3    0    0 -0.75299907550E-01 -0.10209955398E+00 -0.23806519831E-01  0.13067323319E+00  0.20355551734E-01 0.  0.
         14    1    1    2    0    0 -0.24594406405E-02 -0.15821075060E-03  0.23802148415E-01  0.23929399242E-01  0.00000000000E+00 0. -1.
     999901    1    3    3    0    0  0.77759348190E-01  0.10225776473E+00  0.43714157690E-05  0.88932736756E+00  0.88000000000E+00 0. -1.
        -11    1    4    4    0    0 -0.45561281111E-01 -0.66150245398E-01 -0.53661615496E-02  0.80503056547E-01  0.51100000000E-03 0. -1.
         11    1    4    4    0    0 -0.29738626439E-01 -0.35949308585E-01 -0.18440358282E-01  0.50170176647E-01  0.51100000000E-03 0.  1.
</event>
<event>
 8    1  0.1088270E+005  0.1043930E+01  0.7957747E-01            NaN
         13   -1    0    0    0    0  0.00000000000E+00  0.00000000000E+00  0.74505805969E-08  0.10566000000E+00  0.10566000000E+00 0. -1.
     999900   -1    0    0    0    0 -0.00000000000E+00 -0.00000000000E+00 -0.74505805969E-08  0.93827000000E+00  0.93827000000E+00 0.  1.
     999902    2    1    2    0    0  0.63053624371E-02 -0.11536780608E-02 -0.22678503719E-01  0.10203630083E+01  0.10200908124E+01 0.  0.
     999903    2    3    3    0    0  0.35104604193E-01 -0.10070881622E+00  0.69034785659E-01  0.12954767987E+00  0.25341681640E-01 0.  0.
         14    1    1    2    0    0 -0.63053624371E-02  0.11536780608E-02  0.22678503719E-01  0.23566991735E-01  0.00000000000E+00 0. -1.
     999901    1    3    3    0    0 -0.28799241756E-01  0.99555138157E-01 -0.91713289378E-01  0.89081532840E+00  0.88000000000E+00 0.  1.
        -11    1    4    4    0    0 -0.68420832448E-03 -0.26459481811E-01  0.23396465933E-01  0.35330271127E-01  0.51100000000E-03 0.  1.
         11    1    4    4    0    0  0.35788812518E-01 -0.74249334407E-01  0.45638319726E-01  0.94217408741E-01  0.51100000000E-03 0. -1.
</event>
<event>
 8    1  0.1088270E+005  0.1043930E+01  0.7957747E-01            NaN
         13   -1    0    0    0    0  0.00000000000E+00  0.00000000000E+00  0.74505805969E-08  0.10566000000E+00  0.10566000000E+00 0. -1.
     999900   -1    0    0    0    0 -0.00000000000E+00 -0.00000000000E+00 -0.74505805969E-08  0.93827000000E+00  0.93827000000E+00 0. -1.
     999902    2    1    2    0    0  0.22165395172E-01  0.49200881198E-02 -0.21714548955E-02  0.10211215098E+01  0.10208667447E+01 0.  0.
     999903    2    3    3    0    0  0.13082505633E+00 -0.18931120262E-01 -0.10102838006E-01  0.13408221586E+00  0.20059675841E-01 0.  0.
         14    1    1    2    0    0 -0.22165395172E-01 -0.49200881198E-02  0.21714548955E-02  0.22808490231E-01  0.00000000000E+00 0. -1.
     999901    1    3    3    0    0 -0.10865966116E+00  0.23851208382E-01  0.79313831107E-02  0.88703929391E+00  0.88000000000E+00 0. -1.
        -11    1    4    4    0    0  0.58704847704E-01 -0.15733920519E-01 -0.11589740701E-01  0.61874054411E-01  0.51100000000E-03 0.  1.
         11    1    4    4    0    0  0.72120208629E-01 -0.31971997434E-02  0.14869026949E-02  0.72208161446E-01  0.51100000000E-03 0. -1.
</event>
<event>
 8    1  0.1088270E+005  0.1043930E+01  0.7957747E-01            NaN
         13   -1    0    0    0    0  0.00000000000E+00  0.00000000000E+00  0.74505805969E-08  0.10566000000E+00  0.10566000000E+00 0.  1.
     999900   -1    0    0    0    0 -0.00000000000E+00 -0.00000000000E+00 -0.74505805969E-08  0.93827000000E+00  0.93827000000E+00 0.  1.
     999902    2    1    2    0    0  0.56939713955E-02  0.22869631374E-01 -0.40129138603E-02  0.10200229963E+01  0.10197427951E+01 0.  0.
     999903    2    3    3    0    0 -0.51996637295E-01  0.11963164096E+00  0.13412473856E-01  0.13267033979E+00  0.20153034439E-01 0.  0.
         14    1    1    2    0    0 -0.56939713955E-02 -0.22869631374E-01  0.40129138603E-02  0.23907003725E-01  0.00000000000E+00 0. -1.
     999901    1    3    3    0    0  0.57690608691E-01 -0.96762009585E-01 -0.17425387716E-01  0.88735265648E+00  0.88000000000E+00 0.  1.
        -11    1    4    4    0    0 -0.19329564412E-01  0.63231891670E-01  0.13523073446E-01  0.67491027707E-01  0.51100000000E-03 0.  1.
         11    1    4    4    0    0 -0.32667072884E-01  0.56399749290E-01 -0.11059959038E-03  0.65179312086E-01  0.51100000000E-03 0. -1.
</event>
<event>
 8    1  0.1088270E+005  0.1043930E+01  0.7957747E-01            NaN
         13   -1    0    0    0    0  0.00000000000E+00  0.00000000000E+00  0.74505805969E-08  0.10566000000E+00  0.10566000000E+00 0.  1.
     999900   -1    0    0    0    0 -0.00000000000E+00 -0.00000000000E+00 -0.74505805969E-08  0.93827000000E+00  0.93827000000E+00 0. -1.
     999902    2    1    2    0    0  0.83082725519E-02  0.23597726464E-02 -0.22279275791E-01  0.10200351878E+01  0.10197552757E+01 0.  0.
     999903    2    3    3    0    0 -0.41616448723E-01  0.10020499256E+00  0.66652686575E-01  0.12875798133E+00  0.19054337852E-01 0.  0.
         14    1    1    2    0    0 -0.83082725519E-02 -0.23597726464E-02  0.22279275791E-01  0.23894812189E-01  0.00000000000E+00 0.  1.
     999901    1    3    3    0    0  0.49924721275E-01 -0.97845219916E-01 -0.88931962366E-01  0.89127720648E+00  0.88000000000E+00 0.  1.
        -11    1    4    4    0    0 -0.30077533259E-01  0.85662654198E-01  0.60868803152E-01  0.10930700183E+00  0.51100000000E-03 0.  1.
         11    1    4    4    0    0 -0.11538915464E-01  0.14542338365E-01  0.57838834229E-02  0.19450979504E-01  0.51100000000E-03 0. -1.
</event>
<event>
 8    1  0.1088270E+005  0.1043930E+01  0.7957747E-01            NaN
         13   -1    0    0    0    0  0.00000000000E+00  0.00000000000E+00  0.74505805969E-08  0.10566000000E+00  0.10566000000E+00 0.  1.
     999900   -1    0    0    0    0 -0.00000000000E+00 -0.00000000000E+00 -0.74505805969E-08  0.93827000000E+00  0.93827000000E+00 0. -1.
     999902    2    1    2    0    0 -0.15869037627E-01 -0.90339299858E-02 -0.12578692350E-01  0.10217565531E+01  0.10215159284E+01 0.  0.
     999903    2    3    3    0    0  0.53781363563E-01  0.44020944110E-01  0.10718562828E+00  0.12933877507E+00  0.20235642773E-01 0.  0.
         14    1    1    2    0    0  0.15869037627E-01  0.90339299858E-02  0.12578692350E-01  0.22173446899E-01  0.00000000000E+00 0.  1.
     999901    1    3    3    0    0 -0.69650401189E-01 -0.53054874096E-01 -0.11976432063E+00  0.89241777803E+00  0.88000000000E+00 0. -1.
        -11    1    4    4    0    0  0.36451688760E-01  0.19174308138E-01  0.51515762857E-01  0.65958431225E-01  0.51100000000E-03 0.  1.
         11    1    4    4    0    0  0.17329674803E-01  0.24846635972E-01  0.55669865428E-01  0.63380343843E-01  0.51100000000E-03 0. -1.
</event>
<event>
 8    1  0.1088270E+005  0.1043930E+01  0.7957747E-01            NaN
         13   -1    0    0    0    0  0.00000000000E+00  0.00000000000E+00  0.74505805969E-08  0.10566000000E+00  0.10566000000E+00 0.  1.
     999900   -1    0    0    0    0 -0.00000000000E+00 -0.00000000000E+00 -0.74505805969E-08  0.93827000000E+00  0.93827000000E+00 0. -1.
     999902    2    1    2    0    0 -0.17386624279E-01  0.86949821534E-02 -0.13915833116E-01  0.10200229335E+01  0.10197427308E+01 0.  0.
     999903    2    3    3    0    0 -0.62163320812E-01 -0.11318132567E+00 -0.50846676566E-02  0.13045181409E+00  0.17819400067E-01 0.  0.
         14    1    1    2    0    0  0.17386624279E-01 -0.86949821534E-02  0.13915833116E-01  0.23907066524E-01  0.00000000000E+00 0.  1.
     999901    1    3    3    0    0  0.44776696533E-01  0.12187630783E+00 -0.88311654596E-02  0.88957111939E+00  0.88000000000E+00 0.  1.
        -11    1    4    4    0    0 -0.23208842308E-01 -0.44491733023E-01  0.66280861179E-02  0.50619732469E-01  0.51100000000E-03 0.  1.
         11    1    4    4    0    0 -0.38954478503E-01 -0.68689592651E-01 -0.11712753775E-01  0.79832081621E-01  0.51100000000E-03 0. -1.
</event>
<event>
 7    1  0.1088270E+005  0.1043930E+01  0.7957747E-01            NaN
         13   -1    0    0    0    0  0.00000000000E+00  0.00000000000E+00  0.74505805969E-08  0.10566000000E+00  0.10566000000E+00 0.  1.
     999900   -1    0    0    0    0 -0.00000000000E+00 -0.00000000000E+00 -0.74505805969E-08  0.93827000000E+00  0.93827000000E+00 0.  1.
     999902    2    1    2    0    0 -0.10906419267E-01  0.64956772293E-02 -0.18260101731E-01  0.10216909551E+01  0.10214488889E+01 0.  0.
         14    1    1    2    0    0  0.10906419267E-01 -0.64956772293E-02  0.18260101731E-01  0.22239044924E-01  0.00000000000E+00 0.  1.
     999901    1    3    3    0    0 -0.11276373689E+00 -0.37816157096E-01 -0.23053449109E-01  0.88830016527E+00  0.88000000000E+00 0. -1.
        -11    1    3    3    0    0  0.29115557566E-01  0.13191734492E-01 -0.32792131358E-01  0.45796534272E-01  0.51100000000E-03 0. -1.
         11    1    3    3    0    0  0.72741760062E-01  0.31120099833E-01  0.37585478735E-01  0.87594255538E-01  0.51100000000E-03 0.  1.
</event>
<event>
 8    1  0.1088270E+005  0.1043930E+01  0.7957747E-01            NaN
         13   -1    0    0    0    0  0.00000000000E+00  0.00000000000E+00  0.74505805969E-08  0.10566000000E+00  0.10566000000E+00 0. -1.
     999900   -1    0    0    0    0 -0.00000000000E+00 -0.00000000000E+00 -0.74505805969E-08  0.93827000000E+00  0.93827000000E+00 0. -1.
     999902    2    1    2    0    0  0.21038801214E-01 -0.97630314603E-02  0.63826072906E-02  0.10198741147E+01  0.10195903708E+01 0.  0.
     999903    2    3    3    0    0  0.98887216758E-01  0.79524425334E-01  0.28783237839E-01  0.13165431424E+00  0.20039157064E-01 0.  0.
         14    1    1    2    0    0 -0.21038801214E-01  0.97630314603E-02 -0.63826072906E-02  0.24055885260E-01  0.00000000000E+00 0.  1.
     999901    1    3    3    0    0 -0.77848415544E-01 -0.89287456795E-01 -0.22400630549E-01  0.88821980050E+00  0.88000000000E+00 0.  1.
        -11    1    4    4    0    0  0.40755546784E-01  0.35824314782E-01  0.24958827648E-02  0.54322064348E-01  0.51100000000E-03 0.  1.
         11    1    4    4    0    0  0.58131669974E-01  0.43700110553E-01  0.26287355075E-01  0.77332249897E-01  0.51100000000E-03 0. -1.
</event>
<event>
 8    1  0.1088270E+005  0.1043930E+01  0.7957747E-01            NaN
         13   -1    0    0    0    0  0.00000000000E+00  0.00000000000E+00  0.74505805969E-08  0.10566000000E+00  0.10566000000E+00 0.  1.
     999900   -1    0    0    0    0 -0.00000000000E+00 -0.00000000000E+00 -0.74505805969E-08  0.93827000000E+00  0.93827000000E+00 0.  1.
     999902    2    1    2    0    0 -0.22101202848E-01  0.90690621822E-02  0.59814890790E-02  0.10193029972E+01  0.10190054518E+01 0.  0.
     999903    2    3    3    0    0 -0.71205945837E-01  0.96437594788E-01 -0.51176149147E-01  0.13177185301E+00  0.19347521602E-01 0.  0.
         14    1    1    2    0    0  0.22101202848E-01 -0.90690621822E-02 -0.59814890790E-02  0.24627002818E-01  0.00000000000E+00 0.  1.
     999901    1    3    3    0    0  0.49104742989E-01 -0.87368532606E-01  0.57157638227E-01  0.88753114418E+00  0.88000000000E+00 0. -1.
        -11    1    4    4    0    0 -0.40667073049E-01  0.41343267797E-01 -0.18940685378E-01  0.61008911694E-01  0.51100000000E-03 0. -1.
         11    1    4    4    0    0 -0.30538872788E-01  0.55094326991E-01 -0.32235463769E-01  0.70762941312E-01  0.51100000000E-03 0.  1.
</event>
<event>
 8    1  0.1088270E+005  0.1043930E+01  0.7957747E-01            NaN
         13   -1    0    0    0    0  0.00000000000E+00  0.00000000000E+00  0.74505805969E-08  0.10566000000E+00  0.10566000000E+00 0. -1.
     999900   -1    0    0    0    0 -0.00000000000E+00 -0.00000000000E+00 -0.74505805969E-08  0.93827000000E+00  0.93827000000E+00 0.  1.
     999902    2    1    2    0    0  0.22543964039E-01  0.14359280965E-02  0.66291532784E-02  0.10203877427E+01  0.10201161246E+01 0.  0.
     999903    2    3    3    0    0  0.66143476122E-01  0.96283200834E-01  0.60099711548E-01  0.13260622501E+00  0.18083732692E-01 0.  0.
         14    1    1    2    0    0 -0.22543964039E-01 -0.14359280965E-02 -0.66291532784E-02  0.23542257268E-01  0.00000000000E+00 0.  1.
     999901    1    3    3    0    0 -0.43599512083E-01 -0.94847272737E-01 -0.53470558269E-01  0.88778151772E+00  0.88000000000E+00 0. -1.
        -11    1    4    4    0    0  0.16740871277E-01  0.14482521201E-01  0.66872465195E-02  0.23129647176E-01  0.51100000000E-03 0.  1.
         11    1    4    4    0    0  0.49402604845E-01  0.81800679632E-01  0.53412465028E-01  0.10947657784E+00  0.51100000000E-03 0. -1.
</event>
<event>
 8    1  0.1088270E+005  0.1043930E+01  0.7957747E-01            NaN
         13   -1    0    0    0    0  0.00000000000E+00  0.00000000000E+00  0.74505805969E-08  0.10566000000E+00  0.10566000000E+00 0. -1.
     999900   -1    0    0    0    0 -0.00000000000E+00 -0.00000000000E+00 -0.74505805969E-08  0.93827000000E+00  0.93827000000E+00 0. -1.
     999902    2    1    2    0    0  0.11250461018E-02 -0.23079835216E-01 -0.27227077580E-02  0.10206629061E+01  0.10203976726E+01 0.  0.
     999903    2    3    3    0    0  0.30300250599E-01  0.11956262133E+00  0.28398920748E-01  0.12815709728E+00  0.20110128764E-01 0.  0.
         14    1    1    2    0    0 -0.11250461018E-02  0.23079835216E-01  0.27227077580E-02  0.23267093928E-01  0.00000000000E+00 0. -1.
     999901    1    3    3    0    0 -0.29175204498E-01 -0.14264245654E+00 -0.31121628506E-01  0.89250580879E+00  0.88000000000E+00 0. -1.
        -11    1    4    4    0    0  0.67483235879E-02  0.66115556765E-01  0.17690715733E-01  0.68775208192E-01  0.51100000000E-03 0. -1.
         11    1    4    4    0    0  0.23551927012E-01  0.53447064561E-01  0.10708205016E-01  0.59381889089E-01  0.51100000000E-03 0.  1.
</event>
<event>
 8    1  0.1088270E+005  0.1043930E+01  0.7957747E-01            NaN
         13   -1    0    0    0    0  0.00000000000E+00  0.00000000000E+00  0.74505805969E-08  0.10566000000E+00  0.10566000000E+00 0. -1.
     999900   -1    0    0    0    0 -0.00000000000E+00 -0.00000000000E+00 -0.74505805969E-08  0.93827000000E+00  0.93827000000E+00 0.  1.
     999902    2    1    2    0    0  0.11600322763E-01 -0.24926881817E-02  0.20207574258E-01  0.10204965402E+01  0.10202274557E+01 0.  0.
     999903    2    3    3    0    0 -0.50104911422E-01 -0.11743914281E+00  0.19196729021E-01  0.13087794483E+00  0.21402514445E-01 0.  0.
         14    1    1    2    0    0 -0.11600322763E-01  0.24926881817E-02 -0.20207574258E-01  0.23433459837E-01  0.00000000000E+00 0.  1.
     999901    1    3    3    0    0  0.61705234184E-01  0.11494645463E+00  0.10108452367E-02  0.88961859533E+00  0.88000000000E+00 0. -1.
        -11    1    4    4    0    0 -0.83769371189E-02 -0.19100521829E-01 -0.47571220358E-02  0.21398465849E-01  0.51100000000E-03 0.  1.
         11    1    4    4    0    0 -0.41727974303E-01 -0.98338620981E-01  0.23953851057E-01  0.10947947898E+00  0.51100000000E-03 0. -1.
</event>
<event>
 8    1  0.1088270E+005  0.1043930E+01  0.7957747E-01            NaN
         13   -1    0    0    0    0  0.00000000000E+00  0.00000000000E+00  0.74505805969E-08  0.10566000000E+00  0.10566000000E+00 0.  1.
     999900   -1    0    0    0    0 -0.00000000000E+00 -0.00000000000E+00 -0.74505805969E-08  0.93827000000E+00  0.93827000000E+00 0. -1.
     999902    2    1    2    0    0 -0.22223408609E-01 -0.64471278280E-02  0.54975915607E-02  0.10201462059E+01  0.10198689193E+01 0.  0.
     999903    2    3    3    0    0 -0.33746844610E-02 -0.12877005378E+00  0.13286717983E-01  0.13145118338E+00  0.22577898319E-01 0.  0.
         14    1    1    2    0    0  0.22223408609E-01  0.64471278280E-02 -0.54975915607E-02  0.23783794070E-01  0.00000000000E+00 0. -1.
     999901    1    3    3    0    0 -0.18848724148E-01  0.12232292595E+00 -0.77891264221E-02  0.88869502255E+00  0.88000000000E+00 0. -1.
        -11    1    4    4    0    0 -0.46804030231E-02 -0.15751802111E-01 -0.44716610797E-02  0.17037673433E-01  0.51100000000E-03 0.  1.
         11    1    4    4    0    0  0.13057185621E-02 -0.11301825167E+00  0.17758379062E-01  0.11441350995E+00  0.51100000000E-03 0. -1.
</event>
<event>
 8    1  0.1088270E+005  0.1043930E+01  0.7957747E-01            NaN
         13   -1    0    0    0    0  0.00000000000E+00  0.00000000000E+00  0.74505805969E-08  0.10566000000E+00  0.10566000000E+00 0. -1.
     999900   -1    0    0    0    0 -0.00000000000E+00 -0.00000000000E+00 -0.74505805969E-08  0.93827000000E+00  0.93827000000E+00 0.  1.
     999902    2    1    2    0    0  0.11595344309E-01  0.17699794007E-01 -0.10790806234E-01  0.10201776061E+01  0.10199010598E+01 0.  0.
     999903    2    3    3    0    0 -0.10287284607E+00 -0.28192297831E-02 -0.77097566052E-01  0.13005369148E+00  0.19471966044E-01 0.  0.
         14    1    1    2    0    0 -0.11595344309E-01 -0.17699794007E-01  0.10790806234E-01  0.23752393915E-01  0.00000000000E+00 0.  1.
     999901    1    3    3    0    0  0.11446819038E+00  0.20519023790E-01  0.66306759819E-01  0.89012391460E+00  0.88000000000E+00 0.  1.
        -11    1    4    4    0    0 -0.23626783718E-01  0.56686197657E-02 -0.11781071896E-01  0.27007645860E-01  0.51100000000E-03 0.  1.
         11    1    4    4    0    0 -0.79246062356E-01 -0.84878495488E-02 -0.65316494156E-01  0.10304604562E+00  0.51100000000E-03 0. -1.
</event>
<event>
 8    1  0.1088270E+005  0.1043930E+01  0.7957747E-01            NaN
         13   -1    0    0    0    0  0.00000000000E+00  0.00000000000E+00  0.74505805969E-08  0.10566000000E+00  0.10566000000E+00 0. -1.
     999900   -1    0    0    0    0 -0.00000000000E+00 -0.00000000000E+00 -0.74505805969E-08  0.93827000000E+00  0.93827000000E+00 0. -1.
     999902    2    1    2    0    0  0.98283580686E-02  0.17910994564E-01 -0.13800435534E-01  0.10192753378E+01  0.10189771155E+01 0.  0.
     999903    2    3    3    0    0  0.49730601244E-01  0.10394591219E-01  0.11659767114E+00  0.12874046953E+00  0.19947715476E-01 0.  0.
         14    1    1    2    0    0 -0.98283580686E-02 -0.17910994564E-01  0.13800435534E-01  0.24654662227E-01  0.00000000000E+00 0.  1.
     999901    1    3    3    0    0 -0.39902243175E-01  0.75164033453E-02 -0.13039810668E+00  0.89053486824E+00  0.88000000000E+00 0. -1.
        -11    1    4    4    0    0  0.38986619464E-01  0.86333514773E-02  0.67334157383E-01  0.78285638060E-01  0.51100000000E-03 0. -1.
         11    1    4    4    0    0  0.10743981779E-01  0.17612397415E-02  0.49263513759E-01  0.50454831472E-01  0.51100000000E-03 0.  1.
</event>
<event>
 8    1  0.1088270E+005  0.1043930E+01  0.7957747E-01            NaN
         13   -1    0    0    0    0  0.00000000000E+00  0.00000000000E+00  0.74505805969E-08  0.10566000000E+00  0.10566000000E+00 0.  1.
     999900   -1    0    0    0    0 -0.00000000000E+00 -0.00000000000E+00 -0.74505805969E-08  0.93827000000E+00  0.93827000000E+00 0. -1.
     999902    2    1    2    0    0 -0.13020333624E-01 -0.22160486929E-01 -0.11738703250E-01  0.10156737897E+01  0.10152806674E+01 0.  0.
     999903    2    3    3    0    0  0.11194313105E+00 -0.52632672198E-01 -0.14146489935E-01  0.12631996861E+00  0.21334210119E-01 0.  0.
         14    1    1    2    0    0  0.13020333624E-01  0.22160486929E-01  0.11738703250E-01  0.28256210338E-01  0.00000000000E+00 0.  1.
     999901    1    3    3    0    0 -0.12496346467E+00  0.30472185269E-01  0.24077866848E-02  0.88935382105E+00  0.88000000000E+00 0.  1.
        -11    1    4    4    0    0  0.37642381322E-01 -0.82484761342E-02 -0.92421236008E-02  0.39631606071E-01  0.51100000000E-03 0.  1.
         11    1    4    4    0    0  0.74300749726E-01 -0.44384196064E-01 -0.49043663342E-02  0.86688362542E-01  0.51100000000E-03 0. -1.
</event>
<event>
 8    1  0.1088270E+005  0.1043930E+01  0.7957747E-01            NaN
         13   -1    0    0    0    0  0.00000000000E+00  0.00000000000E+00  0.74505805969E-08  0.10566000000E+00  0.10566000000E+00 0. -1.
     999900   -1    0    0    0    0 -0.00000000000E+00 -0.00000000000E+00 -0.74505805969E-08  0.93827000000E+00  0.93827000000E+00 0.  1.
     999902    2    1    2    0    0 -0.63123299702E-02 -0.43395491013E-03  0.24256704173E-01  0.10188616629E+01  0.10185532223E+01 0.  0.
     999903    2    3    3    0    0  0.76381939963E-01  0.38550538294E-01 -0.91132439260E-01  0.12663255142E+00  0.20256772654E-01 0.  0.
         14    1    1    2    0    0  0.63123299702E-02  0.43395491013E-03 -0.24256704173E-01  0.25068337078E-01  0.00000000000E+00 0.  1.
     999901    1    3    3    0    0 -0.82694269933E-01 -0.38984493204E-01  0.11538914343E+00  0.89222911150E+00  0.88000000000E+00 0. -1.
        -11    1    4    4    0    0  0.45008519459E-01  0.13941721066E-01 -0.40144533314E-01  0.61903013547E-01  0.51100000000E-03 0. -1.
         11    1    4    4    0    0  0.31373420504E-01  0.24608817228E-01 -0.50987905946E-01  0.64729537873E-01  0.51100000000E-03 0.  1.
</event>
<event>
 8    1  0.1088270E+005  0.1043930E+01  0.7957747E-01            NaN
         13   -1    0    0    0    0  0.00000000000E+00  0.00000000000E+00  0.74505805969E-08  0.10566000000E+00  0.10566000000E+00 0. -1.
     999900   -1    0    0    0    0 -0.00000000000E+00 -0.00000000000E+00 -0.74505805969E-08  0.93827000000E+00  0.93827000000E+00 0. -1.
     999902    2    1    2    0    0  0.42377270665E-02  0.23451666496E-01  0.11936631020E-02  0.10200686542E+01  0.10197895349E+01 0.  0.
     999903    2    3    3    0    0 -0.11948819572E+00 -0.31607072671E-01 -0.31698377156E-01  0.12910206950E+00  0.19649968846E-01 0.  0.
         14    1    1    2    0    0 -0.42377270665E-02 -0.23451666496E-01 -0.11936631020E-02  0.23861345807E-01  0.00000000000E+00 0.  1.
     999901    1    3    3    0    0  0.12372592279E+00  0.55058739166E-01  0.32892040258E-01  0.89096658469E+00  0.88000000000E+00 0.  1.
        -11    1    4    4    0    0 -0.16390393947E-01 -0.10092667834E-01 -0.94866157787E-02  0.21465413057E-01  0.51100000000E-03 0. -1.
         11    1    4    4    0    0 -0.10309780177E+00 -0.21514404836E-01 -0.22211761377E-01  0.10763665644E+00  0.51100000000E-03 0.  1.
</event>
<event>
 8    1  0.1088270E+005  0.1043930E+01  0.7957747E-01            NaN
         13   -1    0    0    0    0  0.00000000000E+00  0.00000000000E+00  0.74505805969E-08  0.10566000000E+00  0.10566000000E+00 0. -1.
     999900   -1    0    0    0    0 -0.00000000000E+00 -0.00000000000E+00 -0.74505805969E-08  0.93827000000E+00  0.93827000000E+00 0.  1.
     999902    2    1    2    0    0  0.27768451025E-01  0.14317090687E-02 -0.66941986620E-02  0.10153301930E+01  0.10149273136E+01 0.  0.
     999903    2    3    3    0    0 -0.51677624320E-01  0.10756805457E+00 -0.31415413414E-01  0.12505622329E+00  0.20264934384E-01 0.  0.
         14    1    1    2    0    0 -0.27768451025E-01 -0.14317090687E-02  0.66941986620E-02  0.28599806974E-01  0.00000000000E+00 0.  1.
     999901    1    3    3    0    0  0.79446075345E-01 -0.10613634550E+00  0.24721214752E-01  0.89027396973E+00  0.88000000000E+00 0.  1.
        -11    1    4    4    0    0 -0.33127560644E-01  0.76587063800E-01 -0.30764985985E-01  0.88936826452E-01  0.51100000000E-03 0. -1.
         11    1    4    4    0    0 -0.18550063676E-01  0.30980990769E-01 -0.65042742892E-03  0.36119396842E-01  0.51100000000E-03 0.  1.
</event>
<event>
 8    1  0.1088270E+005  0.1043930E+01  0.7957747E-01            NaN
         13   -1    0    0    0    0  0.00000000000E+00  0.00000000000E+00  0.74505805969E-08  0.10566000000E+00  0.10566000000E+00 0. -1.
     999900   -1    0    0    0    0 -0.00000000000E+00 -0.00000000000E+00 -0.74505805969E-08  0.93827000000E+00  0.93827000000E+00 0.  1.
     999902    2    1    2    0    0 -0.49938769542E-02 -0.22792382002E-01  0.80201209670E-02  0.10192570629E+01  0.10189583929E+01 0.  0.
     999903    2    3    3    0    0  0.24915502290E-01 -0.11999586706E+00  0.45544438940E-01  0.13260540475E+00  0.22138362318E-01 0.  0.
         14    1    1    2    0    0  0.49938769542E-02  0.22792382002E-01 -0.80201209670E-02  0.24672937090E-01  0.00000000000E+00 0.  1.
     999901    1    3    3    0    0 -0.29909379245E-01  0.97203485055E-01 -0.37524317973E-01  0.88665165816E+00  0.88000000000E+00 0. -1.
        -11    1    4    4    0    0  0.86090557289E-02 -0.42939138498E-01  0.51853587354E-02  0.44102545524E-01  0.51100000000E-03 0.  1.
         11    1    4    4    0    0  0.16306446562E-01 -0.77056728559E-01  0.40359080204E-01  0.88502859228E-01  0.51100000000E-03 0. -1.
</event>
<event>
 8    1  0.1088270E+005  0.1043930E+01  0.7957747E-01            NaN
         13   -1    0    0    0    0  0.00000000000E+00  0.00000000000E+00  0.74505805969E-08  0.10566000000E+00  0.10566000000E+00 0. -1.
     999900   -1    0    0    0    0 -0.00000000000E+00 -0.00000000000E+00 -0.74505805969E-08  0.93827000000E+00  0.93827000000E+00 0. -1.
     999902    2    1    2    0    0  0.31844799536E-01 -0.85843790875E-02  0.34733782413E-02  0.10107660561E+01  0.10102218434E+01 0.  0.
     999903    2    3    3    0    0  0.12346800143E+00 -0.43150791666E-02  0.13241115999E-01  0.12594491777E+00  0.20587080253E-01 0.  0.
         14    1    1    2    0    0 -0.31844799536E-01  0.85843790875E-02 -0.34733782413E-02  0.33163943948E-01  0.00000000000E+00 0.  1.
     999901    1    3    3    0    0 -0.91623201898E-01 -0.42692999208E-02 -0.97677377576E-02  0.88482113828E+00  0.88000000000E+00 0.  1.
        -11    1    4    4    0    0  0.81749839177E-01 -0.44240582022E-02 -0.94842748183E-03  0.81876548120E-01  0.51100000000E-03 0. -1.
         11    1    4    4    0    0  0.41718162257E-01  0.10897903558E-03  0.14189543481E-01  0.44068369651E-01  0.51100000000E-03 0.  1.
</event>
<event>
 8    1  0.1088270E+005  0.1043930E+01  0.7957747E-01            NaN
         13   -1    0    0    0    0  0.00000000000E+00  0.00000000000E+00  0.74505805969E-08  0.10566000000E+00  0.10566000000E+00 0.  1.
     999900   -1    0    0    0    0 -0.00000000000E+00 -0.00000000000E+00 -0.74505805969E-08  0.93827000000E+00  0.93827000000E+00 0. -1.
     999902    2    1    2    0    0  0.53095141084E-02 -0.19477890520E-01  0.12929210406E-01  0.10199561884E+01  0.10196744003E+01 0.  0.
     999903    2    3    3    0    0 -0.11704212155E+00 -0.33746495344E-01  0.43031350848E-01  0.13086696080E+00  0.20899284896E-01 0.  0.
         14    1    1    2    0    0 -0.53095141084E-02  0.19477890520E-01 -0.12929210406E-01  0.23973811564E-01  0.00000000000E+00 0. -1.
     999901    1    3    3    0    0  0.12235163566E+00  0.14268604824E-01 -0.30102140442E-01  0.88908922763E+00  0.88000000000E+00 0. -1.
        -11    1    4    4    0    0 -0.10012687109E+00 -0.21925732447E-01  0.39878687347E-01  0.10998499390E+00  0.51100000000E-03 0.  1.
         11    1    4    4    0    0 -0.16915250458E-01 -0.11820762897E-01  0.31526635006E-02  0.20881966901E-01  0.51100000000E-03 0. -1.
</event>
<event>
 8    1  0.1088270E+005  0.1043930E+01  0.7957747E-01            NaN
         13   -1    0    0    0    0  0.00000000000E+00  0.00000000000E+00  0.74505805969E-08  0.10566000000E+00  0.10566000000E+00 0. -1.
     999900   -1    0    0    0    0 -0.00000000000E+00 -0.00000000000E+00 -0.74505805969E-08  0.93827000000E+00  0.93827000000E+00 0. -1.
     999902    2    1    2    0    0  0.13101863863E-01 -0.18672783740E-01 -0.45700167045E-02  0.10206659345E+01  0.10204007709E+01 0.  0.
     999903    2    3    3    0    0  0.24434250204E-01 -0.95330232967E-01 -0.87873967110E-01  0.13334167833E+00  0.19320537855E-01 0.  0.
         14    1    1    2    0    0 -0.13101863863E-01  0.18672783740E-01  0.45700167045E-02  0.23264065465E-01  0.00000000000E+00 0. -1.
     999901    1    3    3    0    0 -0.11332386341E-01  0.76657449227E-01  0.83303950405E-01  0.88732425621E+00  0.88000000000E+00 0.  1.
        -11    1    4    4    0    0  0.25755357640E-02 -0.48890555466E-01 -0.42889834558E-01  0.65090082406E-01  0.51100000000E-03 0. -1.
         11    1    4    4    0    0  0.21858714440E-01 -0.46439677501E-01 -0.44984132552E-01  0.68251595921E-01  0.51100000000E-03 0.  1.
</event>
<event>
 8    1  0.1088270E+005  0.1043930E+01  0.7957747E-01            NaN
         13   -1    0    0    0    0  0.00000000000E+00  0.00000000000E+00  0.74505805969E-08  0.10566000000E+00  0.10566000000E+00 0.  1.
     999900   -1    0    0    0    0 -0.00000000000E+00 -0.00000000000E+00 -0.74505805969E-08  0.93827000000E+00  0.93827000000E+00 0. -1.
     999902    2    1    2    0    0  0.18658677069E-01  0.10365407952E-01  0.98621218041E-02  0.10204172512E+01  0.10201463214E+01 0.  0.
     999903    2    3    3    0    0  0.10909205390E+00 -0.56365836335E-01 -0.43328518174E-01  0.13167628845E+00  0.19572958952E-01 0.  0.
         14    1    1    2    0    0 -0.18658677069E-01 -0.10365407952E-01 -0.98621218041E-02  0.23512748849E-01  0.00000000000E+00 0.  1.
     999901    1    3    3    0    0 -0.90433376829E-01  0.66731244288E-01  0.53190639978E-01  0.88874096271E+00  0.88000000000E+00 0.  1.
        -11    1    4    4    0    0  0.66634669227E-01 -0.30183013260E-01 -0.35023563592E-01  0.81105514979E-01  0.51100000000E-03 0.  1.
         11    1    4    4    0    0  0.42457384671E-01 -0.26182823076E-01 -0.83049545819E-02  0.50570773466E-01  0.51100000000E-03 0. -1.
</event>
<event>
 8    1  0.1088270E+005  0.1043930E+01  0.7957747E-01            NaN
         13   -1    0    0    0    0  0.00000000000E+00  0.00000000000E+00  0.74505805969E-08  0.10566000000E+00  0.10566000000E+00 0.  1.
     999900   -1    0    0    0    0 -0.00000000000E+00 -0.00000000000E+00 -0.74505805969E-08  0.93827000000E+00  0.93827000000E+00 0. -1.
     999902    2    1    2    0    0  0.59343419958E-02  0.23205441290E-01 -0.18799117428E-02  0.10199041184E+01  0.10196210902E+01 0.  0.
     999903    2    3    3    0    0  0.48354415064E-01  0.48860767479E-01  0.11016061183E+00  0.13141622464E+00  0.20232143877E-01 0.  0.
         14    1    1    2    0    0 -0.59343419958E-02 -0.23205441290E-01  0.18799117428E-02  0.24025881640E-01  0.00000000000E+00 0. -1.
     999901    1    3    3    0    0 -0.42420073068E-01 -0.25655326189E-01 -0.11204052357E+00  0.88848789372E+00  0.88000000000E+00 0. -1.
        -11    1    4    4    0    0  0.34608500078E-01  0.20750636686E-01  0.62945295323E-01  0.74771040683E-01  0.51100000000E-03 0. -1.
         11    1    4    4    0    0  0.13745914986E-01  0.28110130793E-01  0.47215316506E-01  0.56645183960E-01  0.51100000000E-03 0.  1.
</event>
